;
;   File g4np_pamam.itp  was generated
;   By user: sairam (1000)
;   On host: sairam
;   At date: Sat. August  6 14:12:18 2023
;
;   This is a standalone topology file
;
;   Created by:
;   ParmEd:       amb2gro_top_gro.py, VERSION 3.4.1
;   Executable:   amb2gro_top_gro.py
;   Library dir:  /usr/local/gromacs/share/gromacs/top
;   Command line:
;     ./amb2gro_top_gro.py -p g4np_pamam.prmtop -c g4np_pamam.inpcrd -t g4np_pamam.itp -g g4np_pamam.gro -b g4np_pamam.pdb
;

;[ defaults ]
;; nbfunc        comb-rule       gen-pairs       fudgeLJ fudgeQQ
;1               2               yes             0.5          0.83333333  
;
;[ atomtypes ]
;; name    at.num    mass    charge ptype  sigma      epsilon
;c3             6  12.010000  0.00000000  A     0.33996695      0.4577296
;h1             1   1.008000  0.00000000  A      0.2471353      0.0656888
;n3             7  14.010000  0.00000000  A     0.32499985        0.71128
;hc             1   1.008000  0.00000000  A     0.26495328      0.0656888
;c              6  12.010000  0.00000000  A     0.33996695       0.359824
;o              8  16.000000  0.00000000  A     0.29599219        0.87864
;n              7  14.010000  0.00000000  A     0.32499985        0.71128
;hn             1   1.008000  0.00000000  A     0.10690785      0.0656888
;

[ moleculetype ]
; Name            nrexcl
g4np_pamam      3

[ atoms ]
;   nr       type  resnr residue  atom   cgnr    charge       mass  typeB    chargeB      massB
; residue    1 aaa rtp aaa q -0.0
    1         c3      1    aaa     C1      1 0.02890000  12.010000   ; qtot 0.028900
    2         h1      1    aaa     H1      2 0.08460000   1.008000   ; qtot 0.113500
    3         h1      1    aaa     H2      3 0.08460000   1.008000   ; qtot 0.198100
    4         c3      1    aaa     C2      4 0.02890000  12.010000   ; qtot 0.227000
    5         h1      1    aaa     H3      5 0.08460000   1.008000   ; qtot 0.311600
    6         h1      1    aaa     H4      6 0.08460000   1.008000   ; qtot 0.396200
    7         n3      1    aaa     N1      7 -0.65770000  14.010000   ; qtot -0.261500
    8         n3      1    aaa     N2      8 -0.65770000  14.010000   ; qtot -0.919200
    9         c3      1    aaa     C3      9 0.36940000  12.010000   ; qtot -0.549800
   10         h1      1    aaa     H5     10 0.00650000   1.008000   ; qtot -0.543300
   11         h1      1    aaa     H6     11 0.00650000   1.008000   ; qtot -0.536800
   12         c3      1    aaa     C4     12 0.36940000  12.010000   ; qtot -0.167400
   13         h1      1    aaa     H7     13 0.00650000   1.008000   ; qtot -0.160900
   14         h1      1    aaa     H8     14 0.00650000   1.008000   ; qtot -0.154400
   15         c3      1    aaa     C5     15 0.36940000  12.010000   ; qtot 0.215000
   16         h1      1    aaa     H9     16 0.00650000   1.008000   ; qtot 0.221500
   17         h1      1    aaa    H10     17 0.00650000   1.008000   ; qtot 0.228000
   18         c3      1    aaa     C6     18 0.36940000  12.010000   ; qtot 0.597400
   19         h1      1    aaa    H11     19 0.00650000   1.008000   ; qtot 0.603900
   20         h1      1    aaa    H12     20 0.00650000   1.008000   ; qtot 0.610400
   21         c3      1    aaa     C7     21 -0.54350000  12.010000   ; qtot 0.066900
   22         hc      1    aaa    H13     22 0.15890000   1.008000   ; qtot 0.225800
   23         hc      1    aaa    H14     23 0.15890000   1.008000   ; qtot 0.384700
   24         c3      1    aaa     C8     24 -0.54350000  12.010000   ; qtot -0.158800
   25         hc      1    aaa    H15     25 0.15890000   1.008000   ; qtot 0.000100
   26         hc      1    aaa    H16     26 0.15890000   1.008000   ; qtot 0.159000
   27         c3      1    aaa     C9     27 -0.54350000  12.010000   ; qtot -0.384500
   28         hc      1    aaa    H17     28 0.15890000   1.008000   ; qtot -0.225600
   29         hc      1    aaa    H18     29 0.15890000   1.008000   ; qtot -0.066700
   30         c3      1    aaa    C10     30 -0.54350000  12.010000   ; qtot -0.610200
   31         hc      1    aaa    H19     31 0.15890000   1.008000   ; qtot -0.451300
   32         hc      1    aaa    H20     32 0.15890000   1.008000   ; qtot -0.292400
   33          c      1    aaa    C11     33 0.67800000  12.010000   ; qtot 0.385600
   34          c      1    aaa    C12     34 0.67800000  12.010000   ; qtot 1.063600
   35          c      1    aaa    C13     35 0.67800000  12.010000   ; qtot 1.741600
   36          c      1    aaa    C14     36 0.67800000  12.010000   ; qtot 2.419600
   37          o      1    aaa     O1     37 -0.60490000  16.000000   ; qtot 1.814700
   38          o      1    aaa     O2     38 -0.60490000  16.000000   ; qtot 1.209800
   39          o      1    aaa     O3     39 -0.60490000  16.000000   ; qtot 0.604900
   40          o      1    aaa     O4     40 -0.60490000  16.000000   ; qtot -0.000000
; residue    2 bbb rtp bbb q -0.0
   41         c3      2    bbb     C1     41 0.44180000  12.010000   ; qtot 0.441800
   42         h1      2    bbb     H1     42 -0.03530000   1.008000   ; qtot 0.406500
   43         h1      2    bbb     H2     43 -0.03530000   1.008000   ; qtot 0.371200
   44         c3      2    bbb     C2     44 -0.28250000  12.010000   ; qtot 0.088700
   45         h1      2    bbb     H3     45 0.15710000   1.008000   ; qtot 0.245800
   46         h1      2    bbb     H4     46 0.15710000   1.008000   ; qtot 0.402900
   47         n3      2    bbb     N1     47 -0.74090000  14.010000   ; qtot -0.338000
   48         c3      2    bbb     C3     48 0.51680000  12.010000   ; qtot 0.178800
   49         h1      2    bbb     H5     49 -0.05230000   1.008000   ; qtot 0.126500
   50         h1      2    bbb     H6     50 -0.05230000   1.008000   ; qtot 0.074200
   51         c3      2    bbb     C4     51 0.51680000  12.010000   ; qtot 0.591000
   52         h1      2    bbb     H7     52 -0.05230000   1.008000   ; qtot 0.538700
   53         h1      2    bbb     H8     53 -0.05230000   1.008000   ; qtot 0.486400
   54         c3      2    bbb     C5     54 -0.60390000  12.010000   ; qtot -0.117500
   55         hc      2    bbb     H9     55 0.16730000   1.008000   ; qtot 0.049800
   56         hc      2    bbb    H10     56 0.16730000   1.008000   ; qtot 0.217100
   57         c3      2    bbb     C6     57 -0.60390000  12.010000   ; qtot -0.386800
   58         hc      2    bbb    H11     58 0.16730000   1.008000   ; qtot -0.219500
   59         hc      2    bbb    H12     59 0.16730000   1.008000   ; qtot -0.052200
   60          c      2    bbb     C7     60 0.72110000  12.010000   ; qtot 0.668900
   61          c      2    bbb     C8     61 0.72110000  12.010000   ; qtot 1.390000
   62          o      2    bbb     O1     62 -0.61950000  16.000000   ; qtot 0.770500
   63          o      2    bbb     O2     63 -0.61950000  16.000000   ; qtot 0.151000
   64          n      2    bbb     N4     64 -0.46580000  14.010000   ; qtot -0.314800
   65         hn      2    bbb    H21     65 0.31480000   1.008000   ; qtot -0.000000
; residue    3 bbb rtp bbb q -0.0
   66         c3      3    bbb     C1     66 0.44180000  12.010000   ; qtot 0.441800
   67         h1      3    bbb     H1     67 -0.03530000   1.008000   ; qtot 0.406500
   68         h1      3    bbb     H2     68 -0.03530000   1.008000   ; qtot 0.371200
   69         c3      3    bbb     C2     69 -0.28250000  12.010000   ; qtot 0.088700
   70         h1      3    bbb     H3     70 0.15710000   1.008000   ; qtot 0.245800
   71         h1      3    bbb     H4     71 0.15710000   1.008000   ; qtot 0.402900
   72         n3      3    bbb     N1     72 -0.74090000  14.010000   ; qtot -0.338000
   73         c3      3    bbb     C3     73 0.51680000  12.010000   ; qtot 0.178800
   74         h1      3    bbb     H5     74 -0.05230000   1.008000   ; qtot 0.126500
   75         h1      3    bbb     H6     75 -0.05230000   1.008000   ; qtot 0.074200
   76         c3      3    bbb     C4     76 0.51680000  12.010000   ; qtot 0.591000
   77         h1      3    bbb     H7     77 -0.05230000   1.008000   ; qtot 0.538700
   78         h1      3    bbb     H8     78 -0.05230000   1.008000   ; qtot 0.486400
   79         c3      3    bbb     C5     79 -0.60390000  12.010000   ; qtot -0.117500
   80         hc      3    bbb     H9     80 0.16730000   1.008000   ; qtot 0.049800
   81         hc      3    bbb    H10     81 0.16730000   1.008000   ; qtot 0.217100
   82         c3      3    bbb     C6     82 -0.60390000  12.010000   ; qtot -0.386800
   83         hc      3    bbb    H11     83 0.16730000   1.008000   ; qtot -0.219500
   84         hc      3    bbb    H12     84 0.16730000   1.008000   ; qtot -0.052200
   85          c      3    bbb     C7     85 0.72110000  12.010000   ; qtot 0.668900
   86          c      3    bbb     C8     86 0.72110000  12.010000   ; qtot 1.390000
   87          o      3    bbb     O1     87 -0.61950000  16.000000   ; qtot 0.770500
   88          o      3    bbb     O2     88 -0.61950000  16.000000   ; qtot 0.151000
   89          n      3    bbb     N4     89 -0.46580000  14.010000   ; qtot -0.314800
   90         hn      3    bbb    H21     90 0.31480000   1.008000   ; qtot -0.000000
; residue    4 bbb rtp bbb q -0.0
   91         c3      4    bbb     C1     91 0.44180000  12.010000   ; qtot 0.441800
   92         h1      4    bbb     H1     92 -0.03530000   1.008000   ; qtot 0.406500
   93         h1      4    bbb     H2     93 -0.03530000   1.008000   ; qtot 0.371200
   94         c3      4    bbb     C2     94 -0.28250000  12.010000   ; qtot 0.088700
   95         h1      4    bbb     H3     95 0.15710000   1.008000   ; qtot 0.245800
   96         h1      4    bbb     H4     96 0.15710000   1.008000   ; qtot 0.402900
   97         n3      4    bbb     N1     97 -0.74090000  14.010000   ; qtot -0.338000
   98         c3      4    bbb     C3     98 0.51680000  12.010000   ; qtot 0.178800
   99         h1      4    bbb     H5     99 -0.05230000   1.008000   ; qtot 0.126500
  100         h1      4    bbb     H6    100 -0.05230000   1.008000   ; qtot 0.074200
  101         c3      4    bbb     C4    101 0.51680000  12.010000   ; qtot 0.591000
  102         h1      4    bbb     H7    102 -0.05230000   1.008000   ; qtot 0.538700
  103         h1      4    bbb     H8    103 -0.05230000   1.008000   ; qtot 0.486400
  104         c3      4    bbb     C5    104 -0.60390000  12.010000   ; qtot -0.117500
  105         hc      4    bbb     H9    105 0.16730000   1.008000   ; qtot 0.049800
  106         hc      4    bbb    H10    106 0.16730000   1.008000   ; qtot 0.217100
  107         c3      4    bbb     C6    107 -0.60390000  12.010000   ; qtot -0.386800
  108         hc      4    bbb    H11    108 0.16730000   1.008000   ; qtot -0.219500
  109         hc      4    bbb    H12    109 0.16730000   1.008000   ; qtot -0.052200
  110          c      4    bbb     C7    110 0.72110000  12.010000   ; qtot 0.668900
  111          c      4    bbb     C8    111 0.72110000  12.010000   ; qtot 1.390000
  112          o      4    bbb     O1    112 -0.61950000  16.000000   ; qtot 0.770500
  113          o      4    bbb     O2    113 -0.61950000  16.000000   ; qtot 0.151000
  114          n      4    bbb     N4    114 -0.46580000  14.010000   ; qtot -0.314800
  115         hn      4    bbb    H21    115 0.31480000   1.008000   ; qtot -0.000000
; residue    5 bbb rtp bbb q -0.0
  116         c3      5    bbb     C1    116 0.44180000  12.010000   ; qtot 0.441800
  117         h1      5    bbb     H1    117 -0.03530000   1.008000   ; qtot 0.406500
  118         h1      5    bbb     H2    118 -0.03530000   1.008000   ; qtot 0.371200
  119         c3      5    bbb     C2    119 -0.28250000  12.010000   ; qtot 0.088700
  120         h1      5    bbb     H3    120 0.15710000   1.008000   ; qtot 0.245800
  121         h1      5    bbb     H4    121 0.15710000   1.008000   ; qtot 0.402900
  122         n3      5    bbb     N1    122 -0.74090000  14.010000   ; qtot -0.338000
  123         c3      5    bbb     C3    123 0.51680000  12.010000   ; qtot 0.178800
  124         h1      5    bbb     H5    124 -0.05230000   1.008000   ; qtot 0.126500
  125         h1      5    bbb     H6    125 -0.05230000   1.008000   ; qtot 0.074200
  126         c3      5    bbb     C4    126 0.51680000  12.010000   ; qtot 0.591000
  127         h1      5    bbb     H7    127 -0.05230000   1.008000   ; qtot 0.538700
  128         h1      5    bbb     H8    128 -0.05230000   1.008000   ; qtot 0.486400
  129         c3      5    bbb     C5    129 -0.60390000  12.010000   ; qtot -0.117500
  130         hc      5    bbb     H9    130 0.16730000   1.008000   ; qtot 0.049800
  131         hc      5    bbb    H10    131 0.16730000   1.008000   ; qtot 0.217100
  132         c3      5    bbb     C6    132 -0.60390000  12.010000   ; qtot -0.386800
  133         hc      5    bbb    H11    133 0.16730000   1.008000   ; qtot -0.219500
  134         hc      5    bbb    H12    134 0.16730000   1.008000   ; qtot -0.052200
  135          c      5    bbb     C7    135 0.72110000  12.010000   ; qtot 0.668900
  136          c      5    bbb     C8    136 0.72110000  12.010000   ; qtot 1.390000
  137          o      5    bbb     O1    137 -0.61950000  16.000000   ; qtot 0.770500
  138          o      5    bbb     O2    138 -0.61950000  16.000000   ; qtot 0.151000
  139          n      5    bbb     N4    139 -0.46580000  14.010000   ; qtot -0.314800
  140         hn      5    bbb    H21    140 0.31480000   1.008000   ; qtot -0.000000
; residue    6 bbb rtp bbb q -0.0
  141         c3      6    bbb     C1    141 0.44180000  12.010000   ; qtot 0.441800
  142         h1      6    bbb     H1    142 -0.03530000   1.008000   ; qtot 0.406500
  143         h1      6    bbb     H2    143 -0.03530000   1.008000   ; qtot 0.371200
  144         c3      6    bbb     C2    144 -0.28250000  12.010000   ; qtot 0.088700
  145         h1      6    bbb     H3    145 0.15710000   1.008000   ; qtot 0.245800
  146         h1      6    bbb     H4    146 0.15710000   1.008000   ; qtot 0.402900
  147         n3      6    bbb     N1    147 -0.74090000  14.010000   ; qtot -0.338000
  148         c3      6    bbb     C3    148 0.51680000  12.010000   ; qtot 0.178800
  149         h1      6    bbb     H5    149 -0.05230000   1.008000   ; qtot 0.126500
  150         h1      6    bbb     H6    150 -0.05230000   1.008000   ; qtot 0.074200
  151         c3      6    bbb     C4    151 0.51680000  12.010000   ; qtot 0.591000
  152         h1      6    bbb     H7    152 -0.05230000   1.008000   ; qtot 0.538700
  153         h1      6    bbb     H8    153 -0.05230000   1.008000   ; qtot 0.486400
  154         c3      6    bbb     C5    154 -0.60390000  12.010000   ; qtot -0.117500
  155         hc      6    bbb     H9    155 0.16730000   1.008000   ; qtot 0.049800
  156         hc      6    bbb    H10    156 0.16730000   1.008000   ; qtot 0.217100
  157         c3      6    bbb     C6    157 -0.60390000  12.010000   ; qtot -0.386800
  158         hc      6    bbb    H11    158 0.16730000   1.008000   ; qtot -0.219500
  159         hc      6    bbb    H12    159 0.16730000   1.008000   ; qtot -0.052200
  160          c      6    bbb     C7    160 0.72110000  12.010000   ; qtot 0.668900
  161          c      6    bbb     C8    161 0.72110000  12.010000   ; qtot 1.390000
  162          o      6    bbb     O1    162 -0.61950000  16.000000   ; qtot 0.770500
  163          o      6    bbb     O2    163 -0.61950000  16.000000   ; qtot 0.151000
  164          n      6    bbb     N4    164 -0.46580000  14.010000   ; qtot -0.314800
  165         hn      6    bbb    H21    165 0.31480000   1.008000   ; qtot -0.000000
; residue    7 bbb rtp bbb q -0.0
  166         c3      7    bbb     C1    166 0.44180000  12.010000   ; qtot 0.441800
  167         h1      7    bbb     H1    167 -0.03530000   1.008000   ; qtot 0.406500
  168         h1      7    bbb     H2    168 -0.03530000   1.008000   ; qtot 0.371200
  169         c3      7    bbb     C2    169 -0.28250000  12.010000   ; qtot 0.088700
  170         h1      7    bbb     H3    170 0.15710000   1.008000   ; qtot 0.245800
  171         h1      7    bbb     H4    171 0.15710000   1.008000   ; qtot 0.402900
  172         n3      7    bbb     N1    172 -0.74090000  14.010000   ; qtot -0.338000
  173         c3      7    bbb     C3    173 0.51680000  12.010000   ; qtot 0.178800
  174         h1      7    bbb     H5    174 -0.05230000   1.008000   ; qtot 0.126500
  175         h1      7    bbb     H6    175 -0.05230000   1.008000   ; qtot 0.074200
  176         c3      7    bbb     C4    176 0.51680000  12.010000   ; qtot 0.591000
  177         h1      7    bbb     H7    177 -0.05230000   1.008000   ; qtot 0.538700
  178         h1      7    bbb     H8    178 -0.05230000   1.008000   ; qtot 0.486400
  179         c3      7    bbb     C5    179 -0.60390000  12.010000   ; qtot -0.117500
  180         hc      7    bbb     H9    180 0.16730000   1.008000   ; qtot 0.049800
  181         hc      7    bbb    H10    181 0.16730000   1.008000   ; qtot 0.217100
  182         c3      7    bbb     C6    182 -0.60390000  12.010000   ; qtot -0.386800
  183         hc      7    bbb    H11    183 0.16730000   1.008000   ; qtot -0.219500
  184         hc      7    bbb    H12    184 0.16730000   1.008000   ; qtot -0.052200
  185          c      7    bbb     C7    185 0.72110000  12.010000   ; qtot 0.668900
  186          c      7    bbb     C8    186 0.72110000  12.010000   ; qtot 1.390000
  187          o      7    bbb     O1    187 -0.61950000  16.000000   ; qtot 0.770500
  188          o      7    bbb     O2    188 -0.61950000  16.000000   ; qtot 0.151000
  189          n      7    bbb     N4    189 -0.46580000  14.010000   ; qtot -0.314800
  190         hn      7    bbb    H21    190 0.31480000   1.008000   ; qtot -0.000000
; residue    8 bbb rtp bbb q -0.0
  191         c3      8    bbb     C1    191 0.44180000  12.010000   ; qtot 0.441800
  192         h1      8    bbb     H1    192 -0.03530000   1.008000   ; qtot 0.406500
  193         h1      8    bbb     H2    193 -0.03530000   1.008000   ; qtot 0.371200
  194         c3      8    bbb     C2    194 -0.28250000  12.010000   ; qtot 0.088700
  195         h1      8    bbb     H3    195 0.15710000   1.008000   ; qtot 0.245800
  196         h1      8    bbb     H4    196 0.15710000   1.008000   ; qtot 0.402900
  197         n3      8    bbb     N1    197 -0.74090000  14.010000   ; qtot -0.338000
  198         c3      8    bbb     C3    198 0.51680000  12.010000   ; qtot 0.178800
  199         h1      8    bbb     H5    199 -0.05230000   1.008000   ; qtot 0.126500
  200         h1      8    bbb     H6    200 -0.05230000   1.008000   ; qtot 0.074200
  201         c3      8    bbb     C4    201 0.51680000  12.010000   ; qtot 0.591000
  202         h1      8    bbb     H7    202 -0.05230000   1.008000   ; qtot 0.538700
  203         h1      8    bbb     H8    203 -0.05230000   1.008000   ; qtot 0.486400
  204         c3      8    bbb     C5    204 -0.60390000  12.010000   ; qtot -0.117500
  205         hc      8    bbb     H9    205 0.16730000   1.008000   ; qtot 0.049800
  206         hc      8    bbb    H10    206 0.16730000   1.008000   ; qtot 0.217100
  207         c3      8    bbb     C6    207 -0.60390000  12.010000   ; qtot -0.386800
  208         hc      8    bbb    H11    208 0.16730000   1.008000   ; qtot -0.219500
  209         hc      8    bbb    H12    209 0.16730000   1.008000   ; qtot -0.052200
  210          c      8    bbb     C7    210 0.72110000  12.010000   ; qtot 0.668900
  211          c      8    bbb     C8    211 0.72110000  12.010000   ; qtot 1.390000
  212          o      8    bbb     O1    212 -0.61950000  16.000000   ; qtot 0.770500
  213          o      8    bbb     O2    213 -0.61950000  16.000000   ; qtot 0.151000
  214          n      8    bbb     N4    214 -0.46580000  14.010000   ; qtot -0.314800
  215         hn      8    bbb    H21    215 0.31480000   1.008000   ; qtot -0.000000
; residue    9 bbb rtp bbb q -0.0
  216         c3      9    bbb     C1    216 0.44180000  12.010000   ; qtot 0.441800
  217         h1      9    bbb     H1    217 -0.03530000   1.008000   ; qtot 0.406500
  218         h1      9    bbb     H2    218 -0.03530000   1.008000   ; qtot 0.371200
  219         c3      9    bbb     C2    219 -0.28250000  12.010000   ; qtot 0.088700
  220         h1      9    bbb     H3    220 0.15710000   1.008000   ; qtot 0.245800
  221         h1      9    bbb     H4    221 0.15710000   1.008000   ; qtot 0.402900
  222         n3      9    bbb     N1    222 -0.74090000  14.010000   ; qtot -0.338000
  223         c3      9    bbb     C3    223 0.51680000  12.010000   ; qtot 0.178800
  224         h1      9    bbb     H5    224 -0.05230000   1.008000   ; qtot 0.126500
  225         h1      9    bbb     H6    225 -0.05230000   1.008000   ; qtot 0.074200
  226         c3      9    bbb     C4    226 0.51680000  12.010000   ; qtot 0.591000
  227         h1      9    bbb     H7    227 -0.05230000   1.008000   ; qtot 0.538700
  228         h1      9    bbb     H8    228 -0.05230000   1.008000   ; qtot 0.486400
  229         c3      9    bbb     C5    229 -0.60390000  12.010000   ; qtot -0.117500
  230         hc      9    bbb     H9    230 0.16730000   1.008000   ; qtot 0.049800
  231         hc      9    bbb    H10    231 0.16730000   1.008000   ; qtot 0.217100
  232         c3      9    bbb     C6    232 -0.60390000  12.010000   ; qtot -0.386800
  233         hc      9    bbb    H11    233 0.16730000   1.008000   ; qtot -0.219500
  234         hc      9    bbb    H12    234 0.16730000   1.008000   ; qtot -0.052200
  235          c      9    bbb     C7    235 0.72110000  12.010000   ; qtot 0.668900
  236          c      9    bbb     C8    236 0.72110000  12.010000   ; qtot 1.390000
  237          o      9    bbb     O1    237 -0.61950000  16.000000   ; qtot 0.770500
  238          o      9    bbb     O2    238 -0.61950000  16.000000   ; qtot 0.151000
  239          n      9    bbb     N4    239 -0.46580000  14.010000   ; qtot -0.314800
  240         hn      9    bbb    H21    240 0.31480000   1.008000   ; qtot -0.000000
; residue   10 bbb rtp bbb q -0.0
  241         c3     10    bbb     C1    241 0.44180000  12.010000   ; qtot 0.441800
  242         h1     10    bbb     H1    242 -0.03530000   1.008000   ; qtot 0.406500
  243         h1     10    bbb     H2    243 -0.03530000   1.008000   ; qtot 0.371200
  244         c3     10    bbb     C2    244 -0.28250000  12.010000   ; qtot 0.088700
  245         h1     10    bbb     H3    245 0.15710000   1.008000   ; qtot 0.245800
  246         h1     10    bbb     H4    246 0.15710000   1.008000   ; qtot 0.402900
  247         n3     10    bbb     N1    247 -0.74090000  14.010000   ; qtot -0.338000
  248         c3     10    bbb     C3    248 0.51680000  12.010000   ; qtot 0.178800
  249         h1     10    bbb     H5    249 -0.05230000   1.008000   ; qtot 0.126500
  250         h1     10    bbb     H6    250 -0.05230000   1.008000   ; qtot 0.074200
  251         c3     10    bbb     C4    251 0.51680000  12.010000   ; qtot 0.591000
  252         h1     10    bbb     H7    252 -0.05230000   1.008000   ; qtot 0.538700
  253         h1     10    bbb     H8    253 -0.05230000   1.008000   ; qtot 0.486400
  254         c3     10    bbb     C5    254 -0.60390000  12.010000   ; qtot -0.117500
  255         hc     10    bbb     H9    255 0.16730000   1.008000   ; qtot 0.049800
  256         hc     10    bbb    H10    256 0.16730000   1.008000   ; qtot 0.217100
  257         c3     10    bbb     C6    257 -0.60390000  12.010000   ; qtot -0.386800
  258         hc     10    bbb    H11    258 0.16730000   1.008000   ; qtot -0.219500
  259         hc     10    bbb    H12    259 0.16730000   1.008000   ; qtot -0.052200
  260          c     10    bbb     C7    260 0.72110000  12.010000   ; qtot 0.668900
  261          c     10    bbb     C8    261 0.72110000  12.010000   ; qtot 1.390000
  262          o     10    bbb     O1    262 -0.61950000  16.000000   ; qtot 0.770500
  263          o     10    bbb     O2    263 -0.61950000  16.000000   ; qtot 0.151000
  264          n     10    bbb     N4    264 -0.46580000  14.010000   ; qtot -0.314800
  265         hn     10    bbb    H21    265 0.31480000   1.008000   ; qtot -0.000000
; residue   11 bbb rtp bbb q -0.0
  266         c3     11    bbb     C1    266 0.44180000  12.010000   ; qtot 0.441800
  267         h1     11    bbb     H1    267 -0.03530000   1.008000   ; qtot 0.406500
  268         h1     11    bbb     H2    268 -0.03530000   1.008000   ; qtot 0.371200
  269         c3     11    bbb     C2    269 -0.28250000  12.010000   ; qtot 0.088700
  270         h1     11    bbb     H3    270 0.15710000   1.008000   ; qtot 0.245800
  271         h1     11    bbb     H4    271 0.15710000   1.008000   ; qtot 0.402900
  272         n3     11    bbb     N1    272 -0.74090000  14.010000   ; qtot -0.338000
  273         c3     11    bbb     C3    273 0.51680000  12.010000   ; qtot 0.178800
  274         h1     11    bbb     H5    274 -0.05230000   1.008000   ; qtot 0.126500
  275         h1     11    bbb     H6    275 -0.05230000   1.008000   ; qtot 0.074200
  276         c3     11    bbb     C4    276 0.51680000  12.010000   ; qtot 0.591000
  277         h1     11    bbb     H7    277 -0.05230000   1.008000   ; qtot 0.538700
  278         h1     11    bbb     H8    278 -0.05230000   1.008000   ; qtot 0.486400
  279         c3     11    bbb     C5    279 -0.60390000  12.010000   ; qtot -0.117500
  280         hc     11    bbb     H9    280 0.16730000   1.008000   ; qtot 0.049800
  281         hc     11    bbb    H10    281 0.16730000   1.008000   ; qtot 0.217100
  282         c3     11    bbb     C6    282 -0.60390000  12.010000   ; qtot -0.386800
  283         hc     11    bbb    H11    283 0.16730000   1.008000   ; qtot -0.219500
  284         hc     11    bbb    H12    284 0.16730000   1.008000   ; qtot -0.052200
  285          c     11    bbb     C7    285 0.72110000  12.010000   ; qtot 0.668900
  286          c     11    bbb     C8    286 0.72110000  12.010000   ; qtot 1.390000
  287          o     11    bbb     O1    287 -0.61950000  16.000000   ; qtot 0.770500
  288          o     11    bbb     O2    288 -0.61950000  16.000000   ; qtot 0.151000
  289          n     11    bbb     N4    289 -0.46580000  14.010000   ; qtot -0.314800
  290         hn     11    bbb    H21    290 0.31480000   1.008000   ; qtot -0.000000
; residue   12 bbb rtp bbb q -0.0
  291         c3     12    bbb     C1    291 0.44180000  12.010000   ; qtot 0.441800
  292         h1     12    bbb     H1    292 -0.03530000   1.008000   ; qtot 0.406500
  293         h1     12    bbb     H2    293 -0.03530000   1.008000   ; qtot 0.371200
  294         c3     12    bbb     C2    294 -0.28250000  12.010000   ; qtot 0.088700
  295         h1     12    bbb     H3    295 0.15710000   1.008000   ; qtot 0.245800
  296         h1     12    bbb     H4    296 0.15710000   1.008000   ; qtot 0.402900
  297         n3     12    bbb     N1    297 -0.74090000  14.010000   ; qtot -0.338000
  298         c3     12    bbb     C3    298 0.51680000  12.010000   ; qtot 0.178800
  299         h1     12    bbb     H5    299 -0.05230000   1.008000   ; qtot 0.126500
  300         h1     12    bbb     H6    300 -0.05230000   1.008000   ; qtot 0.074200
  301         c3     12    bbb     C4    301 0.51680000  12.010000   ; qtot 0.591000
  302         h1     12    bbb     H7    302 -0.05230000   1.008000   ; qtot 0.538700
  303         h1     12    bbb     H8    303 -0.05230000   1.008000   ; qtot 0.486400
  304         c3     12    bbb     C5    304 -0.60390000  12.010000   ; qtot -0.117500
  305         hc     12    bbb     H9    305 0.16730000   1.008000   ; qtot 0.049800
  306         hc     12    bbb    H10    306 0.16730000   1.008000   ; qtot 0.217100
  307         c3     12    bbb     C6    307 -0.60390000  12.010000   ; qtot -0.386800
  308         hc     12    bbb    H11    308 0.16730000   1.008000   ; qtot -0.219500
  309         hc     12    bbb    H12    309 0.16730000   1.008000   ; qtot -0.052200
  310          c     12    bbb     C7    310 0.72110000  12.010000   ; qtot 0.668900
  311          c     12    bbb     C8    311 0.72110000  12.010000   ; qtot 1.390000
  312          o     12    bbb     O1    312 -0.61950000  16.000000   ; qtot 0.770500
  313          o     12    bbb     O2    313 -0.61950000  16.000000   ; qtot 0.151000
  314          n     12    bbb     N4    314 -0.46580000  14.010000   ; qtot -0.314800
  315         hn     12    bbb    H21    315 0.31480000   1.008000   ; qtot -0.000000
; residue   13 bbb rtp bbb q -0.0
  316         c3     13    bbb     C1    316 0.44180000  12.010000   ; qtot 0.441800
  317         h1     13    bbb     H1    317 -0.03530000   1.008000   ; qtot 0.406500
  318         h1     13    bbb     H2    318 -0.03530000   1.008000   ; qtot 0.371200
  319         c3     13    bbb     C2    319 -0.28250000  12.010000   ; qtot 0.088700
  320         h1     13    bbb     H3    320 0.15710000   1.008000   ; qtot 0.245800
  321         h1     13    bbb     H4    321 0.15710000   1.008000   ; qtot 0.402900
  322         n3     13    bbb     N1    322 -0.74090000  14.010000   ; qtot -0.338000
  323         c3     13    bbb     C3    323 0.51680000  12.010000   ; qtot 0.178800
  324         h1     13    bbb     H5    324 -0.05230000   1.008000   ; qtot 0.126500
  325         h1     13    bbb     H6    325 -0.05230000   1.008000   ; qtot 0.074200
  326         c3     13    bbb     C4    326 0.51680000  12.010000   ; qtot 0.591000
  327         h1     13    bbb     H7    327 -0.05230000   1.008000   ; qtot 0.538700
  328         h1     13    bbb     H8    328 -0.05230000   1.008000   ; qtot 0.486400
  329         c3     13    bbb     C5    329 -0.60390000  12.010000   ; qtot -0.117500
  330         hc     13    bbb     H9    330 0.16730000   1.008000   ; qtot 0.049800
  331         hc     13    bbb    H10    331 0.16730000   1.008000   ; qtot 0.217100
  332         c3     13    bbb     C6    332 -0.60390000  12.010000   ; qtot -0.386800
  333         hc     13    bbb    H11    333 0.16730000   1.008000   ; qtot -0.219500
  334         hc     13    bbb    H12    334 0.16730000   1.008000   ; qtot -0.052200
  335          c     13    bbb     C7    335 0.72110000  12.010000   ; qtot 0.668900
  336          c     13    bbb     C8    336 0.72110000  12.010000   ; qtot 1.390000
  337          o     13    bbb     O1    337 -0.61950000  16.000000   ; qtot 0.770500
  338          o     13    bbb     O2    338 -0.61950000  16.000000   ; qtot 0.151000
  339          n     13    bbb     N4    339 -0.46580000  14.010000   ; qtot -0.314800
  340         hn     13    bbb    H21    340 0.31480000   1.008000   ; qtot -0.000000
; residue   14 bbb rtp bbb q -0.0
  341         c3     14    bbb     C1    341 0.44180000  12.010000   ; qtot 0.441800
  342         h1     14    bbb     H1    342 -0.03530000   1.008000   ; qtot 0.406500
  343         h1     14    bbb     H2    343 -0.03530000   1.008000   ; qtot 0.371200
  344         c3     14    bbb     C2    344 -0.28250000  12.010000   ; qtot 0.088700
  345         h1     14    bbb     H3    345 0.15710000   1.008000   ; qtot 0.245800
  346         h1     14    bbb     H4    346 0.15710000   1.008000   ; qtot 0.402900
  347         n3     14    bbb     N1    347 -0.74090000  14.010000   ; qtot -0.338000
  348         c3     14    bbb     C3    348 0.51680000  12.010000   ; qtot 0.178800
  349         h1     14    bbb     H5    349 -0.05230000   1.008000   ; qtot 0.126500
  350         h1     14    bbb     H6    350 -0.05230000   1.008000   ; qtot 0.074200
  351         c3     14    bbb     C4    351 0.51680000  12.010000   ; qtot 0.591000
  352         h1     14    bbb     H7    352 -0.05230000   1.008000   ; qtot 0.538700
  353         h1     14    bbb     H8    353 -0.05230000   1.008000   ; qtot 0.486400
  354         c3     14    bbb     C5    354 -0.60390000  12.010000   ; qtot -0.117500
  355         hc     14    bbb     H9    355 0.16730000   1.008000   ; qtot 0.049800
  356         hc     14    bbb    H10    356 0.16730000   1.008000   ; qtot 0.217100
  357         c3     14    bbb     C6    357 -0.60390000  12.010000   ; qtot -0.386800
  358         hc     14    bbb    H11    358 0.16730000   1.008000   ; qtot -0.219500
  359         hc     14    bbb    H12    359 0.16730000   1.008000   ; qtot -0.052200
  360          c     14    bbb     C7    360 0.72110000  12.010000   ; qtot 0.668900
  361          c     14    bbb     C8    361 0.72110000  12.010000   ; qtot 1.390000
  362          o     14    bbb     O1    362 -0.61950000  16.000000   ; qtot 0.770500
  363          o     14    bbb     O2    363 -0.61950000  16.000000   ; qtot 0.151000
  364          n     14    bbb     N4    364 -0.46580000  14.010000   ; qtot -0.314800
  365         hn     14    bbb    H21    365 0.31480000   1.008000   ; qtot -0.000000
; residue   15 bbb rtp bbb q -0.0
  366         c3     15    bbb     C1    366 0.44180000  12.010000   ; qtot 0.441800
  367         h1     15    bbb     H1    367 -0.03530000   1.008000   ; qtot 0.406500
  368         h1     15    bbb     H2    368 -0.03530000   1.008000   ; qtot 0.371200
  369         c3     15    bbb     C2    369 -0.28250000  12.010000   ; qtot 0.088700
  370         h1     15    bbb     H3    370 0.15710000   1.008000   ; qtot 0.245800
  371         h1     15    bbb     H4    371 0.15710000   1.008000   ; qtot 0.402900
  372         n3     15    bbb     N1    372 -0.74090000  14.010000   ; qtot -0.338000
  373         c3     15    bbb     C3    373 0.51680000  12.010000   ; qtot 0.178800
  374         h1     15    bbb     H5    374 -0.05230000   1.008000   ; qtot 0.126500
  375         h1     15    bbb     H6    375 -0.05230000   1.008000   ; qtot 0.074200
  376         c3     15    bbb     C4    376 0.51680000  12.010000   ; qtot 0.591000
  377         h1     15    bbb     H7    377 -0.05230000   1.008000   ; qtot 0.538700
  378         h1     15    bbb     H8    378 -0.05230000   1.008000   ; qtot 0.486400
  379         c3     15    bbb     C5    379 -0.60390000  12.010000   ; qtot -0.117500
  380         hc     15    bbb     H9    380 0.16730000   1.008000   ; qtot 0.049800
  381         hc     15    bbb    H10    381 0.16730000   1.008000   ; qtot 0.217100
  382         c3     15    bbb     C6    382 -0.60390000  12.010000   ; qtot -0.386800
  383         hc     15    bbb    H11    383 0.16730000   1.008000   ; qtot -0.219500
  384         hc     15    bbb    H12    384 0.16730000   1.008000   ; qtot -0.052200
  385          c     15    bbb     C7    385 0.72110000  12.010000   ; qtot 0.668900
  386          c     15    bbb     C8    386 0.72110000  12.010000   ; qtot 1.390000
  387          o     15    bbb     O1    387 -0.61950000  16.000000   ; qtot 0.770500
  388          o     15    bbb     O2    388 -0.61950000  16.000000   ; qtot 0.151000
  389          n     15    bbb     N4    389 -0.46580000  14.010000   ; qtot -0.314800
  390         hn     15    bbb    H21    390 0.31480000   1.008000   ; qtot -0.000000
; residue   16 bbb rtp bbb q -0.0
  391         c3     16    bbb     C1    391 0.44180000  12.010000   ; qtot 0.441800
  392         h1     16    bbb     H1    392 -0.03530000   1.008000   ; qtot 0.406500
  393         h1     16    bbb     H2    393 -0.03530000   1.008000   ; qtot 0.371200
  394         c3     16    bbb     C2    394 -0.28250000  12.010000   ; qtot 0.088700
  395         h1     16    bbb     H3    395 0.15710000   1.008000   ; qtot 0.245800
  396         h1     16    bbb     H4    396 0.15710000   1.008000   ; qtot 0.402900
  397         n3     16    bbb     N1    397 -0.74090000  14.010000   ; qtot -0.338000
  398         c3     16    bbb     C3    398 0.51680000  12.010000   ; qtot 0.178800
  399         h1     16    bbb     H5    399 -0.05230000   1.008000   ; qtot 0.126500
  400         h1     16    bbb     H6    400 -0.05230000   1.008000   ; qtot 0.074200
  401         c3     16    bbb     C4    401 0.51680000  12.010000   ; qtot 0.591000
  402         h1     16    bbb     H7    402 -0.05230000   1.008000   ; qtot 0.538700
  403         h1     16    bbb     H8    403 -0.05230000   1.008000   ; qtot 0.486400
  404         c3     16    bbb     C5    404 -0.60390000  12.010000   ; qtot -0.117500
  405         hc     16    bbb     H9    405 0.16730000   1.008000   ; qtot 0.049800
  406         hc     16    bbb    H10    406 0.16730000   1.008000   ; qtot 0.217100
  407         c3     16    bbb     C6    407 -0.60390000  12.010000   ; qtot -0.386800
  408         hc     16    bbb    H11    408 0.16730000   1.008000   ; qtot -0.219500
  409         hc     16    bbb    H12    409 0.16730000   1.008000   ; qtot -0.052200
  410          c     16    bbb     C7    410 0.72110000  12.010000   ; qtot 0.668900
  411          c     16    bbb     C8    411 0.72110000  12.010000   ; qtot 1.390000
  412          o     16    bbb     O1    412 -0.61950000  16.000000   ; qtot 0.770500
  413          o     16    bbb     O2    413 -0.61950000  16.000000   ; qtot 0.151000
  414          n     16    bbb     N4    414 -0.46580000  14.010000   ; qtot -0.314800
  415         hn     16    bbb    H21    415 0.31480000   1.008000   ; qtot -0.000000
; residue   17 bbb rtp bbb q -0.0
  416         c3     17    bbb     C1    416 0.44180000  12.010000   ; qtot 0.441800
  417         h1     17    bbb     H1    417 -0.03530000   1.008000   ; qtot 0.406500
  418         h1     17    bbb     H2    418 -0.03530000   1.008000   ; qtot 0.371200
  419         c3     17    bbb     C2    419 -0.28250000  12.010000   ; qtot 0.088700
  420         h1     17    bbb     H3    420 0.15710000   1.008000   ; qtot 0.245800
  421         h1     17    bbb     H4    421 0.15710000   1.008000   ; qtot 0.402900
  422         n3     17    bbb     N1    422 -0.74090000  14.010000   ; qtot -0.338000
  423         c3     17    bbb     C3    423 0.51680000  12.010000   ; qtot 0.178800
  424         h1     17    bbb     H5    424 -0.05230000   1.008000   ; qtot 0.126500
  425         h1     17    bbb     H6    425 -0.05230000   1.008000   ; qtot 0.074200
  426         c3     17    bbb     C4    426 0.51680000  12.010000   ; qtot 0.591000
  427         h1     17    bbb     H7    427 -0.05230000   1.008000   ; qtot 0.538700
  428         h1     17    bbb     H8    428 -0.05230000   1.008000   ; qtot 0.486400
  429         c3     17    bbb     C5    429 -0.60390000  12.010000   ; qtot -0.117500
  430         hc     17    bbb     H9    430 0.16730000   1.008000   ; qtot 0.049800
  431         hc     17    bbb    H10    431 0.16730000   1.008000   ; qtot 0.217100
  432         c3     17    bbb     C6    432 -0.60390000  12.010000   ; qtot -0.386800
  433         hc     17    bbb    H11    433 0.16730000   1.008000   ; qtot -0.219500
  434         hc     17    bbb    H12    434 0.16730000   1.008000   ; qtot -0.052200
  435          c     17    bbb     C7    435 0.72110000  12.010000   ; qtot 0.668900
  436          c     17    bbb     C8    436 0.72110000  12.010000   ; qtot 1.390000
  437          o     17    bbb     O1    437 -0.61950000  16.000000   ; qtot 0.770500
  438          o     17    bbb     O2    438 -0.61950000  16.000000   ; qtot 0.151000
  439          n     17    bbb     N4    439 -0.46580000  14.010000   ; qtot -0.314800
  440         hn     17    bbb    H21    440 0.31480000   1.008000   ; qtot -0.000000
; residue   18 bbb rtp bbb q -0.0
  441         c3     18    bbb     C1    441 0.44180000  12.010000   ; qtot 0.441800
  442         h1     18    bbb     H1    442 -0.03530000   1.008000   ; qtot 0.406500
  443         h1     18    bbb     H2    443 -0.03530000   1.008000   ; qtot 0.371200
  444         c3     18    bbb     C2    444 -0.28250000  12.010000   ; qtot 0.088700
  445         h1     18    bbb     H3    445 0.15710000   1.008000   ; qtot 0.245800
  446         h1     18    bbb     H4    446 0.15710000   1.008000   ; qtot 0.402900
  447         n3     18    bbb     N1    447 -0.74090000  14.010000   ; qtot -0.338000
  448         c3     18    bbb     C3    448 0.51680000  12.010000   ; qtot 0.178800
  449         h1     18    bbb     H5    449 -0.05230000   1.008000   ; qtot 0.126500
  450         h1     18    bbb     H6    450 -0.05230000   1.008000   ; qtot 0.074200
  451         c3     18    bbb     C4    451 0.51680000  12.010000   ; qtot 0.591000
  452         h1     18    bbb     H7    452 -0.05230000   1.008000   ; qtot 0.538700
  453         h1     18    bbb     H8    453 -0.05230000   1.008000   ; qtot 0.486400
  454         c3     18    bbb     C5    454 -0.60390000  12.010000   ; qtot -0.117500
  455         hc     18    bbb     H9    455 0.16730000   1.008000   ; qtot 0.049800
  456         hc     18    bbb    H10    456 0.16730000   1.008000   ; qtot 0.217100
  457         c3     18    bbb     C6    457 -0.60390000  12.010000   ; qtot -0.386800
  458         hc     18    bbb    H11    458 0.16730000   1.008000   ; qtot -0.219500
  459         hc     18    bbb    H12    459 0.16730000   1.008000   ; qtot -0.052200
  460          c     18    bbb     C7    460 0.72110000  12.010000   ; qtot 0.668900
  461          c     18    bbb     C8    461 0.72110000  12.010000   ; qtot 1.390000
  462          o     18    bbb     O1    462 -0.61950000  16.000000   ; qtot 0.770500
  463          o     18    bbb     O2    463 -0.61950000  16.000000   ; qtot 0.151000
  464          n     18    bbb     N4    464 -0.46580000  14.010000   ; qtot -0.314800
  465         hn     18    bbb    H21    465 0.31480000   1.008000   ; qtot -0.000000
; residue   19 bbb rtp bbb q -0.0
  466         c3     19    bbb     C1    466 0.44180000  12.010000   ; qtot 0.441800
  467         h1     19    bbb     H1    467 -0.03530000   1.008000   ; qtot 0.406500
  468         h1     19    bbb     H2    468 -0.03530000   1.008000   ; qtot 0.371200
  469         c3     19    bbb     C2    469 -0.28250000  12.010000   ; qtot 0.088700
  470         h1     19    bbb     H3    470 0.15710000   1.008000   ; qtot 0.245800
  471         h1     19    bbb     H4    471 0.15710000   1.008000   ; qtot 0.402900
  472         n3     19    bbb     N1    472 -0.74090000  14.010000   ; qtot -0.338000
  473         c3     19    bbb     C3    473 0.51680000  12.010000   ; qtot 0.178800
  474         h1     19    bbb     H5    474 -0.05230000   1.008000   ; qtot 0.126500
  475         h1     19    bbb     H6    475 -0.05230000   1.008000   ; qtot 0.074200
  476         c3     19    bbb     C4    476 0.51680000  12.010000   ; qtot 0.591000
  477         h1     19    bbb     H7    477 -0.05230000   1.008000   ; qtot 0.538700
  478         h1     19    bbb     H8    478 -0.05230000   1.008000   ; qtot 0.486400
  479         c3     19    bbb     C5    479 -0.60390000  12.010000   ; qtot -0.117500
  480         hc     19    bbb     H9    480 0.16730000   1.008000   ; qtot 0.049800
  481         hc     19    bbb    H10    481 0.16730000   1.008000   ; qtot 0.217100
  482         c3     19    bbb     C6    482 -0.60390000  12.010000   ; qtot -0.386800
  483         hc     19    bbb    H11    483 0.16730000   1.008000   ; qtot -0.219500
  484         hc     19    bbb    H12    484 0.16730000   1.008000   ; qtot -0.052200
  485          c     19    bbb     C7    485 0.72110000  12.010000   ; qtot 0.668900
  486          c     19    bbb     C8    486 0.72110000  12.010000   ; qtot 1.390000
  487          o     19    bbb     O1    487 -0.61950000  16.000000   ; qtot 0.770500
  488          o     19    bbb     O2    488 -0.61950000  16.000000   ; qtot 0.151000
  489          n     19    bbb     N4    489 -0.46580000  14.010000   ; qtot -0.314800
  490         hn     19    bbb    H21    490 0.31480000   1.008000   ; qtot -0.000000
; residue   20 bbb rtp bbb q -0.0
  491         c3     20    bbb     C1    491 0.44180000  12.010000   ; qtot 0.441800
  492         h1     20    bbb     H1    492 -0.03530000   1.008000   ; qtot 0.406500
  493         h1     20    bbb     H2    493 -0.03530000   1.008000   ; qtot 0.371200
  494         c3     20    bbb     C2    494 -0.28250000  12.010000   ; qtot 0.088700
  495         h1     20    bbb     H3    495 0.15710000   1.008000   ; qtot 0.245800
  496         h1     20    bbb     H4    496 0.15710000   1.008000   ; qtot 0.402900
  497         n3     20    bbb     N1    497 -0.74090000  14.010000   ; qtot -0.338000
  498         c3     20    bbb     C3    498 0.51680000  12.010000   ; qtot 0.178800
  499         h1     20    bbb     H5    499 -0.05230000   1.008000   ; qtot 0.126500
  500         h1     20    bbb     H6    500 -0.05230000   1.008000   ; qtot 0.074200
  501         c3     20    bbb     C4    501 0.51680000  12.010000   ; qtot 0.591000
  502         h1     20    bbb     H7    502 -0.05230000   1.008000   ; qtot 0.538700
  503         h1     20    bbb     H8    503 -0.05230000   1.008000   ; qtot 0.486400
  504         c3     20    bbb     C5    504 -0.60390000  12.010000   ; qtot -0.117500
  505         hc     20    bbb     H9    505 0.16730000   1.008000   ; qtot 0.049800
  506         hc     20    bbb    H10    506 0.16730000   1.008000   ; qtot 0.217100
  507         c3     20    bbb     C6    507 -0.60390000  12.010000   ; qtot -0.386800
  508         hc     20    bbb    H11    508 0.16730000   1.008000   ; qtot -0.219500
  509         hc     20    bbb    H12    509 0.16730000   1.008000   ; qtot -0.052200
  510          c     20    bbb     C7    510 0.72110000  12.010000   ; qtot 0.668900
  511          c     20    bbb     C8    511 0.72110000  12.010000   ; qtot 1.390000
  512          o     20    bbb     O1    512 -0.61950000  16.000000   ; qtot 0.770500
  513          o     20    bbb     O2    513 -0.61950000  16.000000   ; qtot 0.151000
  514          n     20    bbb     N4    514 -0.46580000  14.010000   ; qtot -0.314800
  515         hn     20    bbb    H21    515 0.31480000   1.008000   ; qtot -0.000000
; residue   21 bbb rtp bbb q -0.0
  516         c3     21    bbb     C1    516 0.44180000  12.010000   ; qtot 0.441800
  517         h1     21    bbb     H1    517 -0.03530000   1.008000   ; qtot 0.406500
  518         h1     21    bbb     H2    518 -0.03530000   1.008000   ; qtot 0.371200
  519         c3     21    bbb     C2    519 -0.28250000  12.010000   ; qtot 0.088700
  520         h1     21    bbb     H3    520 0.15710000   1.008000   ; qtot 0.245800
  521         h1     21    bbb     H4    521 0.15710000   1.008000   ; qtot 0.402900
  522         n3     21    bbb     N1    522 -0.74090000  14.010000   ; qtot -0.338000
  523         c3     21    bbb     C3    523 0.51680000  12.010000   ; qtot 0.178800
  524         h1     21    bbb     H5    524 -0.05230000   1.008000   ; qtot 0.126500
  525         h1     21    bbb     H6    525 -0.05230000   1.008000   ; qtot 0.074200
  526         c3     21    bbb     C4    526 0.51680000  12.010000   ; qtot 0.591000
  527         h1     21    bbb     H7    527 -0.05230000   1.008000   ; qtot 0.538700
  528         h1     21    bbb     H8    528 -0.05230000   1.008000   ; qtot 0.486400
  529         c3     21    bbb     C5    529 -0.60390000  12.010000   ; qtot -0.117500
  530         hc     21    bbb     H9    530 0.16730000   1.008000   ; qtot 0.049800
  531         hc     21    bbb    H10    531 0.16730000   1.008000   ; qtot 0.217100
  532         c3     21    bbb     C6    532 -0.60390000  12.010000   ; qtot -0.386800
  533         hc     21    bbb    H11    533 0.16730000   1.008000   ; qtot -0.219500
  534         hc     21    bbb    H12    534 0.16730000   1.008000   ; qtot -0.052200
  535          c     21    bbb     C7    535 0.72110000  12.010000   ; qtot 0.668900
  536          c     21    bbb     C8    536 0.72110000  12.010000   ; qtot 1.390000
  537          o     21    bbb     O1    537 -0.61950000  16.000000   ; qtot 0.770500
  538          o     21    bbb     O2    538 -0.61950000  16.000000   ; qtot 0.151000
  539          n     21    bbb     N4    539 -0.46580000  14.010000   ; qtot -0.314800
  540         hn     21    bbb    H21    540 0.31480000   1.008000   ; qtot -0.000000
; residue   22 bbb rtp bbb q -0.0
  541         c3     22    bbb     C1    541 0.44180000  12.010000   ; qtot 0.441800
  542         h1     22    bbb     H1    542 -0.03530000   1.008000   ; qtot 0.406500
  543         h1     22    bbb     H2    543 -0.03530000   1.008000   ; qtot 0.371200
  544         c3     22    bbb     C2    544 -0.28250000  12.010000   ; qtot 0.088700
  545         h1     22    bbb     H3    545 0.15710000   1.008000   ; qtot 0.245800
  546         h1     22    bbb     H4    546 0.15710000   1.008000   ; qtot 0.402900
  547         n3     22    bbb     N1    547 -0.74090000  14.010000   ; qtot -0.338000
  548         c3     22    bbb     C3    548 0.51680000  12.010000   ; qtot 0.178800
  549         h1     22    bbb     H5    549 -0.05230000   1.008000   ; qtot 0.126500
  550         h1     22    bbb     H6    550 -0.05230000   1.008000   ; qtot 0.074200
  551         c3     22    bbb     C4    551 0.51680000  12.010000   ; qtot 0.591000
  552         h1     22    bbb     H7    552 -0.05230000   1.008000   ; qtot 0.538700
  553         h1     22    bbb     H8    553 -0.05230000   1.008000   ; qtot 0.486400
  554         c3     22    bbb     C5    554 -0.60390000  12.010000   ; qtot -0.117500
  555         hc     22    bbb     H9    555 0.16730000   1.008000   ; qtot 0.049800
  556         hc     22    bbb    H10    556 0.16730000   1.008000   ; qtot 0.217100
  557         c3     22    bbb     C6    557 -0.60390000  12.010000   ; qtot -0.386800
  558         hc     22    bbb    H11    558 0.16730000   1.008000   ; qtot -0.219500
  559         hc     22    bbb    H12    559 0.16730000   1.008000   ; qtot -0.052200
  560          c     22    bbb     C7    560 0.72110000  12.010000   ; qtot 0.668900
  561          c     22    bbb     C8    561 0.72110000  12.010000   ; qtot 1.390000
  562          o     22    bbb     O1    562 -0.61950000  16.000000   ; qtot 0.770500
  563          o     22    bbb     O2    563 -0.61950000  16.000000   ; qtot 0.151000
  564          n     22    bbb     N4    564 -0.46580000  14.010000   ; qtot -0.314800
  565         hn     22    bbb    H21    565 0.31480000   1.008000   ; qtot -0.000000
; residue   23 bbb rtp bbb q -0.0
  566         c3     23    bbb     C1    566 0.44180000  12.010000   ; qtot 0.441800
  567         h1     23    bbb     H1    567 -0.03530000   1.008000   ; qtot 0.406500
  568         h1     23    bbb     H2    568 -0.03530000   1.008000   ; qtot 0.371200
  569         c3     23    bbb     C2    569 -0.28250000  12.010000   ; qtot 0.088700
  570         h1     23    bbb     H3    570 0.15710000   1.008000   ; qtot 0.245800
  571         h1     23    bbb     H4    571 0.15710000   1.008000   ; qtot 0.402900
  572         n3     23    bbb     N1    572 -0.74090000  14.010000   ; qtot -0.338000
  573         c3     23    bbb     C3    573 0.51680000  12.010000   ; qtot 0.178800
  574         h1     23    bbb     H5    574 -0.05230000   1.008000   ; qtot 0.126500
  575         h1     23    bbb     H6    575 -0.05230000   1.008000   ; qtot 0.074200
  576         c3     23    bbb     C4    576 0.51680000  12.010000   ; qtot 0.591000
  577         h1     23    bbb     H7    577 -0.05230000   1.008000   ; qtot 0.538700
  578         h1     23    bbb     H8    578 -0.05230000   1.008000   ; qtot 0.486400
  579         c3     23    bbb     C5    579 -0.60390000  12.010000   ; qtot -0.117500
  580         hc     23    bbb     H9    580 0.16730000   1.008000   ; qtot 0.049800
  581         hc     23    bbb    H10    581 0.16730000   1.008000   ; qtot 0.217100
  582         c3     23    bbb     C6    582 -0.60390000  12.010000   ; qtot -0.386800
  583         hc     23    bbb    H11    583 0.16730000   1.008000   ; qtot -0.219500
  584         hc     23    bbb    H12    584 0.16730000   1.008000   ; qtot -0.052200
  585          c     23    bbb     C7    585 0.72110000  12.010000   ; qtot 0.668900
  586          c     23    bbb     C8    586 0.72110000  12.010000   ; qtot 1.390000
  587          o     23    bbb     O1    587 -0.61950000  16.000000   ; qtot 0.770500
  588          o     23    bbb     O2    588 -0.61950000  16.000000   ; qtot 0.151000
  589          n     23    bbb     N4    589 -0.46580000  14.010000   ; qtot -0.314800
  590         hn     23    bbb    H21    590 0.31480000   1.008000   ; qtot -0.000000
; residue   24 bbb rtp bbb q -0.0
  591         c3     24    bbb     C1    591 0.44180000  12.010000   ; qtot 0.441800
  592         h1     24    bbb     H1    592 -0.03530000   1.008000   ; qtot 0.406500
  593         h1     24    bbb     H2    593 -0.03530000   1.008000   ; qtot 0.371200
  594         c3     24    bbb     C2    594 -0.28250000  12.010000   ; qtot 0.088700
  595         h1     24    bbb     H3    595 0.15710000   1.008000   ; qtot 0.245800
  596         h1     24    bbb     H4    596 0.15710000   1.008000   ; qtot 0.402900
  597         n3     24    bbb     N1    597 -0.74090000  14.010000   ; qtot -0.338000
  598         c3     24    bbb     C3    598 0.51680000  12.010000   ; qtot 0.178800
  599         h1     24    bbb     H5    599 -0.05230000   1.008000   ; qtot 0.126500
  600         h1     24    bbb     H6    600 -0.05230000   1.008000   ; qtot 0.074200
  601         c3     24    bbb     C4    601 0.51680000  12.010000   ; qtot 0.591000
  602         h1     24    bbb     H7    602 -0.05230000   1.008000   ; qtot 0.538700
  603         h1     24    bbb     H8    603 -0.05230000   1.008000   ; qtot 0.486400
  604         c3     24    bbb     C5    604 -0.60390000  12.010000   ; qtot -0.117500
  605         hc     24    bbb     H9    605 0.16730000   1.008000   ; qtot 0.049800
  606         hc     24    bbb    H10    606 0.16730000   1.008000   ; qtot 0.217100
  607         c3     24    bbb     C6    607 -0.60390000  12.010000   ; qtot -0.386800
  608         hc     24    bbb    H11    608 0.16730000   1.008000   ; qtot -0.219500
  609         hc     24    bbb    H12    609 0.16730000   1.008000   ; qtot -0.052200
  610          c     24    bbb     C7    610 0.72110000  12.010000   ; qtot 0.668900
  611          c     24    bbb     C8    611 0.72110000  12.010000   ; qtot 1.390000
  612          o     24    bbb     O1    612 -0.61950000  16.000000   ; qtot 0.770500
  613          o     24    bbb     O2    613 -0.61950000  16.000000   ; qtot 0.151000
  614          n     24    bbb     N4    614 -0.46580000  14.010000   ; qtot -0.314800
  615         hn     24    bbb    H21    615 0.31480000   1.008000   ; qtot -0.000000
; residue   25 bbb rtp bbb q -0.0
  616         c3     25    bbb     C1    616 0.44180000  12.010000   ; qtot 0.441800
  617         h1     25    bbb     H1    617 -0.03530000   1.008000   ; qtot 0.406500
  618         h1     25    bbb     H2    618 -0.03530000   1.008000   ; qtot 0.371200
  619         c3     25    bbb     C2    619 -0.28250000  12.010000   ; qtot 0.088700
  620         h1     25    bbb     H3    620 0.15710000   1.008000   ; qtot 0.245800
  621         h1     25    bbb     H4    621 0.15710000   1.008000   ; qtot 0.402900
  622         n3     25    bbb     N1    622 -0.74090000  14.010000   ; qtot -0.338000
  623         c3     25    bbb     C3    623 0.51680000  12.010000   ; qtot 0.178800
  624         h1     25    bbb     H5    624 -0.05230000   1.008000   ; qtot 0.126500
  625         h1     25    bbb     H6    625 -0.05230000   1.008000   ; qtot 0.074200
  626         c3     25    bbb     C4    626 0.51680000  12.010000   ; qtot 0.591000
  627         h1     25    bbb     H7    627 -0.05230000   1.008000   ; qtot 0.538700
  628         h1     25    bbb     H8    628 -0.05230000   1.008000   ; qtot 0.486400
  629         c3     25    bbb     C5    629 -0.60390000  12.010000   ; qtot -0.117500
  630         hc     25    bbb     H9    630 0.16730000   1.008000   ; qtot 0.049800
  631         hc     25    bbb    H10    631 0.16730000   1.008000   ; qtot 0.217100
  632         c3     25    bbb     C6    632 -0.60390000  12.010000   ; qtot -0.386800
  633         hc     25    bbb    H11    633 0.16730000   1.008000   ; qtot -0.219500
  634         hc     25    bbb    H12    634 0.16730000   1.008000   ; qtot -0.052200
  635          c     25    bbb     C7    635 0.72110000  12.010000   ; qtot 0.668900
  636          c     25    bbb     C8    636 0.72110000  12.010000   ; qtot 1.390000
  637          o     25    bbb     O1    637 -0.61950000  16.000000   ; qtot 0.770500
  638          o     25    bbb     O2    638 -0.61950000  16.000000   ; qtot 0.151000
  639          n     25    bbb     N4    639 -0.46580000  14.010000   ; qtot -0.314800
  640         hn     25    bbb    H21    640 0.31480000   1.008000   ; qtot -0.000000
; residue   26 bbb rtp bbb q -0.0
  641         c3     26    bbb     C1    641 0.44180000  12.010000   ; qtot 0.441800
  642         h1     26    bbb     H1    642 -0.03530000   1.008000   ; qtot 0.406500
  643         h1     26    bbb     H2    643 -0.03530000   1.008000   ; qtot 0.371200
  644         c3     26    bbb     C2    644 -0.28250000  12.010000   ; qtot 0.088700
  645         h1     26    bbb     H3    645 0.15710000   1.008000   ; qtot 0.245800
  646         h1     26    bbb     H4    646 0.15710000   1.008000   ; qtot 0.402900
  647         n3     26    bbb     N1    647 -0.74090000  14.010000   ; qtot -0.338000
  648         c3     26    bbb     C3    648 0.51680000  12.010000   ; qtot 0.178800
  649         h1     26    bbb     H5    649 -0.05230000   1.008000   ; qtot 0.126500
  650         h1     26    bbb     H6    650 -0.05230000   1.008000   ; qtot 0.074200
  651         c3     26    bbb     C4    651 0.51680000  12.010000   ; qtot 0.591000
  652         h1     26    bbb     H7    652 -0.05230000   1.008000   ; qtot 0.538700
  653         h1     26    bbb     H8    653 -0.05230000   1.008000   ; qtot 0.486400
  654         c3     26    bbb     C5    654 -0.60390000  12.010000   ; qtot -0.117500
  655         hc     26    bbb     H9    655 0.16730000   1.008000   ; qtot 0.049800
  656         hc     26    bbb    H10    656 0.16730000   1.008000   ; qtot 0.217100
  657         c3     26    bbb     C6    657 -0.60390000  12.010000   ; qtot -0.386800
  658         hc     26    bbb    H11    658 0.16730000   1.008000   ; qtot -0.219500
  659         hc     26    bbb    H12    659 0.16730000   1.008000   ; qtot -0.052200
  660          c     26    bbb     C7    660 0.72110000  12.010000   ; qtot 0.668900
  661          c     26    bbb     C8    661 0.72110000  12.010000   ; qtot 1.390000
  662          o     26    bbb     O1    662 -0.61950000  16.000000   ; qtot 0.770500
  663          o     26    bbb     O2    663 -0.61950000  16.000000   ; qtot 0.151000
  664          n     26    bbb     N4    664 -0.46580000  14.010000   ; qtot -0.314800
  665         hn     26    bbb    H21    665 0.31480000   1.008000   ; qtot -0.000000
; residue   27 bbb rtp bbb q -0.0
  666         c3     27    bbb     C1    666 0.44180000  12.010000   ; qtot 0.441800
  667         h1     27    bbb     H1    667 -0.03530000   1.008000   ; qtot 0.406500
  668         h1     27    bbb     H2    668 -0.03530000   1.008000   ; qtot 0.371200
  669         c3     27    bbb     C2    669 -0.28250000  12.010000   ; qtot 0.088700
  670         h1     27    bbb     H3    670 0.15710000   1.008000   ; qtot 0.245800
  671         h1     27    bbb     H4    671 0.15710000   1.008000   ; qtot 0.402900
  672         n3     27    bbb     N1    672 -0.74090000  14.010000   ; qtot -0.338000
  673         c3     27    bbb     C3    673 0.51680000  12.010000   ; qtot 0.178800
  674         h1     27    bbb     H5    674 -0.05230000   1.008000   ; qtot 0.126500
  675         h1     27    bbb     H6    675 -0.05230000   1.008000   ; qtot 0.074200
  676         c3     27    bbb     C4    676 0.51680000  12.010000   ; qtot 0.591000
  677         h1     27    bbb     H7    677 -0.05230000   1.008000   ; qtot 0.538700
  678         h1     27    bbb     H8    678 -0.05230000   1.008000   ; qtot 0.486400
  679         c3     27    bbb     C5    679 -0.60390000  12.010000   ; qtot -0.117500
  680         hc     27    bbb     H9    680 0.16730000   1.008000   ; qtot 0.049800
  681         hc     27    bbb    H10    681 0.16730000   1.008000   ; qtot 0.217100
  682         c3     27    bbb     C6    682 -0.60390000  12.010000   ; qtot -0.386800
  683         hc     27    bbb    H11    683 0.16730000   1.008000   ; qtot -0.219500
  684         hc     27    bbb    H12    684 0.16730000   1.008000   ; qtot -0.052200
  685          c     27    bbb     C7    685 0.72110000  12.010000   ; qtot 0.668900
  686          c     27    bbb     C8    686 0.72110000  12.010000   ; qtot 1.390000
  687          o     27    bbb     O1    687 -0.61950000  16.000000   ; qtot 0.770500
  688          o     27    bbb     O2    688 -0.61950000  16.000000   ; qtot 0.151000
  689          n     27    bbb     N4    689 -0.46580000  14.010000   ; qtot -0.314800
  690         hn     27    bbb    H21    690 0.31480000   1.008000   ; qtot -0.000000
; residue   28 bbb rtp bbb q -0.0
  691         c3     28    bbb     C1    691 0.44180000  12.010000   ; qtot 0.441800
  692         h1     28    bbb     H1    692 -0.03530000   1.008000   ; qtot 0.406500
  693         h1     28    bbb     H2    693 -0.03530000   1.008000   ; qtot 0.371200
  694         c3     28    bbb     C2    694 -0.28250000  12.010000   ; qtot 0.088700
  695         h1     28    bbb     H3    695 0.15710000   1.008000   ; qtot 0.245800
  696         h1     28    bbb     H4    696 0.15710000   1.008000   ; qtot 0.402900
  697         n3     28    bbb     N1    697 -0.74090000  14.010000   ; qtot -0.338000
  698         c3     28    bbb     C3    698 0.51680000  12.010000   ; qtot 0.178800
  699         h1     28    bbb     H5    699 -0.05230000   1.008000   ; qtot 0.126500
  700         h1     28    bbb     H6    700 -0.05230000   1.008000   ; qtot 0.074200
  701         c3     28    bbb     C4    701 0.51680000  12.010000   ; qtot 0.591000
  702         h1     28    bbb     H7    702 -0.05230000   1.008000   ; qtot 0.538700
  703         h1     28    bbb     H8    703 -0.05230000   1.008000   ; qtot 0.486400
  704         c3     28    bbb     C5    704 -0.60390000  12.010000   ; qtot -0.117500
  705         hc     28    bbb     H9    705 0.16730000   1.008000   ; qtot 0.049800
  706         hc     28    bbb    H10    706 0.16730000   1.008000   ; qtot 0.217100
  707         c3     28    bbb     C6    707 -0.60390000  12.010000   ; qtot -0.386800
  708         hc     28    bbb    H11    708 0.16730000   1.008000   ; qtot -0.219500
  709         hc     28    bbb    H12    709 0.16730000   1.008000   ; qtot -0.052200
  710          c     28    bbb     C7    710 0.72110000  12.010000   ; qtot 0.668900
  711          c     28    bbb     C8    711 0.72110000  12.010000   ; qtot 1.390000
  712          o     28    bbb     O1    712 -0.61950000  16.000000   ; qtot 0.770500
  713          o     28    bbb     O2    713 -0.61950000  16.000000   ; qtot 0.151000
  714          n     28    bbb     N4    714 -0.46580000  14.010000   ; qtot -0.314800
  715         hn     28    bbb    H21    715 0.31480000   1.008000   ; qtot -0.000000
; residue   29 bbb rtp bbb q -0.0
  716         c3     29    bbb     C1    716 0.44180000  12.010000   ; qtot 0.441800
  717         h1     29    bbb     H1    717 -0.03530000   1.008000   ; qtot 0.406500
  718         h1     29    bbb     H2    718 -0.03530000   1.008000   ; qtot 0.371200
  719         c3     29    bbb     C2    719 -0.28250000  12.010000   ; qtot 0.088700
  720         h1     29    bbb     H3    720 0.15710000   1.008000   ; qtot 0.245800
  721         h1     29    bbb     H4    721 0.15710000   1.008000   ; qtot 0.402900
  722         n3     29    bbb     N1    722 -0.74090000  14.010000   ; qtot -0.338000
  723         c3     29    bbb     C3    723 0.51680000  12.010000   ; qtot 0.178800
  724         h1     29    bbb     H5    724 -0.05230000   1.008000   ; qtot 0.126500
  725         h1     29    bbb     H6    725 -0.05230000   1.008000   ; qtot 0.074200
  726         c3     29    bbb     C4    726 0.51680000  12.010000   ; qtot 0.591000
  727         h1     29    bbb     H7    727 -0.05230000   1.008000   ; qtot 0.538700
  728         h1     29    bbb     H8    728 -0.05230000   1.008000   ; qtot 0.486400
  729         c3     29    bbb     C5    729 -0.60390000  12.010000   ; qtot -0.117500
  730         hc     29    bbb     H9    730 0.16730000   1.008000   ; qtot 0.049800
  731         hc     29    bbb    H10    731 0.16730000   1.008000   ; qtot 0.217100
  732         c3     29    bbb     C6    732 -0.60390000  12.010000   ; qtot -0.386800
  733         hc     29    bbb    H11    733 0.16730000   1.008000   ; qtot -0.219500
  734         hc     29    bbb    H12    734 0.16730000   1.008000   ; qtot -0.052200
  735          c     29    bbb     C7    735 0.72110000  12.010000   ; qtot 0.668900
  736          c     29    bbb     C8    736 0.72110000  12.010000   ; qtot 1.390000
  737          o     29    bbb     O1    737 -0.61950000  16.000000   ; qtot 0.770500
  738          o     29    bbb     O2    738 -0.61950000  16.000000   ; qtot 0.151000
  739          n     29    bbb     N4    739 -0.46580000  14.010000   ; qtot -0.314800
  740         hn     29    bbb    H21    740 0.31480000   1.008000   ; qtot -0.000000
; residue   30 bbb rtp bbb q -0.0
  741         c3     30    bbb     C1    741 0.44180000  12.010000   ; qtot 0.441800
  742         h1     30    bbb     H1    742 -0.03530000   1.008000   ; qtot 0.406500
  743         h1     30    bbb     H2    743 -0.03530000   1.008000   ; qtot 0.371200
  744         c3     30    bbb     C2    744 -0.28250000  12.010000   ; qtot 0.088700
  745         h1     30    bbb     H3    745 0.15710000   1.008000   ; qtot 0.245800
  746         h1     30    bbb     H4    746 0.15710000   1.008000   ; qtot 0.402900
  747         n3     30    bbb     N1    747 -0.74090000  14.010000   ; qtot -0.338000
  748         c3     30    bbb     C3    748 0.51680000  12.010000   ; qtot 0.178800
  749         h1     30    bbb     H5    749 -0.05230000   1.008000   ; qtot 0.126500
  750         h1     30    bbb     H6    750 -0.05230000   1.008000   ; qtot 0.074200
  751         c3     30    bbb     C4    751 0.51680000  12.010000   ; qtot 0.591000
  752         h1     30    bbb     H7    752 -0.05230000   1.008000   ; qtot 0.538700
  753         h1     30    bbb     H8    753 -0.05230000   1.008000   ; qtot 0.486400
  754         c3     30    bbb     C5    754 -0.60390000  12.010000   ; qtot -0.117500
  755         hc     30    bbb     H9    755 0.16730000   1.008000   ; qtot 0.049800
  756         hc     30    bbb    H10    756 0.16730000   1.008000   ; qtot 0.217100
  757         c3     30    bbb     C6    757 -0.60390000  12.010000   ; qtot -0.386800
  758         hc     30    bbb    H11    758 0.16730000   1.008000   ; qtot -0.219500
  759         hc     30    bbb    H12    759 0.16730000   1.008000   ; qtot -0.052200
  760          c     30    bbb     C7    760 0.72110000  12.010000   ; qtot 0.668900
  761          c     30    bbb     C8    761 0.72110000  12.010000   ; qtot 1.390000
  762          o     30    bbb     O1    762 -0.61950000  16.000000   ; qtot 0.770500
  763          o     30    bbb     O2    763 -0.61950000  16.000000   ; qtot 0.151000
  764          n     30    bbb     N4    764 -0.46580000  14.010000   ; qtot -0.314800
  765         hn     30    bbb    H21    765 0.31480000   1.008000   ; qtot -0.000000
; residue   31 bbb rtp bbb q -0.0
  766         c3     31    bbb     C1    766 0.44180000  12.010000   ; qtot 0.441800
  767         h1     31    bbb     H1    767 -0.03530000   1.008000   ; qtot 0.406500
  768         h1     31    bbb     H2    768 -0.03530000   1.008000   ; qtot 0.371200
  769         c3     31    bbb     C2    769 -0.28250000  12.010000   ; qtot 0.088700
  770         h1     31    bbb     H3    770 0.15710000   1.008000   ; qtot 0.245800
  771         h1     31    bbb     H4    771 0.15710000   1.008000   ; qtot 0.402900
  772         n3     31    bbb     N1    772 -0.74090000  14.010000   ; qtot -0.338000
  773         c3     31    bbb     C3    773 0.51680000  12.010000   ; qtot 0.178800
  774         h1     31    bbb     H5    774 -0.05230000   1.008000   ; qtot 0.126500
  775         h1     31    bbb     H6    775 -0.05230000   1.008000   ; qtot 0.074200
  776         c3     31    bbb     C4    776 0.51680000  12.010000   ; qtot 0.591000
  777         h1     31    bbb     H7    777 -0.05230000   1.008000   ; qtot 0.538700
  778         h1     31    bbb     H8    778 -0.05230000   1.008000   ; qtot 0.486400
  779         c3     31    bbb     C5    779 -0.60390000  12.010000   ; qtot -0.117500
  780         hc     31    bbb     H9    780 0.16730000   1.008000   ; qtot 0.049800
  781         hc     31    bbb    H10    781 0.16730000   1.008000   ; qtot 0.217100
  782         c3     31    bbb     C6    782 -0.60390000  12.010000   ; qtot -0.386800
  783         hc     31    bbb    H11    783 0.16730000   1.008000   ; qtot -0.219500
  784         hc     31    bbb    H12    784 0.16730000   1.008000   ; qtot -0.052200
  785          c     31    bbb     C7    785 0.72110000  12.010000   ; qtot 0.668900
  786          c     31    bbb     C8    786 0.72110000  12.010000   ; qtot 1.390000
  787          o     31    bbb     O1    787 -0.61950000  16.000000   ; qtot 0.770500
  788          o     31    bbb     O2    788 -0.61950000  16.000000   ; qtot 0.151000
  789          n     31    bbb     N4    789 -0.46580000  14.010000   ; qtot -0.314800
  790         hn     31    bbb    H21    790 0.31480000   1.008000   ; qtot -0.000000
; residue   32 bbb rtp bbb q -0.0
  791         c3     32    bbb     C1    791 0.44180000  12.010000   ; qtot 0.441800
  792         h1     32    bbb     H1    792 -0.03530000   1.008000   ; qtot 0.406500
  793         h1     32    bbb     H2    793 -0.03530000   1.008000   ; qtot 0.371200
  794         c3     32    bbb     C2    794 -0.28250000  12.010000   ; qtot 0.088700
  795         h1     32    bbb     H3    795 0.15710000   1.008000   ; qtot 0.245800
  796         h1     32    bbb     H4    796 0.15710000   1.008000   ; qtot 0.402900
  797         n3     32    bbb     N1    797 -0.74090000  14.010000   ; qtot -0.338000
  798         c3     32    bbb     C3    798 0.51680000  12.010000   ; qtot 0.178800
  799         h1     32    bbb     H5    799 -0.05230000   1.008000   ; qtot 0.126500
  800         h1     32    bbb     H6    800 -0.05230000   1.008000   ; qtot 0.074200
  801         c3     32    bbb     C4    801 0.51680000  12.010000   ; qtot 0.591000
  802         h1     32    bbb     H7    802 -0.05230000   1.008000   ; qtot 0.538700
  803         h1     32    bbb     H8    803 -0.05230000   1.008000   ; qtot 0.486400
  804         c3     32    bbb     C5    804 -0.60390000  12.010000   ; qtot -0.117500
  805         hc     32    bbb     H9    805 0.16730000   1.008000   ; qtot 0.049800
  806         hc     32    bbb    H10    806 0.16730000   1.008000   ; qtot 0.217100
  807         c3     32    bbb     C6    807 -0.60390000  12.010000   ; qtot -0.386800
  808         hc     32    bbb    H11    808 0.16730000   1.008000   ; qtot -0.219500
  809         hc     32    bbb    H12    809 0.16730000   1.008000   ; qtot -0.052200
  810          c     32    bbb     C7    810 0.72110000  12.010000   ; qtot 0.668900
  811          c     32    bbb     C8    811 0.72110000  12.010000   ; qtot 1.390000
  812          o     32    bbb     O1    812 -0.61950000  16.000000   ; qtot 0.770500
  813          o     32    bbb     O2    813 -0.61950000  16.000000   ; qtot 0.151000
  814          n     32    bbb     N4    814 -0.46580000  14.010000   ; qtot -0.314800
  815         hn     32    bbb    H21    815 0.31480000   1.008000   ; qtot -0.000000
; residue   33 bbb rtp bbb q -0.0
  816         c3     33    bbb     C1    816 0.44180000  12.010000   ; qtot 0.441800
  817         h1     33    bbb     H1    817 -0.03530000   1.008000   ; qtot 0.406500
  818         h1     33    bbb     H2    818 -0.03530000   1.008000   ; qtot 0.371200
  819         c3     33    bbb     C2    819 -0.28250000  12.010000   ; qtot 0.088700
  820         h1     33    bbb     H3    820 0.15710000   1.008000   ; qtot 0.245800
  821         h1     33    bbb     H4    821 0.15710000   1.008000   ; qtot 0.402900
  822         n3     33    bbb     N1    822 -0.74090000  14.010000   ; qtot -0.338000
  823         c3     33    bbb     C3    823 0.51680000  12.010000   ; qtot 0.178800
  824         h1     33    bbb     H5    824 -0.05230000   1.008000   ; qtot 0.126500
  825         h1     33    bbb     H6    825 -0.05230000   1.008000   ; qtot 0.074200
  826         c3     33    bbb     C4    826 0.51680000  12.010000   ; qtot 0.591000
  827         h1     33    bbb     H7    827 -0.05230000   1.008000   ; qtot 0.538700
  828         h1     33    bbb     H8    828 -0.05230000   1.008000   ; qtot 0.486400
  829         c3     33    bbb     C5    829 -0.60390000  12.010000   ; qtot -0.117500
  830         hc     33    bbb     H9    830 0.16730000   1.008000   ; qtot 0.049800
  831         hc     33    bbb    H10    831 0.16730000   1.008000   ; qtot 0.217100
  832         c3     33    bbb     C6    832 -0.60390000  12.010000   ; qtot -0.386800
  833         hc     33    bbb    H11    833 0.16730000   1.008000   ; qtot -0.219500
  834         hc     33    bbb    H12    834 0.16730000   1.008000   ; qtot -0.052200
  835          c     33    bbb     C7    835 0.72110000  12.010000   ; qtot 0.668900
  836          c     33    bbb     C8    836 0.72110000  12.010000   ; qtot 1.390000
  837          o     33    bbb     O1    837 -0.61950000  16.000000   ; qtot 0.770500
  838          o     33    bbb     O2    838 -0.61950000  16.000000   ; qtot 0.151000
  839          n     33    bbb     N4    839 -0.46580000  14.010000   ; qtot -0.314800
  840         hn     33    bbb    H21    840 0.31480000   1.008000   ; qtot -0.000000
; residue   34 bbb rtp bbb q -0.0
  841         c3     34    bbb     C1    841 0.44180000  12.010000   ; qtot 0.441800
  842         h1     34    bbb     H1    842 -0.03530000   1.008000   ; qtot 0.406500
  843         h1     34    bbb     H2    843 -0.03530000   1.008000   ; qtot 0.371200
  844         c3     34    bbb     C2    844 -0.28250000  12.010000   ; qtot 0.088700
  845         h1     34    bbb     H3    845 0.15710000   1.008000   ; qtot 0.245800
  846         h1     34    bbb     H4    846 0.15710000   1.008000   ; qtot 0.402900
  847         n3     34    bbb     N1    847 -0.74090000  14.010000   ; qtot -0.338000
  848         c3     34    bbb     C3    848 0.51680000  12.010000   ; qtot 0.178800
  849         h1     34    bbb     H5    849 -0.05230000   1.008000   ; qtot 0.126500
  850         h1     34    bbb     H6    850 -0.05230000   1.008000   ; qtot 0.074200
  851         c3     34    bbb     C4    851 0.51680000  12.010000   ; qtot 0.591000
  852         h1     34    bbb     H7    852 -0.05230000   1.008000   ; qtot 0.538700
  853         h1     34    bbb     H8    853 -0.05230000   1.008000   ; qtot 0.486400
  854         c3     34    bbb     C5    854 -0.60390000  12.010000   ; qtot -0.117500
  855         hc     34    bbb     H9    855 0.16730000   1.008000   ; qtot 0.049800
  856         hc     34    bbb    H10    856 0.16730000   1.008000   ; qtot 0.217100
  857         c3     34    bbb     C6    857 -0.60390000  12.010000   ; qtot -0.386800
  858         hc     34    bbb    H11    858 0.16730000   1.008000   ; qtot -0.219500
  859         hc     34    bbb    H12    859 0.16730000   1.008000   ; qtot -0.052200
  860          c     34    bbb     C7    860 0.72110000  12.010000   ; qtot 0.668900
  861          c     34    bbb     C8    861 0.72110000  12.010000   ; qtot 1.390000
  862          o     34    bbb     O1    862 -0.61950000  16.000000   ; qtot 0.770500
  863          o     34    bbb     O2    863 -0.61950000  16.000000   ; qtot 0.151000
  864          n     34    bbb     N4    864 -0.46580000  14.010000   ; qtot -0.314800
  865         hn     34    bbb    H21    865 0.31480000   1.008000   ; qtot -0.000000
; residue   35 bbb rtp bbb q -0.0
  866         c3     35    bbb     C1    866 0.44180000  12.010000   ; qtot 0.441800
  867         h1     35    bbb     H1    867 -0.03530000   1.008000   ; qtot 0.406500
  868         h1     35    bbb     H2    868 -0.03530000   1.008000   ; qtot 0.371200
  869         c3     35    bbb     C2    869 -0.28250000  12.010000   ; qtot 0.088700
  870         h1     35    bbb     H3    870 0.15710000   1.008000   ; qtot 0.245800
  871         h1     35    bbb     H4    871 0.15710000   1.008000   ; qtot 0.402900
  872         n3     35    bbb     N1    872 -0.74090000  14.010000   ; qtot -0.338000
  873         c3     35    bbb     C3    873 0.51680000  12.010000   ; qtot 0.178800
  874         h1     35    bbb     H5    874 -0.05230000   1.008000   ; qtot 0.126500
  875         h1     35    bbb     H6    875 -0.05230000   1.008000   ; qtot 0.074200
  876         c3     35    bbb     C4    876 0.51680000  12.010000   ; qtot 0.591000
  877         h1     35    bbb     H7    877 -0.05230000   1.008000   ; qtot 0.538700
  878         h1     35    bbb     H8    878 -0.05230000   1.008000   ; qtot 0.486400
  879         c3     35    bbb     C5    879 -0.60390000  12.010000   ; qtot -0.117500
  880         hc     35    bbb     H9    880 0.16730000   1.008000   ; qtot 0.049800
  881         hc     35    bbb    H10    881 0.16730000   1.008000   ; qtot 0.217100
  882         c3     35    bbb     C6    882 -0.60390000  12.010000   ; qtot -0.386800
  883         hc     35    bbb    H11    883 0.16730000   1.008000   ; qtot -0.219500
  884         hc     35    bbb    H12    884 0.16730000   1.008000   ; qtot -0.052200
  885          c     35    bbb     C7    885 0.72110000  12.010000   ; qtot 0.668900
  886          c     35    bbb     C8    886 0.72110000  12.010000   ; qtot 1.390000
  887          o     35    bbb     O1    887 -0.61950000  16.000000   ; qtot 0.770500
  888          o     35    bbb     O2    888 -0.61950000  16.000000   ; qtot 0.151000
  889          n     35    bbb     N4    889 -0.46580000  14.010000   ; qtot -0.314800
  890         hn     35    bbb    H21    890 0.31480000   1.008000   ; qtot -0.000000
; residue   36 bbb rtp bbb q -0.0
  891         c3     36    bbb     C1    891 0.44180000  12.010000   ; qtot 0.441800
  892         h1     36    bbb     H1    892 -0.03530000   1.008000   ; qtot 0.406500
  893         h1     36    bbb     H2    893 -0.03530000   1.008000   ; qtot 0.371200
  894         c3     36    bbb     C2    894 -0.28250000  12.010000   ; qtot 0.088700
  895         h1     36    bbb     H3    895 0.15710000   1.008000   ; qtot 0.245800
  896         h1     36    bbb     H4    896 0.15710000   1.008000   ; qtot 0.402900
  897         n3     36    bbb     N1    897 -0.74090000  14.010000   ; qtot -0.338000
  898         c3     36    bbb     C3    898 0.51680000  12.010000   ; qtot 0.178800
  899         h1     36    bbb     H5    899 -0.05230000   1.008000   ; qtot 0.126500
  900         h1     36    bbb     H6    900 -0.05230000   1.008000   ; qtot 0.074200
  901         c3     36    bbb     C4    901 0.51680000  12.010000   ; qtot 0.591000
  902         h1     36    bbb     H7    902 -0.05230000   1.008000   ; qtot 0.538700
  903         h1     36    bbb     H8    903 -0.05230000   1.008000   ; qtot 0.486400
  904         c3     36    bbb     C5    904 -0.60390000  12.010000   ; qtot -0.117500
  905         hc     36    bbb     H9    905 0.16730000   1.008000   ; qtot 0.049800
  906         hc     36    bbb    H10    906 0.16730000   1.008000   ; qtot 0.217100
  907         c3     36    bbb     C6    907 -0.60390000  12.010000   ; qtot -0.386800
  908         hc     36    bbb    H11    908 0.16730000   1.008000   ; qtot -0.219500
  909         hc     36    bbb    H12    909 0.16730000   1.008000   ; qtot -0.052200
  910          c     36    bbb     C7    910 0.72110000  12.010000   ; qtot 0.668900
  911          c     36    bbb     C8    911 0.72110000  12.010000   ; qtot 1.390000
  912          o     36    bbb     O1    912 -0.61950000  16.000000   ; qtot 0.770500
  913          o     36    bbb     O2    913 -0.61950000  16.000000   ; qtot 0.151000
  914          n     36    bbb     N4    914 -0.46580000  14.010000   ; qtot -0.314800
  915         hn     36    bbb    H21    915 0.31480000   1.008000   ; qtot -0.000000
; residue   37 bbb rtp bbb q -0.0
  916         c3     37    bbb     C1    916 0.44180000  12.010000   ; qtot 0.441800
  917         h1     37    bbb     H1    917 -0.03530000   1.008000   ; qtot 0.406500
  918         h1     37    bbb     H2    918 -0.03530000   1.008000   ; qtot 0.371200
  919         c3     37    bbb     C2    919 -0.28250000  12.010000   ; qtot 0.088700
  920         h1     37    bbb     H3    920 0.15710000   1.008000   ; qtot 0.245800
  921         h1     37    bbb     H4    921 0.15710000   1.008000   ; qtot 0.402900
  922         n3     37    bbb     N1    922 -0.74090000  14.010000   ; qtot -0.338000
  923         c3     37    bbb     C3    923 0.51680000  12.010000   ; qtot 0.178800
  924         h1     37    bbb     H5    924 -0.05230000   1.008000   ; qtot 0.126500
  925         h1     37    bbb     H6    925 -0.05230000   1.008000   ; qtot 0.074200
  926         c3     37    bbb     C4    926 0.51680000  12.010000   ; qtot 0.591000
  927         h1     37    bbb     H7    927 -0.05230000   1.008000   ; qtot 0.538700
  928         h1     37    bbb     H8    928 -0.05230000   1.008000   ; qtot 0.486400
  929         c3     37    bbb     C5    929 -0.60390000  12.010000   ; qtot -0.117500
  930         hc     37    bbb     H9    930 0.16730000   1.008000   ; qtot 0.049800
  931         hc     37    bbb    H10    931 0.16730000   1.008000   ; qtot 0.217100
  932         c3     37    bbb     C6    932 -0.60390000  12.010000   ; qtot -0.386800
  933         hc     37    bbb    H11    933 0.16730000   1.008000   ; qtot -0.219500
  934         hc     37    bbb    H12    934 0.16730000   1.008000   ; qtot -0.052200
  935          c     37    bbb     C7    935 0.72110000  12.010000   ; qtot 0.668900
  936          c     37    bbb     C8    936 0.72110000  12.010000   ; qtot 1.390000
  937          o     37    bbb     O1    937 -0.61950000  16.000000   ; qtot 0.770500
  938          o     37    bbb     O2    938 -0.61950000  16.000000   ; qtot 0.151000
  939          n     37    bbb     N4    939 -0.46580000  14.010000   ; qtot -0.314800
  940         hn     37    bbb    H21    940 0.31480000   1.008000   ; qtot -0.000000
; residue   38 bbb rtp bbb q -0.0
  941         c3     38    bbb     C1    941 0.44180000  12.010000   ; qtot 0.441800
  942         h1     38    bbb     H1    942 -0.03530000   1.008000   ; qtot 0.406500
  943         h1     38    bbb     H2    943 -0.03530000   1.008000   ; qtot 0.371200
  944         c3     38    bbb     C2    944 -0.28250000  12.010000   ; qtot 0.088700
  945         h1     38    bbb     H3    945 0.15710000   1.008000   ; qtot 0.245800
  946         h1     38    bbb     H4    946 0.15710000   1.008000   ; qtot 0.402900
  947         n3     38    bbb     N1    947 -0.74090000  14.010000   ; qtot -0.338001
  948         c3     38    bbb     C3    948 0.51680000  12.010000   ; qtot 0.178799
  949         h1     38    bbb     H5    949 -0.05230000   1.008000   ; qtot 0.126499
  950         h1     38    bbb     H6    950 -0.05230000   1.008000   ; qtot 0.074199
  951         c3     38    bbb     C4    951 0.51680000  12.010000   ; qtot 0.590999
  952         h1     38    bbb     H7    952 -0.05230000   1.008000   ; qtot 0.538699
  953         h1     38    bbb     H8    953 -0.05230000   1.008000   ; qtot 0.486399
  954         c3     38    bbb     C5    954 -0.60390000  12.010000   ; qtot -0.117501
  955         hc     38    bbb     H9    955 0.16730000   1.008000   ; qtot 0.049799
  956         hc     38    bbb    H10    956 0.16730000   1.008000   ; qtot 0.217099
  957         c3     38    bbb     C6    957 -0.60390000  12.010000   ; qtot -0.386801
  958         hc     38    bbb    H11    958 0.16730000   1.008000   ; qtot -0.219501
  959         hc     38    bbb    H12    959 0.16730000   1.008000   ; qtot -0.052201
  960          c     38    bbb     C7    960 0.72110000  12.010000   ; qtot 0.668899
  961          c     38    bbb     C8    961 0.72110000  12.010000   ; qtot 1.389999
  962          o     38    bbb     O1    962 -0.61950000  16.000000   ; qtot 0.770499
  963          o     38    bbb     O2    963 -0.61950000  16.000000   ; qtot 0.150999
  964          n     38    bbb     N4    964 -0.46580000  14.010000   ; qtot -0.314801
  965         hn     38    bbb    H21    965 0.31480000   1.008000   ; qtot -0.000001
; residue   39 bbb rtp bbb q -0.0
  966         c3     39    bbb     C1    966 0.44180000  12.010000   ; qtot 0.441799
  967         h1     39    bbb     H1    967 -0.03530000   1.008000   ; qtot 0.406499
  968         h1     39    bbb     H2    968 -0.03530000   1.008000   ; qtot 0.371199
  969         c3     39    bbb     C2    969 -0.28250000  12.010000   ; qtot 0.088699
  970         h1     39    bbb     H3    970 0.15710000   1.008000   ; qtot 0.245799
  971         h1     39    bbb     H4    971 0.15710000   1.008000   ; qtot 0.402899
  972         n3     39    bbb     N1    972 -0.74090000  14.010000   ; qtot -0.338001
  973         c3     39    bbb     C3    973 0.51680000  12.010000   ; qtot 0.178799
  974         h1     39    bbb     H5    974 -0.05230000   1.008000   ; qtot 0.126499
  975         h1     39    bbb     H6    975 -0.05230000   1.008000   ; qtot 0.074199
  976         c3     39    bbb     C4    976 0.51680000  12.010000   ; qtot 0.590999
  977         h1     39    bbb     H7    977 -0.05230000   1.008000   ; qtot 0.538699
  978         h1     39    bbb     H8    978 -0.05230000   1.008000   ; qtot 0.486399
  979         c3     39    bbb     C5    979 -0.60390000  12.010000   ; qtot -0.117501
  980         hc     39    bbb     H9    980 0.16730000   1.008000   ; qtot 0.049799
  981         hc     39    bbb    H10    981 0.16730000   1.008000   ; qtot 0.217099
  982         c3     39    bbb     C6    982 -0.60390000  12.010000   ; qtot -0.386801
  983         hc     39    bbb    H11    983 0.16730000   1.008000   ; qtot -0.219501
  984         hc     39    bbb    H12    984 0.16730000   1.008000   ; qtot -0.052201
  985          c     39    bbb     C7    985 0.72110000  12.010000   ; qtot 0.668899
  986          c     39    bbb     C8    986 0.72110000  12.010000   ; qtot 1.389999
  987          o     39    bbb     O1    987 -0.61950000  16.000000   ; qtot 0.770499
  988          o     39    bbb     O2    988 -0.61950000  16.000000   ; qtot 0.150999
  989          n     39    bbb     N4    989 -0.46580000  14.010000   ; qtot -0.314801
  990         hn     39    bbb    H21    990 0.31480000   1.008000   ; qtot -0.000001
; residue   40 bbb rtp bbb q -0.0
  991         c3     40    bbb     C1    991 0.44180000  12.010000   ; qtot 0.441799
  992         h1     40    bbb     H1    992 -0.03530000   1.008000   ; qtot 0.406499
  993         h1     40    bbb     H2    993 -0.03530000   1.008000   ; qtot 0.371199
  994         c3     40    bbb     C2    994 -0.28250000  12.010000   ; qtot 0.088699
  995         h1     40    bbb     H3    995 0.15710000   1.008000   ; qtot 0.245799
  996         h1     40    bbb     H4    996 0.15710000   1.008000   ; qtot 0.402899
  997         n3     40    bbb     N1    997 -0.74090000  14.010000   ; qtot -0.338001
  998         c3     40    bbb     C3    998 0.51680000  12.010000   ; qtot 0.178799
  999         h1     40    bbb     H5    999 -0.05230000   1.008000   ; qtot 0.126499
 1000         h1     40    bbb     H6   1000 -0.05230000   1.008000   ; qtot 0.074199
 1001         c3     40    bbb     C4   1001 0.51680000  12.010000   ; qtot 0.590999
 1002         h1     40    bbb     H7   1002 -0.05230000   1.008000   ; qtot 0.538699
 1003         h1     40    bbb     H8   1003 -0.05230000   1.008000   ; qtot 0.486399
 1004         c3     40    bbb     C5   1004 -0.60390000  12.010000   ; qtot -0.117501
 1005         hc     40    bbb     H9   1005 0.16730000   1.008000   ; qtot 0.049799
 1006         hc     40    bbb    H10   1006 0.16730000   1.008000   ; qtot 0.217099
 1007         c3     40    bbb     C6   1007 -0.60390000  12.010000   ; qtot -0.386801
 1008         hc     40    bbb    H11   1008 0.16730000   1.008000   ; qtot -0.219501
 1009         hc     40    bbb    H12   1009 0.16730000   1.008000   ; qtot -0.052201
 1010          c     40    bbb     C7   1010 0.72110000  12.010000   ; qtot 0.668899
 1011          c     40    bbb     C8   1011 0.72110000  12.010000   ; qtot 1.389999
 1012          o     40    bbb     O1   1012 -0.61950000  16.000000   ; qtot 0.770499
 1013          o     40    bbb     O2   1013 -0.61950000  16.000000   ; qtot 0.150999
 1014          n     40    bbb     N4   1014 -0.46580000  14.010000   ; qtot -0.314801
 1015         hn     40    bbb    H21   1015 0.31480000   1.008000   ; qtot -0.000001
; residue   41 bbb rtp bbb q -0.0
 1016         c3     41    bbb     C1   1016 0.44180000  12.010000   ; qtot 0.441799
 1017         h1     41    bbb     H1   1017 -0.03530000   1.008000   ; qtot 0.406499
 1018         h1     41    bbb     H2   1018 -0.03530000   1.008000   ; qtot 0.371199
 1019         c3     41    bbb     C2   1019 -0.28250000  12.010000   ; qtot 0.088699
 1020         h1     41    bbb     H3   1020 0.15710000   1.008000   ; qtot 0.245799
 1021         h1     41    bbb     H4   1021 0.15710000   1.008000   ; qtot 0.402899
 1022         n3     41    bbb     N1   1022 -0.74090000  14.010000   ; qtot -0.338001
 1023         c3     41    bbb     C3   1023 0.51680000  12.010000   ; qtot 0.178799
 1024         h1     41    bbb     H5   1024 -0.05230000   1.008000   ; qtot 0.126499
 1025         h1     41    bbb     H6   1025 -0.05230000   1.008000   ; qtot 0.074199
 1026         c3     41    bbb     C4   1026 0.51680000  12.010000   ; qtot 0.590999
 1027         h1     41    bbb     H7   1027 -0.05230000   1.008000   ; qtot 0.538699
 1028         h1     41    bbb     H8   1028 -0.05230000   1.008000   ; qtot 0.486399
 1029         c3     41    bbb     C5   1029 -0.60390000  12.010000   ; qtot -0.117501
 1030         hc     41    bbb     H9   1030 0.16730000   1.008000   ; qtot 0.049799
 1031         hc     41    bbb    H10   1031 0.16730000   1.008000   ; qtot 0.217099
 1032         c3     41    bbb     C6   1032 -0.60390000  12.010000   ; qtot -0.386801
 1033         hc     41    bbb    H11   1033 0.16730000   1.008000   ; qtot -0.219501
 1034         hc     41    bbb    H12   1034 0.16730000   1.008000   ; qtot -0.052201
 1035          c     41    bbb     C7   1035 0.72110000  12.010000   ; qtot 0.668899
 1036          c     41    bbb     C8   1036 0.72110000  12.010000   ; qtot 1.389999
 1037          o     41    bbb     O1   1037 -0.61950000  16.000000   ; qtot 0.770499
 1038          o     41    bbb     O2   1038 -0.61950000  16.000000   ; qtot 0.150999
 1039          n     41    bbb     N4   1039 -0.46580000  14.010000   ; qtot -0.314801
 1040         hn     41    bbb    H21   1040 0.31480000   1.008000   ; qtot -0.000001
; residue   42 bbb rtp bbb q -0.0
 1041         c3     42    bbb     C1   1041 0.44180000  12.010000   ; qtot 0.441799
 1042         h1     42    bbb     H1   1042 -0.03530000   1.008000   ; qtot 0.406499
 1043         h1     42    bbb     H2   1043 -0.03530000   1.008000   ; qtot 0.371199
 1044         c3     42    bbb     C2   1044 -0.28250000  12.010000   ; qtot 0.088699
 1045         h1     42    bbb     H3   1045 0.15710000   1.008000   ; qtot 0.245799
 1046         h1     42    bbb     H4   1046 0.15710000   1.008000   ; qtot 0.402899
 1047         n3     42    bbb     N1   1047 -0.74090000  14.010000   ; qtot -0.338001
 1048         c3     42    bbb     C3   1048 0.51680000  12.010000   ; qtot 0.178799
 1049         h1     42    bbb     H5   1049 -0.05230000   1.008000   ; qtot 0.126499
 1050         h1     42    bbb     H6   1050 -0.05230000   1.008000   ; qtot 0.074199
 1051         c3     42    bbb     C4   1051 0.51680000  12.010000   ; qtot 0.590999
 1052         h1     42    bbb     H7   1052 -0.05230000   1.008000   ; qtot 0.538699
 1053         h1     42    bbb     H8   1053 -0.05230000   1.008000   ; qtot 0.486399
 1054         c3     42    bbb     C5   1054 -0.60390000  12.010000   ; qtot -0.117501
 1055         hc     42    bbb     H9   1055 0.16730000   1.008000   ; qtot 0.049799
 1056         hc     42    bbb    H10   1056 0.16730000   1.008000   ; qtot 0.217099
 1057         c3     42    bbb     C6   1057 -0.60390000  12.010000   ; qtot -0.386801
 1058         hc     42    bbb    H11   1058 0.16730000   1.008000   ; qtot -0.219501
 1059         hc     42    bbb    H12   1059 0.16730000   1.008000   ; qtot -0.052201
 1060          c     42    bbb     C7   1060 0.72110000  12.010000   ; qtot 0.668899
 1061          c     42    bbb     C8   1061 0.72110000  12.010000   ; qtot 1.389999
 1062          o     42    bbb     O1   1062 -0.61950000  16.000000   ; qtot 0.770499
 1063          o     42    bbb     O2   1063 -0.61950000  16.000000   ; qtot 0.150999
 1064          n     42    bbb     N4   1064 -0.46580000  14.010000   ; qtot -0.314801
 1065         hn     42    bbb    H21   1065 0.31480000   1.008000   ; qtot -0.000001
; residue   43 bbb rtp bbb q -0.0
 1066         c3     43    bbb     C1   1066 0.44180000  12.010000   ; qtot 0.441799
 1067         h1     43    bbb     H1   1067 -0.03530000   1.008000   ; qtot 0.406499
 1068         h1     43    bbb     H2   1068 -0.03530000   1.008000   ; qtot 0.371199
 1069         c3     43    bbb     C2   1069 -0.28250000  12.010000   ; qtot 0.088699
 1070         h1     43    bbb     H3   1070 0.15710000   1.008000   ; qtot 0.245799
 1071         h1     43    bbb     H4   1071 0.15710000   1.008000   ; qtot 0.402899
 1072         n3     43    bbb     N1   1072 -0.74090000  14.010000   ; qtot -0.338001
 1073         c3     43    bbb     C3   1073 0.51680000  12.010000   ; qtot 0.178799
 1074         h1     43    bbb     H5   1074 -0.05230000   1.008000   ; qtot 0.126499
 1075         h1     43    bbb     H6   1075 -0.05230000   1.008000   ; qtot 0.074199
 1076         c3     43    bbb     C4   1076 0.51680000  12.010000   ; qtot 0.590999
 1077         h1     43    bbb     H7   1077 -0.05230000   1.008000   ; qtot 0.538699
 1078         h1     43    bbb     H8   1078 -0.05230000   1.008000   ; qtot 0.486399
 1079         c3     43    bbb     C5   1079 -0.60390000  12.010000   ; qtot -0.117501
 1080         hc     43    bbb     H9   1080 0.16730000   1.008000   ; qtot 0.049799
 1081         hc     43    bbb    H10   1081 0.16730000   1.008000   ; qtot 0.217099
 1082         c3     43    bbb     C6   1082 -0.60390000  12.010000   ; qtot -0.386801
 1083         hc     43    bbb    H11   1083 0.16730000   1.008000   ; qtot -0.219501
 1084         hc     43    bbb    H12   1084 0.16730000   1.008000   ; qtot -0.052201
 1085          c     43    bbb     C7   1085 0.72110000  12.010000   ; qtot 0.668899
 1086          c     43    bbb     C8   1086 0.72110000  12.010000   ; qtot 1.389999
 1087          o     43    bbb     O1   1087 -0.61950000  16.000000   ; qtot 0.770499
 1088          o     43    bbb     O2   1088 -0.61950000  16.000000   ; qtot 0.150999
 1089          n     43    bbb     N4   1089 -0.46580000  14.010000   ; qtot -0.314801
 1090         hn     43    bbb    H21   1090 0.31480000   1.008000   ; qtot -0.000001
; residue   44 bbb rtp bbb q -0.0
 1091         c3     44    bbb     C1   1091 0.44180000  12.010000   ; qtot 0.441799
 1092         h1     44    bbb     H1   1092 -0.03530000   1.008000   ; qtot 0.406499
 1093         h1     44    bbb     H2   1093 -0.03530000   1.008000   ; qtot 0.371199
 1094         c3     44    bbb     C2   1094 -0.28250000  12.010000   ; qtot 0.088699
 1095         h1     44    bbb     H3   1095 0.15710000   1.008000   ; qtot 0.245799
 1096         h1     44    bbb     H4   1096 0.15710000   1.008000   ; qtot 0.402899
 1097         n3     44    bbb     N1   1097 -0.74090000  14.010000   ; qtot -0.338001
 1098         c3     44    bbb     C3   1098 0.51680000  12.010000   ; qtot 0.178799
 1099         h1     44    bbb     H5   1099 -0.05230000   1.008000   ; qtot 0.126499
 1100         h1     44    bbb     H6   1100 -0.05230000   1.008000   ; qtot 0.074199
 1101         c3     44    bbb     C4   1101 0.51680000  12.010000   ; qtot 0.590999
 1102         h1     44    bbb     H7   1102 -0.05230000   1.008000   ; qtot 0.538699
 1103         h1     44    bbb     H8   1103 -0.05230000   1.008000   ; qtot 0.486399
 1104         c3     44    bbb     C5   1104 -0.60390000  12.010000   ; qtot -0.117501
 1105         hc     44    bbb     H9   1105 0.16730000   1.008000   ; qtot 0.049799
 1106         hc     44    bbb    H10   1106 0.16730000   1.008000   ; qtot 0.217099
 1107         c3     44    bbb     C6   1107 -0.60390000  12.010000   ; qtot -0.386801
 1108         hc     44    bbb    H11   1108 0.16730000   1.008000   ; qtot -0.219501
 1109         hc     44    bbb    H12   1109 0.16730000   1.008000   ; qtot -0.052201
 1110          c     44    bbb     C7   1110 0.72110000  12.010000   ; qtot 0.668899
 1111          c     44    bbb     C8   1111 0.72110000  12.010000   ; qtot 1.389999
 1112          o     44    bbb     O1   1112 -0.61950000  16.000000   ; qtot 0.770499
 1113          o     44    bbb     O2   1113 -0.61950000  16.000000   ; qtot 0.150999
 1114          n     44    bbb     N4   1114 -0.46580000  14.010000   ; qtot -0.314801
 1115         hn     44    bbb    H21   1115 0.31480000   1.008000   ; qtot -0.000001
; residue   45 bbb rtp bbb q -0.0
 1116         c3     45    bbb     C1   1116 0.44180000  12.010000   ; qtot 0.441799
 1117         h1     45    bbb     H1   1117 -0.03530000   1.008000   ; qtot 0.406499
 1118         h1     45    bbb     H2   1118 -0.03530000   1.008000   ; qtot 0.371199
 1119         c3     45    bbb     C2   1119 -0.28250000  12.010000   ; qtot 0.088699
 1120         h1     45    bbb     H3   1120 0.15710000   1.008000   ; qtot 0.245799
 1121         h1     45    bbb     H4   1121 0.15710000   1.008000   ; qtot 0.402899
 1122         n3     45    bbb     N1   1122 -0.74090000  14.010000   ; qtot -0.338001
 1123         c3     45    bbb     C3   1123 0.51680000  12.010000   ; qtot 0.178799
 1124         h1     45    bbb     H5   1124 -0.05230000   1.008000   ; qtot 0.126499
 1125         h1     45    bbb     H6   1125 -0.05230000   1.008000   ; qtot 0.074199
 1126         c3     45    bbb     C4   1126 0.51680000  12.010000   ; qtot 0.590999
 1127         h1     45    bbb     H7   1127 -0.05230000   1.008000   ; qtot 0.538699
 1128         h1     45    bbb     H8   1128 -0.05230000   1.008000   ; qtot 0.486399
 1129         c3     45    bbb     C5   1129 -0.60390000  12.010000   ; qtot -0.117501
 1130         hc     45    bbb     H9   1130 0.16730000   1.008000   ; qtot 0.049799
 1131         hc     45    bbb    H10   1131 0.16730000   1.008000   ; qtot 0.217099
 1132         c3     45    bbb     C6   1132 -0.60390000  12.010000   ; qtot -0.386801
 1133         hc     45    bbb    H11   1133 0.16730000   1.008000   ; qtot -0.219501
 1134         hc     45    bbb    H12   1134 0.16730000   1.008000   ; qtot -0.052201
 1135          c     45    bbb     C7   1135 0.72110000  12.010000   ; qtot 0.668899
 1136          c     45    bbb     C8   1136 0.72110000  12.010000   ; qtot 1.389999
 1137          o     45    bbb     O1   1137 -0.61950000  16.000000   ; qtot 0.770499
 1138          o     45    bbb     O2   1138 -0.61950000  16.000000   ; qtot 0.150999
 1139          n     45    bbb     N4   1139 -0.46580000  14.010000   ; qtot -0.314801
 1140         hn     45    bbb    H21   1140 0.31480000   1.008000   ; qtot -0.000001
; residue   46 bbb rtp bbb q -0.0
 1141         c3     46    bbb     C1   1141 0.44180000  12.010000   ; qtot 0.441799
 1142         h1     46    bbb     H1   1142 -0.03530000   1.008000   ; qtot 0.406499
 1143         h1     46    bbb     H2   1143 -0.03530000   1.008000   ; qtot 0.371199
 1144         c3     46    bbb     C2   1144 -0.28250000  12.010000   ; qtot 0.088699
 1145         h1     46    bbb     H3   1145 0.15710000   1.008000   ; qtot 0.245799
 1146         h1     46    bbb     H4   1146 0.15710000   1.008000   ; qtot 0.402899
 1147         n3     46    bbb     N1   1147 -0.74090000  14.010000   ; qtot -0.338001
 1148         c3     46    bbb     C3   1148 0.51680000  12.010000   ; qtot 0.178799
 1149         h1     46    bbb     H5   1149 -0.05230000   1.008000   ; qtot 0.126499
 1150         h1     46    bbb     H6   1150 -0.05230000   1.008000   ; qtot 0.074199
 1151         c3     46    bbb     C4   1151 0.51680000  12.010000   ; qtot 0.590999
 1152         h1     46    bbb     H7   1152 -0.05230000   1.008000   ; qtot 0.538699
 1153         h1     46    bbb     H8   1153 -0.05230000   1.008000   ; qtot 0.486399
 1154         c3     46    bbb     C5   1154 -0.60390000  12.010000   ; qtot -0.117501
 1155         hc     46    bbb     H9   1155 0.16730000   1.008000   ; qtot 0.049799
 1156         hc     46    bbb    H10   1156 0.16730000   1.008000   ; qtot 0.217099
 1157         c3     46    bbb     C6   1157 -0.60390000  12.010000   ; qtot -0.386801
 1158         hc     46    bbb    H11   1158 0.16730000   1.008000   ; qtot -0.219501
 1159         hc     46    bbb    H12   1159 0.16730000   1.008000   ; qtot -0.052201
 1160          c     46    bbb     C7   1160 0.72110000  12.010000   ; qtot 0.668899
 1161          c     46    bbb     C8   1161 0.72110000  12.010000   ; qtot 1.389999
 1162          o     46    bbb     O1   1162 -0.61950000  16.000000   ; qtot 0.770499
 1163          o     46    bbb     O2   1163 -0.61950000  16.000000   ; qtot 0.150999
 1164          n     46    bbb     N4   1164 -0.46580000  14.010000   ; qtot -0.314801
 1165         hn     46    bbb    H21   1165 0.31480000   1.008000   ; qtot -0.000001
; residue   47 bbb rtp bbb q -0.0
 1166         c3     47    bbb     C1   1166 0.44180000  12.010000   ; qtot 0.441799
 1167         h1     47    bbb     H1   1167 -0.03530000   1.008000   ; qtot 0.406499
 1168         h1     47    bbb     H2   1168 -0.03530000   1.008000   ; qtot 0.371199
 1169         c3     47    bbb     C2   1169 -0.28250000  12.010000   ; qtot 0.088699
 1170         h1     47    bbb     H3   1170 0.15710000   1.008000   ; qtot 0.245799
 1171         h1     47    bbb     H4   1171 0.15710000   1.008000   ; qtot 0.402899
 1172         n3     47    bbb     N1   1172 -0.74090000  14.010000   ; qtot -0.338001
 1173         c3     47    bbb     C3   1173 0.51680000  12.010000   ; qtot 0.178799
 1174         h1     47    bbb     H5   1174 -0.05230000   1.008000   ; qtot 0.126499
 1175         h1     47    bbb     H6   1175 -0.05230000   1.008000   ; qtot 0.074199
 1176         c3     47    bbb     C4   1176 0.51680000  12.010000   ; qtot 0.590999
 1177         h1     47    bbb     H7   1177 -0.05230000   1.008000   ; qtot 0.538699
 1178         h1     47    bbb     H8   1178 -0.05230000   1.008000   ; qtot 0.486399
 1179         c3     47    bbb     C5   1179 -0.60390000  12.010000   ; qtot -0.117501
 1180         hc     47    bbb     H9   1180 0.16730000   1.008000   ; qtot 0.049799
 1181         hc     47    bbb    H10   1181 0.16730000   1.008000   ; qtot 0.217099
 1182         c3     47    bbb     C6   1182 -0.60390000  12.010000   ; qtot -0.386801
 1183         hc     47    bbb    H11   1183 0.16730000   1.008000   ; qtot -0.219501
 1184         hc     47    bbb    H12   1184 0.16730000   1.008000   ; qtot -0.052201
 1185          c     47    bbb     C7   1185 0.72110000  12.010000   ; qtot 0.668899
 1186          c     47    bbb     C8   1186 0.72110000  12.010000   ; qtot 1.389999
 1187          o     47    bbb     O1   1187 -0.61950000  16.000000   ; qtot 0.770499
 1188          o     47    bbb     O2   1188 -0.61950000  16.000000   ; qtot 0.150999
 1189          n     47    bbb     N4   1189 -0.46580000  14.010000   ; qtot -0.314801
 1190         hn     47    bbb    H21   1190 0.31480000   1.008000   ; qtot -0.000001
; residue   48 bbb rtp bbb q -0.0
 1191         c3     48    bbb     C1   1191 0.44180000  12.010000   ; qtot 0.441799
 1192         h1     48    bbb     H1   1192 -0.03530000   1.008000   ; qtot 0.406499
 1193         h1     48    bbb     H2   1193 -0.03530000   1.008000   ; qtot 0.371199
 1194         c3     48    bbb     C2   1194 -0.28250000  12.010000   ; qtot 0.088699
 1195         h1     48    bbb     H3   1195 0.15710000   1.008000   ; qtot 0.245799
 1196         h1     48    bbb     H4   1196 0.15710000   1.008000   ; qtot 0.402899
 1197         n3     48    bbb     N1   1197 -0.74090000  14.010000   ; qtot -0.338001
 1198         c3     48    bbb     C3   1198 0.51680000  12.010000   ; qtot 0.178799
 1199         h1     48    bbb     H5   1199 -0.05230000   1.008000   ; qtot 0.126499
 1200         h1     48    bbb     H6   1200 -0.05230000   1.008000   ; qtot 0.074199
 1201         c3     48    bbb     C4   1201 0.51680000  12.010000   ; qtot 0.590999
 1202         h1     48    bbb     H7   1202 -0.05230000   1.008000   ; qtot 0.538699
 1203         h1     48    bbb     H8   1203 -0.05230000   1.008000   ; qtot 0.486399
 1204         c3     48    bbb     C5   1204 -0.60390000  12.010000   ; qtot -0.117501
 1205         hc     48    bbb     H9   1205 0.16730000   1.008000   ; qtot 0.049799
 1206         hc     48    bbb    H10   1206 0.16730000   1.008000   ; qtot 0.217099
 1207         c3     48    bbb     C6   1207 -0.60390000  12.010000   ; qtot -0.386801
 1208         hc     48    bbb    H11   1208 0.16730000   1.008000   ; qtot -0.219501
 1209         hc     48    bbb    H12   1209 0.16730000   1.008000   ; qtot -0.052201
 1210          c     48    bbb     C7   1210 0.72110000  12.010000   ; qtot 0.668899
 1211          c     48    bbb     C8   1211 0.72110000  12.010000   ; qtot 1.389999
 1212          o     48    bbb     O1   1212 -0.61950000  16.000000   ; qtot 0.770499
 1213          o     48    bbb     O2   1213 -0.61950000  16.000000   ; qtot 0.150999
 1214          n     48    bbb     N4   1214 -0.46580000  14.010000   ; qtot -0.314801
 1215         hn     48    bbb    H21   1215 0.31480000   1.008000   ; qtot -0.000001
; residue   49 bbb rtp bbb q -0.0
 1216         c3     49    bbb     C1   1216 0.44180000  12.010000   ; qtot 0.441799
 1217         h1     49    bbb     H1   1217 -0.03530000   1.008000   ; qtot 0.406499
 1218         h1     49    bbb     H2   1218 -0.03530000   1.008000   ; qtot 0.371199
 1219         c3     49    bbb     C2   1219 -0.28250000  12.010000   ; qtot 0.088699
 1220         h1     49    bbb     H3   1220 0.15710000   1.008000   ; qtot 0.245799
 1221         h1     49    bbb     H4   1221 0.15710000   1.008000   ; qtot 0.402899
 1222         n3     49    bbb     N1   1222 -0.74090000  14.010000   ; qtot -0.338001
 1223         c3     49    bbb     C3   1223 0.51680000  12.010000   ; qtot 0.178799
 1224         h1     49    bbb     H5   1224 -0.05230000   1.008000   ; qtot 0.126499
 1225         h1     49    bbb     H6   1225 -0.05230000   1.008000   ; qtot 0.074199
 1226         c3     49    bbb     C4   1226 0.51680000  12.010000   ; qtot 0.590999
 1227         h1     49    bbb     H7   1227 -0.05230000   1.008000   ; qtot 0.538699
 1228         h1     49    bbb     H8   1228 -0.05230000   1.008000   ; qtot 0.486399
 1229         c3     49    bbb     C5   1229 -0.60390000  12.010000   ; qtot -0.117501
 1230         hc     49    bbb     H9   1230 0.16730000   1.008000   ; qtot 0.049799
 1231         hc     49    bbb    H10   1231 0.16730000   1.008000   ; qtot 0.217099
 1232         c3     49    bbb     C6   1232 -0.60390000  12.010000   ; qtot -0.386801
 1233         hc     49    bbb    H11   1233 0.16730000   1.008000   ; qtot -0.219501
 1234         hc     49    bbb    H12   1234 0.16730000   1.008000   ; qtot -0.052201
 1235          c     49    bbb     C7   1235 0.72110000  12.010000   ; qtot 0.668899
 1236          c     49    bbb     C8   1236 0.72110000  12.010000   ; qtot 1.389999
 1237          o     49    bbb     O1   1237 -0.61950000  16.000000   ; qtot 0.770499
 1238          o     49    bbb     O2   1238 -0.61950000  16.000000   ; qtot 0.150999
 1239          n     49    bbb     N4   1239 -0.46580000  14.010000   ; qtot -0.314801
 1240         hn     49    bbb    H21   1240 0.31480000   1.008000   ; qtot -0.000001
; residue   50 bbb rtp bbb q -0.0
 1241         c3     50    bbb     C1   1241 0.44180000  12.010000   ; qtot 0.441799
 1242         h1     50    bbb     H1   1242 -0.03530000   1.008000   ; qtot 0.406499
 1243         h1     50    bbb     H2   1243 -0.03530000   1.008000   ; qtot 0.371199
 1244         c3     50    bbb     C2   1244 -0.28250000  12.010000   ; qtot 0.088699
 1245         h1     50    bbb     H3   1245 0.15710000   1.008000   ; qtot 0.245799
 1246         h1     50    bbb     H4   1246 0.15710000   1.008000   ; qtot 0.402899
 1247         n3     50    bbb     N1   1247 -0.74090000  14.010000   ; qtot -0.338001
 1248         c3     50    bbb     C3   1248 0.51680000  12.010000   ; qtot 0.178799
 1249         h1     50    bbb     H5   1249 -0.05230000   1.008000   ; qtot 0.126499
 1250         h1     50    bbb     H6   1250 -0.05230000   1.008000   ; qtot 0.074199
 1251         c3     50    bbb     C4   1251 0.51680000  12.010000   ; qtot 0.590999
 1252         h1     50    bbb     H7   1252 -0.05230000   1.008000   ; qtot 0.538699
 1253         h1     50    bbb     H8   1253 -0.05230000   1.008000   ; qtot 0.486399
 1254         c3     50    bbb     C5   1254 -0.60390000  12.010000   ; qtot -0.117501
 1255         hc     50    bbb     H9   1255 0.16730000   1.008000   ; qtot 0.049799
 1256         hc     50    bbb    H10   1256 0.16730000   1.008000   ; qtot 0.217099
 1257         c3     50    bbb     C6   1257 -0.60390000  12.010000   ; qtot -0.386801
 1258         hc     50    bbb    H11   1258 0.16730000   1.008000   ; qtot -0.219501
 1259         hc     50    bbb    H12   1259 0.16730000   1.008000   ; qtot -0.052201
 1260          c     50    bbb     C7   1260 0.72110000  12.010000   ; qtot 0.668899
 1261          c     50    bbb     C8   1261 0.72110000  12.010000   ; qtot 1.389999
 1262          o     50    bbb     O1   1262 -0.61950000  16.000000   ; qtot 0.770499
 1263          o     50    bbb     O2   1263 -0.61950000  16.000000   ; qtot 0.150999
 1264          n     50    bbb     N4   1264 -0.46580000  14.010000   ; qtot -0.314801
 1265         hn     50    bbb    H21   1265 0.31480000   1.008000   ; qtot -0.000001
; residue   51 bbb rtp bbb q -0.0
 1266         c3     51    bbb     C1   1266 0.44180000  12.010000   ; qtot 0.441799
 1267         h1     51    bbb     H1   1267 -0.03530000   1.008000   ; qtot 0.406499
 1268         h1     51    bbb     H2   1268 -0.03530000   1.008000   ; qtot 0.371199
 1269         c3     51    bbb     C2   1269 -0.28250000  12.010000   ; qtot 0.088699
 1270         h1     51    bbb     H3   1270 0.15710000   1.008000   ; qtot 0.245799
 1271         h1     51    bbb     H4   1271 0.15710000   1.008000   ; qtot 0.402899
 1272         n3     51    bbb     N1   1272 -0.74090000  14.010000   ; qtot -0.338001
 1273         c3     51    bbb     C3   1273 0.51680000  12.010000   ; qtot 0.178799
 1274         h1     51    bbb     H5   1274 -0.05230000   1.008000   ; qtot 0.126499
 1275         h1     51    bbb     H6   1275 -0.05230000   1.008000   ; qtot 0.074199
 1276         c3     51    bbb     C4   1276 0.51680000  12.010000   ; qtot 0.590999
 1277         h1     51    bbb     H7   1277 -0.05230000   1.008000   ; qtot 0.538699
 1278         h1     51    bbb     H8   1278 -0.05230000   1.008000   ; qtot 0.486399
 1279         c3     51    bbb     C5   1279 -0.60390000  12.010000   ; qtot -0.117501
 1280         hc     51    bbb     H9   1280 0.16730000   1.008000   ; qtot 0.049799
 1281         hc     51    bbb    H10   1281 0.16730000   1.008000   ; qtot 0.217099
 1282         c3     51    bbb     C6   1282 -0.60390000  12.010000   ; qtot -0.386801
 1283         hc     51    bbb    H11   1283 0.16730000   1.008000   ; qtot -0.219501
 1284         hc     51    bbb    H12   1284 0.16730000   1.008000   ; qtot -0.052201
 1285          c     51    bbb     C7   1285 0.72110000  12.010000   ; qtot 0.668899
 1286          c     51    bbb     C8   1286 0.72110000  12.010000   ; qtot 1.389999
 1287          o     51    bbb     O1   1287 -0.61950000  16.000000   ; qtot 0.770499
 1288          o     51    bbb     O2   1288 -0.61950000  16.000000   ; qtot 0.150999
 1289          n     51    bbb     N4   1289 -0.46580000  14.010000   ; qtot -0.314801
 1290         hn     51    bbb    H21   1290 0.31480000   1.008000   ; qtot -0.000001
; residue   52 bbb rtp bbb q -0.0
 1291         c3     52    bbb     C1   1291 0.44180000  12.010000   ; qtot 0.441799
 1292         h1     52    bbb     H1   1292 -0.03530000   1.008000   ; qtot 0.406499
 1293         h1     52    bbb     H2   1293 -0.03530000   1.008000   ; qtot 0.371199
 1294         c3     52    bbb     C2   1294 -0.28250000  12.010000   ; qtot 0.088699
 1295         h1     52    bbb     H3   1295 0.15710000   1.008000   ; qtot 0.245799
 1296         h1     52    bbb     H4   1296 0.15710000   1.008000   ; qtot 0.402899
 1297         n3     52    bbb     N1   1297 -0.74090000  14.010000   ; qtot -0.338001
 1298         c3     52    bbb     C3   1298 0.51680000  12.010000   ; qtot 0.178799
 1299         h1     52    bbb     H5   1299 -0.05230000   1.008000   ; qtot 0.126499
 1300         h1     52    bbb     H6   1300 -0.05230000   1.008000   ; qtot 0.074199
 1301         c3     52    bbb     C4   1301 0.51680000  12.010000   ; qtot 0.590999
 1302         h1     52    bbb     H7   1302 -0.05230000   1.008000   ; qtot 0.538699
 1303         h1     52    bbb     H8   1303 -0.05230000   1.008000   ; qtot 0.486399
 1304         c3     52    bbb     C5   1304 -0.60390000  12.010000   ; qtot -0.117501
 1305         hc     52    bbb     H9   1305 0.16730000   1.008000   ; qtot 0.049799
 1306         hc     52    bbb    H10   1306 0.16730000   1.008000   ; qtot 0.217099
 1307         c3     52    bbb     C6   1307 -0.60390000  12.010000   ; qtot -0.386801
 1308         hc     52    bbb    H11   1308 0.16730000   1.008000   ; qtot -0.219501
 1309         hc     52    bbb    H12   1309 0.16730000   1.008000   ; qtot -0.052201
 1310          c     52    bbb     C7   1310 0.72110000  12.010000   ; qtot 0.668899
 1311          c     52    bbb     C8   1311 0.72110000  12.010000   ; qtot 1.389999
 1312          o     52    bbb     O1   1312 -0.61950000  16.000000   ; qtot 0.770499
 1313          o     52    bbb     O2   1313 -0.61950000  16.000000   ; qtot 0.150999
 1314          n     52    bbb     N4   1314 -0.46580000  14.010000   ; qtot -0.314801
 1315         hn     52    bbb    H21   1315 0.31480000   1.008000   ; qtot -0.000001
; residue   53 bbb rtp bbb q -0.0
 1316         c3     53    bbb     C1   1316 0.44180000  12.010000   ; qtot 0.441799
 1317         h1     53    bbb     H1   1317 -0.03530000   1.008000   ; qtot 0.406499
 1318         h1     53    bbb     H2   1318 -0.03530000   1.008000   ; qtot 0.371199
 1319         c3     53    bbb     C2   1319 -0.28250000  12.010000   ; qtot 0.088699
 1320         h1     53    bbb     H3   1320 0.15710000   1.008000   ; qtot 0.245799
 1321         h1     53    bbb     H4   1321 0.15710000   1.008000   ; qtot 0.402899
 1322         n3     53    bbb     N1   1322 -0.74090000  14.010000   ; qtot -0.338001
 1323         c3     53    bbb     C3   1323 0.51680000  12.010000   ; qtot 0.178799
 1324         h1     53    bbb     H5   1324 -0.05230000   1.008000   ; qtot 0.126499
 1325         h1     53    bbb     H6   1325 -0.05230000   1.008000   ; qtot 0.074199
 1326         c3     53    bbb     C4   1326 0.51680000  12.010000   ; qtot 0.590999
 1327         h1     53    bbb     H7   1327 -0.05230000   1.008000   ; qtot 0.538699
 1328         h1     53    bbb     H8   1328 -0.05230000   1.008000   ; qtot 0.486399
 1329         c3     53    bbb     C5   1329 -0.60390000  12.010000   ; qtot -0.117501
 1330         hc     53    bbb     H9   1330 0.16730000   1.008000   ; qtot 0.049799
 1331         hc     53    bbb    H10   1331 0.16730000   1.008000   ; qtot 0.217099
 1332         c3     53    bbb     C6   1332 -0.60390000  12.010000   ; qtot -0.386801
 1333         hc     53    bbb    H11   1333 0.16730000   1.008000   ; qtot -0.219501
 1334         hc     53    bbb    H12   1334 0.16730000   1.008000   ; qtot -0.052201
 1335          c     53    bbb     C7   1335 0.72110000  12.010000   ; qtot 0.668899
 1336          c     53    bbb     C8   1336 0.72110000  12.010000   ; qtot 1.389999
 1337          o     53    bbb     O1   1337 -0.61950000  16.000000   ; qtot 0.770499
 1338          o     53    bbb     O2   1338 -0.61950000  16.000000   ; qtot 0.150999
 1339          n     53    bbb     N4   1339 -0.46580000  14.010000   ; qtot -0.314801
 1340         hn     53    bbb    H21   1340 0.31480000   1.008000   ; qtot -0.000001
; residue   54 bbb rtp bbb q -0.0
 1341         c3     54    bbb     C1   1341 0.44180000  12.010000   ; qtot 0.441799
 1342         h1     54    bbb     H1   1342 -0.03530000   1.008000   ; qtot 0.406499
 1343         h1     54    bbb     H2   1343 -0.03530000   1.008000   ; qtot 0.371199
 1344         c3     54    bbb     C2   1344 -0.28250000  12.010000   ; qtot 0.088699
 1345         h1     54    bbb     H3   1345 0.15710000   1.008000   ; qtot 0.245799
 1346         h1     54    bbb     H4   1346 0.15710000   1.008000   ; qtot 0.402899
 1347         n3     54    bbb     N1   1347 -0.74090000  14.010000   ; qtot -0.338001
 1348         c3     54    bbb     C3   1348 0.51680000  12.010000   ; qtot 0.178799
 1349         h1     54    bbb     H5   1349 -0.05230000   1.008000   ; qtot 0.126499
 1350         h1     54    bbb     H6   1350 -0.05230000   1.008000   ; qtot 0.074199
 1351         c3     54    bbb     C4   1351 0.51680000  12.010000   ; qtot 0.590999
 1352         h1     54    bbb     H7   1352 -0.05230000   1.008000   ; qtot 0.538699
 1353         h1     54    bbb     H8   1353 -0.05230000   1.008000   ; qtot 0.486399
 1354         c3     54    bbb     C5   1354 -0.60390000  12.010000   ; qtot -0.117501
 1355         hc     54    bbb     H9   1355 0.16730000   1.008000   ; qtot 0.049799
 1356         hc     54    bbb    H10   1356 0.16730000   1.008000   ; qtot 0.217099
 1357         c3     54    bbb     C6   1357 -0.60390000  12.010000   ; qtot -0.386801
 1358         hc     54    bbb    H11   1358 0.16730000   1.008000   ; qtot -0.219501
 1359         hc     54    bbb    H12   1359 0.16730000   1.008000   ; qtot -0.052201
 1360          c     54    bbb     C7   1360 0.72110000  12.010000   ; qtot 0.668899
 1361          c     54    bbb     C8   1361 0.72110000  12.010000   ; qtot 1.389999
 1362          o     54    bbb     O1   1362 -0.61950000  16.000000   ; qtot 0.770499
 1363          o     54    bbb     O2   1363 -0.61950000  16.000000   ; qtot 0.150999
 1364          n     54    bbb     N4   1364 -0.46580000  14.010000   ; qtot -0.314801
 1365         hn     54    bbb    H21   1365 0.31480000   1.008000   ; qtot -0.000001
; residue   55 bbb rtp bbb q -0.0
 1366         c3     55    bbb     C1   1366 0.44180000  12.010000   ; qtot 0.441799
 1367         h1     55    bbb     H1   1367 -0.03530000   1.008000   ; qtot 0.406499
 1368         h1     55    bbb     H2   1368 -0.03530000   1.008000   ; qtot 0.371199
 1369         c3     55    bbb     C2   1369 -0.28250000  12.010000   ; qtot 0.088699
 1370         h1     55    bbb     H3   1370 0.15710000   1.008000   ; qtot 0.245799
 1371         h1     55    bbb     H4   1371 0.15710000   1.008000   ; qtot 0.402899
 1372         n3     55    bbb     N1   1372 -0.74090000  14.010000   ; qtot -0.338001
 1373         c3     55    bbb     C3   1373 0.51680000  12.010000   ; qtot 0.178799
 1374         h1     55    bbb     H5   1374 -0.05230000   1.008000   ; qtot 0.126499
 1375         h1     55    bbb     H6   1375 -0.05230000   1.008000   ; qtot 0.074199
 1376         c3     55    bbb     C4   1376 0.51680000  12.010000   ; qtot 0.590999
 1377         h1     55    bbb     H7   1377 -0.05230000   1.008000   ; qtot 0.538699
 1378         h1     55    bbb     H8   1378 -0.05230000   1.008000   ; qtot 0.486399
 1379         c3     55    bbb     C5   1379 -0.60390000  12.010000   ; qtot -0.117501
 1380         hc     55    bbb     H9   1380 0.16730000   1.008000   ; qtot 0.049799
 1381         hc     55    bbb    H10   1381 0.16730000   1.008000   ; qtot 0.217099
 1382         c3     55    bbb     C6   1382 -0.60390000  12.010000   ; qtot -0.386801
 1383         hc     55    bbb    H11   1383 0.16730000   1.008000   ; qtot -0.219501
 1384         hc     55    bbb    H12   1384 0.16730000   1.008000   ; qtot -0.052201
 1385          c     55    bbb     C7   1385 0.72110000  12.010000   ; qtot 0.668899
 1386          c     55    bbb     C8   1386 0.72110000  12.010000   ; qtot 1.389999
 1387          o     55    bbb     O1   1387 -0.61950000  16.000000   ; qtot 0.770499
 1388          o     55    bbb     O2   1388 -0.61950000  16.000000   ; qtot 0.150999
 1389          n     55    bbb     N4   1389 -0.46580000  14.010000   ; qtot -0.314801
 1390         hn     55    bbb    H21   1390 0.31480000   1.008000   ; qtot -0.000001
; residue   56 bbb rtp bbb q -0.0
 1391         c3     56    bbb     C1   1391 0.44180000  12.010000   ; qtot 0.441799
 1392         h1     56    bbb     H1   1392 -0.03530000   1.008000   ; qtot 0.406499
 1393         h1     56    bbb     H2   1393 -0.03530000   1.008000   ; qtot 0.371199
 1394         c3     56    bbb     C2   1394 -0.28250000  12.010000   ; qtot 0.088699
 1395         h1     56    bbb     H3   1395 0.15710000   1.008000   ; qtot 0.245799
 1396         h1     56    bbb     H4   1396 0.15710000   1.008000   ; qtot 0.402899
 1397         n3     56    bbb     N1   1397 -0.74090000  14.010000   ; qtot -0.338001
 1398         c3     56    bbb     C3   1398 0.51680000  12.010000   ; qtot 0.178799
 1399         h1     56    bbb     H5   1399 -0.05230000   1.008000   ; qtot 0.126499
 1400         h1     56    bbb     H6   1400 -0.05230000   1.008000   ; qtot 0.074199
 1401         c3     56    bbb     C4   1401 0.51680000  12.010000   ; qtot 0.590999
 1402         h1     56    bbb     H7   1402 -0.05230000   1.008000   ; qtot 0.538699
 1403         h1     56    bbb     H8   1403 -0.05230000   1.008000   ; qtot 0.486399
 1404         c3     56    bbb     C5   1404 -0.60390000  12.010000   ; qtot -0.117501
 1405         hc     56    bbb     H9   1405 0.16730000   1.008000   ; qtot 0.049799
 1406         hc     56    bbb    H10   1406 0.16730000   1.008000   ; qtot 0.217099
 1407         c3     56    bbb     C6   1407 -0.60390000  12.010000   ; qtot -0.386801
 1408         hc     56    bbb    H11   1408 0.16730000   1.008000   ; qtot -0.219501
 1409         hc     56    bbb    H12   1409 0.16730000   1.008000   ; qtot -0.052201
 1410          c     56    bbb     C7   1410 0.72110000  12.010000   ; qtot 0.668899
 1411          c     56    bbb     C8   1411 0.72110000  12.010000   ; qtot 1.389999
 1412          o     56    bbb     O1   1412 -0.61950000  16.000000   ; qtot 0.770499
 1413          o     56    bbb     O2   1413 -0.61950000  16.000000   ; qtot 0.150999
 1414          n     56    bbb     N4   1414 -0.46580000  14.010000   ; qtot -0.314801
 1415         hn     56    bbb    H21   1415 0.31480000   1.008000   ; qtot -0.000001
; residue   57 bbb rtp bbb q -0.0
 1416         c3     57    bbb     C1   1416 0.44180000  12.010000   ; qtot 0.441799
 1417         h1     57    bbb     H1   1417 -0.03530000   1.008000   ; qtot 0.406499
 1418         h1     57    bbb     H2   1418 -0.03530000   1.008000   ; qtot 0.371199
 1419         c3     57    bbb     C2   1419 -0.28250000  12.010000   ; qtot 0.088699
 1420         h1     57    bbb     H3   1420 0.15710000   1.008000   ; qtot 0.245799
 1421         h1     57    bbb     H4   1421 0.15710000   1.008000   ; qtot 0.402899
 1422         n3     57    bbb     N1   1422 -0.74090000  14.010000   ; qtot -0.338001
 1423         c3     57    bbb     C3   1423 0.51680000  12.010000   ; qtot 0.178799
 1424         h1     57    bbb     H5   1424 -0.05230000   1.008000   ; qtot 0.126499
 1425         h1     57    bbb     H6   1425 -0.05230000   1.008000   ; qtot 0.074199
 1426         c3     57    bbb     C4   1426 0.51680000  12.010000   ; qtot 0.590999
 1427         h1     57    bbb     H7   1427 -0.05230000   1.008000   ; qtot 0.538699
 1428         h1     57    bbb     H8   1428 -0.05230000   1.008000   ; qtot 0.486399
 1429         c3     57    bbb     C5   1429 -0.60390000  12.010000   ; qtot -0.117501
 1430         hc     57    bbb     H9   1430 0.16730000   1.008000   ; qtot 0.049799
 1431         hc     57    bbb    H10   1431 0.16730000   1.008000   ; qtot 0.217099
 1432         c3     57    bbb     C6   1432 -0.60390000  12.010000   ; qtot -0.386801
 1433         hc     57    bbb    H11   1433 0.16730000   1.008000   ; qtot -0.219501
 1434         hc     57    bbb    H12   1434 0.16730000   1.008000   ; qtot -0.052201
 1435          c     57    bbb     C7   1435 0.72110000  12.010000   ; qtot 0.668899
 1436          c     57    bbb     C8   1436 0.72110000  12.010000   ; qtot 1.389999
 1437          o     57    bbb     O1   1437 -0.61950000  16.000000   ; qtot 0.770499
 1438          o     57    bbb     O2   1438 -0.61950000  16.000000   ; qtot 0.150999
 1439          n     57    bbb     N4   1439 -0.46580000  14.010000   ; qtot -0.314801
 1440         hn     57    bbb    H21   1440 0.31480000   1.008000   ; qtot -0.000001
; residue   58 bbb rtp bbb q -0.0
 1441         c3     58    bbb     C1   1441 0.44180000  12.010000   ; qtot 0.441799
 1442         h1     58    bbb     H1   1442 -0.03530000   1.008000   ; qtot 0.406499
 1443         h1     58    bbb     H2   1443 -0.03530000   1.008000   ; qtot 0.371199
 1444         c3     58    bbb     C2   1444 -0.28250000  12.010000   ; qtot 0.088699
 1445         h1     58    bbb     H3   1445 0.15710000   1.008000   ; qtot 0.245799
 1446         h1     58    bbb     H4   1446 0.15710000   1.008000   ; qtot 0.402899
 1447         n3     58    bbb     N1   1447 -0.74090000  14.010000   ; qtot -0.338001
 1448         c3     58    bbb     C3   1448 0.51680000  12.010000   ; qtot 0.178799
 1449         h1     58    bbb     H5   1449 -0.05230000   1.008000   ; qtot 0.126499
 1450         h1     58    bbb     H6   1450 -0.05230000   1.008000   ; qtot 0.074199
 1451         c3     58    bbb     C4   1451 0.51680000  12.010000   ; qtot 0.590999
 1452         h1     58    bbb     H7   1452 -0.05230000   1.008000   ; qtot 0.538699
 1453         h1     58    bbb     H8   1453 -0.05230000   1.008000   ; qtot 0.486399
 1454         c3     58    bbb     C5   1454 -0.60390000  12.010000   ; qtot -0.117501
 1455         hc     58    bbb     H9   1455 0.16730000   1.008000   ; qtot 0.049799
 1456         hc     58    bbb    H10   1456 0.16730000   1.008000   ; qtot 0.217099
 1457         c3     58    bbb     C6   1457 -0.60390000  12.010000   ; qtot -0.386801
 1458         hc     58    bbb    H11   1458 0.16730000   1.008000   ; qtot -0.219501
 1459         hc     58    bbb    H12   1459 0.16730000   1.008000   ; qtot -0.052201
 1460          c     58    bbb     C7   1460 0.72110000  12.010000   ; qtot 0.668899
 1461          c     58    bbb     C8   1461 0.72110000  12.010000   ; qtot 1.389999
 1462          o     58    bbb     O1   1462 -0.61950000  16.000000   ; qtot 0.770499
 1463          o     58    bbb     O2   1463 -0.61950000  16.000000   ; qtot 0.150999
 1464          n     58    bbb     N4   1464 -0.46580000  14.010000   ; qtot -0.314801
 1465         hn     58    bbb    H21   1465 0.31480000   1.008000   ; qtot -0.000001
; residue   59 bbb rtp bbb q -0.0
 1466         c3     59    bbb     C1   1466 0.44180000  12.010000   ; qtot 0.441799
 1467         h1     59    bbb     H1   1467 -0.03530000   1.008000   ; qtot 0.406499
 1468         h1     59    bbb     H2   1468 -0.03530000   1.008000   ; qtot 0.371199
 1469         c3     59    bbb     C2   1469 -0.28250000  12.010000   ; qtot 0.088699
 1470         h1     59    bbb     H3   1470 0.15710000   1.008000   ; qtot 0.245799
 1471         h1     59    bbb     H4   1471 0.15710000   1.008000   ; qtot 0.402899
 1472         n3     59    bbb     N1   1472 -0.74090000  14.010000   ; qtot -0.338001
 1473         c3     59    bbb     C3   1473 0.51680000  12.010000   ; qtot 0.178799
 1474         h1     59    bbb     H5   1474 -0.05230000   1.008000   ; qtot 0.126499
 1475         h1     59    bbb     H6   1475 -0.05230000   1.008000   ; qtot 0.074199
 1476         c3     59    bbb     C4   1476 0.51680000  12.010000   ; qtot 0.590999
 1477         h1     59    bbb     H7   1477 -0.05230000   1.008000   ; qtot 0.538699
 1478         h1     59    bbb     H8   1478 -0.05230000   1.008000   ; qtot 0.486399
 1479         c3     59    bbb     C5   1479 -0.60390000  12.010000   ; qtot -0.117501
 1480         hc     59    bbb     H9   1480 0.16730000   1.008000   ; qtot 0.049799
 1481         hc     59    bbb    H10   1481 0.16730000   1.008000   ; qtot 0.217099
 1482         c3     59    bbb     C6   1482 -0.60390000  12.010000   ; qtot -0.386801
 1483         hc     59    bbb    H11   1483 0.16730000   1.008000   ; qtot -0.219501
 1484         hc     59    bbb    H12   1484 0.16730000   1.008000   ; qtot -0.052201
 1485          c     59    bbb     C7   1485 0.72110000  12.010000   ; qtot 0.668899
 1486          c     59    bbb     C8   1486 0.72110000  12.010000   ; qtot 1.389999
 1487          o     59    bbb     O1   1487 -0.61950000  16.000000   ; qtot 0.770499
 1488          o     59    bbb     O2   1488 -0.61950000  16.000000   ; qtot 0.150999
 1489          n     59    bbb     N4   1489 -0.46580000  14.010000   ; qtot -0.314801
 1490         hn     59    bbb    H21   1490 0.31480000   1.008000   ; qtot -0.000001
; residue   60 bbb rtp bbb q -0.0
 1491         c3     60    bbb     C1   1491 0.44180000  12.010000   ; qtot 0.441799
 1492         h1     60    bbb     H1   1492 -0.03530000   1.008000   ; qtot 0.406499
 1493         h1     60    bbb     H2   1493 -0.03530000   1.008000   ; qtot 0.371199
 1494         c3     60    bbb     C2   1494 -0.28250000  12.010000   ; qtot 0.088699
 1495         h1     60    bbb     H3   1495 0.15710000   1.008000   ; qtot 0.245799
 1496         h1     60    bbb     H4   1496 0.15710000   1.008000   ; qtot 0.402899
 1497         n3     60    bbb     N1   1497 -0.74090000  14.010000   ; qtot -0.338001
 1498         c3     60    bbb     C3   1498 0.51680000  12.010000   ; qtot 0.178799
 1499         h1     60    bbb     H5   1499 -0.05230000   1.008000   ; qtot 0.126499
 1500         h1     60    bbb     H6   1500 -0.05230000   1.008000   ; qtot 0.074199
 1501         c3     60    bbb     C4   1501 0.51680000  12.010000   ; qtot 0.590999
 1502         h1     60    bbb     H7   1502 -0.05230000   1.008000   ; qtot 0.538699
 1503         h1     60    bbb     H8   1503 -0.05230000   1.008000   ; qtot 0.486399
 1504         c3     60    bbb     C5   1504 -0.60390000  12.010000   ; qtot -0.117501
 1505         hc     60    bbb     H9   1505 0.16730000   1.008000   ; qtot 0.049799
 1506         hc     60    bbb    H10   1506 0.16730000   1.008000   ; qtot 0.217099
 1507         c3     60    bbb     C6   1507 -0.60390000  12.010000   ; qtot -0.386801
 1508         hc     60    bbb    H11   1508 0.16730000   1.008000   ; qtot -0.219501
 1509         hc     60    bbb    H12   1509 0.16730000   1.008000   ; qtot -0.052201
 1510          c     60    bbb     C7   1510 0.72110000  12.010000   ; qtot 0.668899
 1511          c     60    bbb     C8   1511 0.72110000  12.010000   ; qtot 1.389999
 1512          o     60    bbb     O1   1512 -0.61950000  16.000000   ; qtot 0.770499
 1513          o     60    bbb     O2   1513 -0.61950000  16.000000   ; qtot 0.150999
 1514          n     60    bbb     N4   1514 -0.46580000  14.010000   ; qtot -0.314801
 1515         hn     60    bbb    H21   1515 0.31480000   1.008000   ; qtot -0.000001
; residue   61 bbb rtp bbb q -0.0
 1516         c3     61    bbb     C1   1516 0.44180000  12.010000   ; qtot 0.441799
 1517         h1     61    bbb     H1   1517 -0.03530000   1.008000   ; qtot 0.406499
 1518         h1     61    bbb     H2   1518 -0.03530000   1.008000   ; qtot 0.371199
 1519         c3     61    bbb     C2   1519 -0.28250000  12.010000   ; qtot 0.088699
 1520         h1     61    bbb     H3   1520 0.15710000   1.008000   ; qtot 0.245799
 1521         h1     61    bbb     H4   1521 0.15710000   1.008000   ; qtot 0.402899
 1522         n3     61    bbb     N1   1522 -0.74090000  14.010000   ; qtot -0.338001
 1523         c3     61    bbb     C3   1523 0.51680000  12.010000   ; qtot 0.178799
 1524         h1     61    bbb     H5   1524 -0.05230000   1.008000   ; qtot 0.126499
 1525         h1     61    bbb     H6   1525 -0.05230000   1.008000   ; qtot 0.074199
 1526         c3     61    bbb     C4   1526 0.51680000  12.010000   ; qtot 0.590999
 1527         h1     61    bbb     H7   1527 -0.05230000   1.008000   ; qtot 0.538699
 1528         h1     61    bbb     H8   1528 -0.05230000   1.008000   ; qtot 0.486399
 1529         c3     61    bbb     C5   1529 -0.60390000  12.010000   ; qtot -0.117501
 1530         hc     61    bbb     H9   1530 0.16730000   1.008000   ; qtot 0.049799
 1531         hc     61    bbb    H10   1531 0.16730000   1.008000   ; qtot 0.217099
 1532         c3     61    bbb     C6   1532 -0.60390000  12.010000   ; qtot -0.386801
 1533         hc     61    bbb    H11   1533 0.16730000   1.008000   ; qtot -0.219501
 1534         hc     61    bbb    H12   1534 0.16730000   1.008000   ; qtot -0.052201
 1535          c     61    bbb     C7   1535 0.72110000  12.010000   ; qtot 0.668899
 1536          c     61    bbb     C8   1536 0.72110000  12.010000   ; qtot 1.389999
 1537          o     61    bbb     O1   1537 -0.61950000  16.000000   ; qtot 0.770499
 1538          o     61    bbb     O2   1538 -0.61950000  16.000000   ; qtot 0.150999
 1539          n     61    bbb     N4   1539 -0.46580000  14.010000   ; qtot -0.314801
 1540         hn     61    bbb    H21   1540 0.31480000   1.008000   ; qtot -0.000001
; residue   62 ccc rtp ccc q 0.0
 1541         c3     62    ccc     C1   1541 -0.02400000  12.010000   ; qtot -0.024001
 1542         h1     62    ccc     H1   1542 0.10170000   1.008000   ; qtot 0.077699
 1543         h1     62    ccc     H2   1543 0.10170000   1.008000   ; qtot 0.179399
 1544         c3     62    ccc     C2   1544 0.52570000  12.010000   ; qtot 0.705099
 1545         h1     62    ccc     H3   1545 -0.02490000   1.008000   ; qtot 0.680199
 1546         h1     62    ccc     H4   1546 -0.02490000   1.008000   ; qtot 0.655299
 1547         n3     62    ccc     N1   1547 -1.33770000  14.010000   ; qtot -0.682401
 1548         hn     62    ccc     H5   1548 0.47210000   1.008000   ; qtot -0.210301
 1549         hn     62    ccc     H6   1549 0.47210000   1.008000   ; qtot 0.261799
 1550          n     62    ccc     N2   1550 -0.59180000  14.010000   ; qtot -0.330001
 1551         hn     62    ccc     H7   1551 0.33000000   1.008000   ; qtot -0.000001
; residue   63 ccc rtp ccc q 0.0
 1552         c3     63    ccc     C1   1552 -0.02400000  12.010000   ; qtot -0.024001
 1553         h1     63    ccc     H1   1553 0.10170000   1.008000   ; qtot 0.077699
 1554         h1     63    ccc     H2   1554 0.10170000   1.008000   ; qtot 0.179399
 1555         c3     63    ccc     C2   1555 0.52570000  12.010000   ; qtot 0.705099
 1556         h1     63    ccc     H3   1556 -0.02490000   1.008000   ; qtot 0.680199
 1557         h1     63    ccc     H4   1557 -0.02490000   1.008000   ; qtot 0.655299
 1558         n3     63    ccc     N1   1558 -1.33770000  14.010000   ; qtot -0.682401
 1559         hn     63    ccc     H5   1559 0.47210000   1.008000   ; qtot -0.210301
 1560         hn     63    ccc     H6   1560 0.47210000   1.008000   ; qtot 0.261799
 1561          n     63    ccc     N2   1561 -0.59180000  14.010000   ; qtot -0.330001
 1562         hn     63    ccc     H7   1562 0.33000000   1.008000   ; qtot -0.000001
; residue   64 ccc rtp ccc q 0.0
 1563         c3     64    ccc     C1   1563 -0.02400000  12.010000   ; qtot -0.024001
 1564         h1     64    ccc     H1   1564 0.10170000   1.008000   ; qtot 0.077699
 1565         h1     64    ccc     H2   1565 0.10170000   1.008000   ; qtot 0.179399
 1566         c3     64    ccc     C2   1566 0.52570000  12.010000   ; qtot 0.705099
 1567         h1     64    ccc     H3   1567 -0.02490000   1.008000   ; qtot 0.680199
 1568         h1     64    ccc     H4   1568 -0.02490000   1.008000   ; qtot 0.655299
 1569         n3     64    ccc     N1   1569 -1.33770000  14.010000   ; qtot -0.682401
 1570         hn     64    ccc     H5   1570 0.47210000   1.008000   ; qtot -0.210301
 1571         hn     64    ccc     H6   1571 0.47210000   1.008000   ; qtot 0.261799
 1572          n     64    ccc     N2   1572 -0.59180000  14.010000   ; qtot -0.330001
 1573         hn     64    ccc     H7   1573 0.33000000   1.008000   ; qtot -0.000001
; residue   65 ccc rtp ccc q 0.0
 1574         c3     65    ccc     C1   1574 -0.02400000  12.010000   ; qtot -0.024001
 1575         h1     65    ccc     H1   1575 0.10170000   1.008000   ; qtot 0.077699
 1576         h1     65    ccc     H2   1576 0.10170000   1.008000   ; qtot 0.179399
 1577         c3     65    ccc     C2   1577 0.52570000  12.010000   ; qtot 0.705099
 1578         h1     65    ccc     H3   1578 -0.02490000   1.008000   ; qtot 0.680199
 1579         h1     65    ccc     H4   1579 -0.02490000   1.008000   ; qtot 0.655299
 1580         n3     65    ccc     N1   1580 -1.33770000  14.010000   ; qtot -0.682401
 1581         hn     65    ccc     H5   1581 0.47210000   1.008000   ; qtot -0.210301
 1582         hn     65    ccc     H6   1582 0.47210000   1.008000   ; qtot 0.261799
 1583          n     65    ccc     N2   1583 -0.59180000  14.010000   ; qtot -0.330001
 1584         hn     65    ccc     H7   1584 0.33000000   1.008000   ; qtot -0.000001
; residue   66 ccc rtp ccc q 0.0
 1585         c3     66    ccc     C1   1585 -0.02400000  12.010000   ; qtot -0.024001
 1586         h1     66    ccc     H1   1586 0.10170000   1.008000   ; qtot 0.077699
 1587         h1     66    ccc     H2   1587 0.10170000   1.008000   ; qtot 0.179399
 1588         c3     66    ccc     C2   1588 0.52570000  12.010000   ; qtot 0.705099
 1589         h1     66    ccc     H3   1589 -0.02490000   1.008000   ; qtot 0.680199
 1590         h1     66    ccc     H4   1590 -0.02490000   1.008000   ; qtot 0.655299
 1591         n3     66    ccc     N1   1591 -1.33770000  14.010000   ; qtot -0.682401
 1592         hn     66    ccc     H5   1592 0.47210000   1.008000   ; qtot -0.210301
 1593         hn     66    ccc     H6   1593 0.47210000   1.008000   ; qtot 0.261799
 1594          n     66    ccc     N2   1594 -0.59180000  14.010000   ; qtot -0.330001
 1595         hn     66    ccc     H7   1595 0.33000000   1.008000   ; qtot -0.000001
; residue   67 ccc rtp ccc q 0.0
 1596         c3     67    ccc     C1   1596 -0.02400000  12.010000   ; qtot -0.024001
 1597         h1     67    ccc     H1   1597 0.10170000   1.008000   ; qtot 0.077699
 1598         h1     67    ccc     H2   1598 0.10170000   1.008000   ; qtot 0.179399
 1599         c3     67    ccc     C2   1599 0.52570000  12.010000   ; qtot 0.705099
 1600         h1     67    ccc     H3   1600 -0.02490000   1.008000   ; qtot 0.680199
 1601         h1     67    ccc     H4   1601 -0.02490000   1.008000   ; qtot 0.655299
 1602         n3     67    ccc     N1   1602 -1.33770000  14.010000   ; qtot -0.682401
 1603         hn     67    ccc     H5   1603 0.47210000   1.008000   ; qtot -0.210301
 1604         hn     67    ccc     H6   1604 0.47210000   1.008000   ; qtot 0.261799
 1605          n     67    ccc     N2   1605 -0.59180000  14.010000   ; qtot -0.330001
 1606         hn     67    ccc     H7   1606 0.33000000   1.008000   ; qtot -0.000001
; residue   68 ccc rtp ccc q 0.0
 1607         c3     68    ccc     C1   1607 -0.02400000  12.010000   ; qtot -0.024001
 1608         h1     68    ccc     H1   1608 0.10170000   1.008000   ; qtot 0.077699
 1609         h1     68    ccc     H2   1609 0.10170000   1.008000   ; qtot 0.179399
 1610         c3     68    ccc     C2   1610 0.52570000  12.010000   ; qtot 0.705099
 1611         h1     68    ccc     H3   1611 -0.02490000   1.008000   ; qtot 0.680199
 1612         h1     68    ccc     H4   1612 -0.02490000   1.008000   ; qtot 0.655299
 1613         n3     68    ccc     N1   1613 -1.33770000  14.010000   ; qtot -0.682401
 1614         hn     68    ccc     H5   1614 0.47210000   1.008000   ; qtot -0.210301
 1615         hn     68    ccc     H6   1615 0.47210000   1.008000   ; qtot 0.261799
 1616          n     68    ccc     N2   1616 -0.59180000  14.010000   ; qtot -0.330001
 1617         hn     68    ccc     H7   1617 0.33000000   1.008000   ; qtot -0.000001
; residue   69 ccc rtp ccc q 0.0
 1618         c3     69    ccc     C1   1618 -0.02400000  12.010000   ; qtot -0.024001
 1619         h1     69    ccc     H1   1619 0.10170000   1.008000   ; qtot 0.077699
 1620         h1     69    ccc     H2   1620 0.10170000   1.008000   ; qtot 0.179399
 1621         c3     69    ccc     C2   1621 0.52570000  12.010000   ; qtot 0.705099
 1622         h1     69    ccc     H3   1622 -0.02490000   1.008000   ; qtot 0.680199
 1623         h1     69    ccc     H4   1623 -0.02490000   1.008000   ; qtot 0.655299
 1624         n3     69    ccc     N1   1624 -1.33770000  14.010000   ; qtot -0.682401
 1625         hn     69    ccc     H5   1625 0.47210000   1.008000   ; qtot -0.210301
 1626         hn     69    ccc     H6   1626 0.47210000   1.008000   ; qtot 0.261799
 1627          n     69    ccc     N2   1627 -0.59180000  14.010000   ; qtot -0.330001
 1628         hn     69    ccc     H7   1628 0.33000000   1.008000   ; qtot -0.000001
; residue   70 ccc rtp ccc q 0.0
 1629         c3     70    ccc     C1   1629 -0.02400000  12.010000   ; qtot -0.024001
 1630         h1     70    ccc     H1   1630 0.10170000   1.008000   ; qtot 0.077699
 1631         h1     70    ccc     H2   1631 0.10170000   1.008000   ; qtot 0.179399
 1632         c3     70    ccc     C2   1632 0.52570000  12.010000   ; qtot 0.705099
 1633         h1     70    ccc     H3   1633 -0.02490000   1.008000   ; qtot 0.680199
 1634         h1     70    ccc     H4   1634 -0.02490000   1.008000   ; qtot 0.655299
 1635         n3     70    ccc     N1   1635 -1.33770000  14.010000   ; qtot -0.682401
 1636         hn     70    ccc     H5   1636 0.47210000   1.008000   ; qtot -0.210301
 1637         hn     70    ccc     H6   1637 0.47210000   1.008000   ; qtot 0.261799
 1638          n     70    ccc     N2   1638 -0.59180000  14.010000   ; qtot -0.330001
 1639         hn     70    ccc     H7   1639 0.33000000   1.008000   ; qtot -0.000001
; residue   71 ccc rtp ccc q 0.0
 1640         c3     71    ccc     C1   1640 -0.02400000  12.010000   ; qtot -0.024001
 1641         h1     71    ccc     H1   1641 0.10170000   1.008000   ; qtot 0.077699
 1642         h1     71    ccc     H2   1642 0.10170000   1.008000   ; qtot 0.179399
 1643         c3     71    ccc     C2   1643 0.52570000  12.010000   ; qtot 0.705099
 1644         h1     71    ccc     H3   1644 -0.02490000   1.008000   ; qtot 0.680199
 1645         h1     71    ccc     H4   1645 -0.02490000   1.008000   ; qtot 0.655299
 1646         n3     71    ccc     N1   1646 -1.33770000  14.010000   ; qtot -0.682401
 1647         hn     71    ccc     H5   1647 0.47210000   1.008000   ; qtot -0.210301
 1648         hn     71    ccc     H6   1648 0.47210000   1.008000   ; qtot 0.261799
 1649          n     71    ccc     N2   1649 -0.59180000  14.010000   ; qtot -0.330001
 1650         hn     71    ccc     H7   1650 0.33000000   1.008000   ; qtot -0.000001
; residue   72 ccc rtp ccc q 0.0
 1651         c3     72    ccc     C1   1651 -0.02400000  12.010000   ; qtot -0.024001
 1652         h1     72    ccc     H1   1652 0.10170000   1.008000   ; qtot 0.077699
 1653         h1     72    ccc     H2   1653 0.10170000   1.008000   ; qtot 0.179399
 1654         c3     72    ccc     C2   1654 0.52570000  12.010000   ; qtot 0.705099
 1655         h1     72    ccc     H3   1655 -0.02490000   1.008000   ; qtot 0.680199
 1656         h1     72    ccc     H4   1656 -0.02490000   1.008000   ; qtot 0.655299
 1657         n3     72    ccc     N1   1657 -1.33770000  14.010000   ; qtot -0.682401
 1658         hn     72    ccc     H5   1658 0.47210000   1.008000   ; qtot -0.210301
 1659         hn     72    ccc     H6   1659 0.47210000   1.008000   ; qtot 0.261799
 1660          n     72    ccc     N2   1660 -0.59180000  14.010000   ; qtot -0.330001
 1661         hn     72    ccc     H7   1661 0.33000000   1.008000   ; qtot -0.000001
; residue   73 ccc rtp ccc q 0.0
 1662         c3     73    ccc     C1   1662 -0.02400000  12.010000   ; qtot -0.024001
 1663         h1     73    ccc     H1   1663 0.10170000   1.008000   ; qtot 0.077699
 1664         h1     73    ccc     H2   1664 0.10170000   1.008000   ; qtot 0.179399
 1665         c3     73    ccc     C2   1665 0.52570000  12.010000   ; qtot 0.705099
 1666         h1     73    ccc     H3   1666 -0.02490000   1.008000   ; qtot 0.680199
 1667         h1     73    ccc     H4   1667 -0.02490000   1.008000   ; qtot 0.655299
 1668         n3     73    ccc     N1   1668 -1.33770000  14.010000   ; qtot -0.682401
 1669         hn     73    ccc     H5   1669 0.47210000   1.008000   ; qtot -0.210301
 1670         hn     73    ccc     H6   1670 0.47210000   1.008000   ; qtot 0.261799
 1671          n     73    ccc     N2   1671 -0.59180000  14.010000   ; qtot -0.330001
 1672         hn     73    ccc     H7   1672 0.33000000   1.008000   ; qtot -0.000001
; residue   74 ccc rtp ccc q 0.0
 1673         c3     74    ccc     C1   1673 -0.02400000  12.010000   ; qtot -0.024001
 1674         h1     74    ccc     H1   1674 0.10170000   1.008000   ; qtot 0.077699
 1675         h1     74    ccc     H2   1675 0.10170000   1.008000   ; qtot 0.179399
 1676         c3     74    ccc     C2   1676 0.52570000  12.010000   ; qtot 0.705099
 1677         h1     74    ccc     H3   1677 -0.02490000   1.008000   ; qtot 0.680199
 1678         h1     74    ccc     H4   1678 -0.02490000   1.008000   ; qtot 0.655299
 1679         n3     74    ccc     N1   1679 -1.33770000  14.010000   ; qtot -0.682401
 1680         hn     74    ccc     H5   1680 0.47210000   1.008000   ; qtot -0.210301
 1681         hn     74    ccc     H6   1681 0.47210000   1.008000   ; qtot 0.261799
 1682          n     74    ccc     N2   1682 -0.59180000  14.010000   ; qtot -0.330001
 1683         hn     74    ccc     H7   1683 0.33000000   1.008000   ; qtot -0.000001
; residue   75 ccc rtp ccc q 0.0
 1684         c3     75    ccc     C1   1684 -0.02400000  12.010000   ; qtot -0.024001
 1685         h1     75    ccc     H1   1685 0.10170000   1.008000   ; qtot 0.077699
 1686         h1     75    ccc     H2   1686 0.10170000   1.008000   ; qtot 0.179399
 1687         c3     75    ccc     C2   1687 0.52570000  12.010000   ; qtot 0.705099
 1688         h1     75    ccc     H3   1688 -0.02490000   1.008000   ; qtot 0.680199
 1689         h1     75    ccc     H4   1689 -0.02490000   1.008000   ; qtot 0.655299
 1690         n3     75    ccc     N1   1690 -1.33770000  14.010000   ; qtot -0.682401
 1691         hn     75    ccc     H5   1691 0.47210000   1.008000   ; qtot -0.210301
 1692         hn     75    ccc     H6   1692 0.47210000   1.008000   ; qtot 0.261799
 1693          n     75    ccc     N2   1693 -0.59180000  14.010000   ; qtot -0.330001
 1694         hn     75    ccc     H7   1694 0.33000000   1.008000   ; qtot -0.000001
; residue   76 ccc rtp ccc q 0.0
 1695         c3     76    ccc     C1   1695 -0.02400000  12.010000   ; qtot -0.024001
 1696         h1     76    ccc     H1   1696 0.10170000   1.008000   ; qtot 0.077699
 1697         h1     76    ccc     H2   1697 0.10170000   1.008000   ; qtot 0.179399
 1698         c3     76    ccc     C2   1698 0.52570000  12.010000   ; qtot 0.705099
 1699         h1     76    ccc     H3   1699 -0.02490000   1.008000   ; qtot 0.680199
 1700         h1     76    ccc     H4   1700 -0.02490000   1.008000   ; qtot 0.655299
 1701         n3     76    ccc     N1   1701 -1.33770000  14.010000   ; qtot -0.682401
 1702         hn     76    ccc     H5   1702 0.47210000   1.008000   ; qtot -0.210301
 1703         hn     76    ccc     H6   1703 0.47210000   1.008000   ; qtot 0.261799
 1704          n     76    ccc     N2   1704 -0.59180000  14.010000   ; qtot -0.330001
 1705         hn     76    ccc     H7   1705 0.33000000   1.008000   ; qtot -0.000001
; residue   77 ccc rtp ccc q 0.0
 1706         c3     77    ccc     C1   1706 -0.02400000  12.010000   ; qtot -0.024001
 1707         h1     77    ccc     H1   1707 0.10170000   1.008000   ; qtot 0.077699
 1708         h1     77    ccc     H2   1708 0.10170000   1.008000   ; qtot 0.179399
 1709         c3     77    ccc     C2   1709 0.52570000  12.010000   ; qtot 0.705099
 1710         h1     77    ccc     H3   1710 -0.02490000   1.008000   ; qtot 0.680199
 1711         h1     77    ccc     H4   1711 -0.02490000   1.008000   ; qtot 0.655299
 1712         n3     77    ccc     N1   1712 -1.33770000  14.010000   ; qtot -0.682401
 1713         hn     77    ccc     H5   1713 0.47210000   1.008000   ; qtot -0.210301
 1714         hn     77    ccc     H6   1714 0.47210000   1.008000   ; qtot 0.261799
 1715          n     77    ccc     N2   1715 -0.59180000  14.010000   ; qtot -0.330001
 1716         hn     77    ccc     H7   1716 0.33000000   1.008000   ; qtot -0.000001
; residue   78 ccc rtp ccc q 0.0
 1717         c3     78    ccc     C1   1717 -0.02400000  12.010000   ; qtot -0.024001
 1718         h1     78    ccc     H1   1718 0.10170000   1.008000   ; qtot 0.077699
 1719         h1     78    ccc     H2   1719 0.10170000   1.008000   ; qtot 0.179399
 1720         c3     78    ccc     C2   1720 0.52570000  12.010000   ; qtot 0.705099
 1721         h1     78    ccc     H3   1721 -0.02490000   1.008000   ; qtot 0.680199
 1722         h1     78    ccc     H4   1722 -0.02490000   1.008000   ; qtot 0.655299
 1723         n3     78    ccc     N1   1723 -1.33770000  14.010000   ; qtot -0.682401
 1724         hn     78    ccc     H5   1724 0.47210000   1.008000   ; qtot -0.210301
 1725         hn     78    ccc     H6   1725 0.47210000   1.008000   ; qtot 0.261799
 1726          n     78    ccc     N2   1726 -0.59180000  14.010000   ; qtot -0.330001
 1727         hn     78    ccc     H7   1727 0.33000000   1.008000   ; qtot -0.000001
; residue   79 ccc rtp ccc q 0.0
 1728         c3     79    ccc     C1   1728 -0.02400000  12.010000   ; qtot -0.024001
 1729         h1     79    ccc     H1   1729 0.10170000   1.008000   ; qtot 0.077699
 1730         h1     79    ccc     H2   1730 0.10170000   1.008000   ; qtot 0.179399
 1731         c3     79    ccc     C2   1731 0.52570000  12.010000   ; qtot 0.705099
 1732         h1     79    ccc     H3   1732 -0.02490000   1.008000   ; qtot 0.680199
 1733         h1     79    ccc     H4   1733 -0.02490000   1.008000   ; qtot 0.655299
 1734         n3     79    ccc     N1   1734 -1.33770000  14.010000   ; qtot -0.682401
 1735         hn     79    ccc     H5   1735 0.47210000   1.008000   ; qtot -0.210301
 1736         hn     79    ccc     H6   1736 0.47210000   1.008000   ; qtot 0.261799
 1737          n     79    ccc     N2   1737 -0.59180000  14.010000   ; qtot -0.330001
 1738         hn     79    ccc     H7   1738 0.33000000   1.008000   ; qtot -0.000001
; residue   80 ccc rtp ccc q 0.0
 1739         c3     80    ccc     C1   1739 -0.02400000  12.010000   ; qtot -0.024001
 1740         h1     80    ccc     H1   1740 0.10170000   1.008000   ; qtot 0.077699
 1741         h1     80    ccc     H2   1741 0.10170000   1.008000   ; qtot 0.179399
 1742         c3     80    ccc     C2   1742 0.52570000  12.010000   ; qtot 0.705099
 1743         h1     80    ccc     H3   1743 -0.02490000   1.008000   ; qtot 0.680199
 1744         h1     80    ccc     H4   1744 -0.02490000   1.008000   ; qtot 0.655299
 1745         n3     80    ccc     N1   1745 -1.33770000  14.010000   ; qtot -0.682401
 1746         hn     80    ccc     H5   1746 0.47210000   1.008000   ; qtot -0.210301
 1747         hn     80    ccc     H6   1747 0.47210000   1.008000   ; qtot 0.261799
 1748          n     80    ccc     N2   1748 -0.59180000  14.010000   ; qtot -0.330001
 1749         hn     80    ccc     H7   1749 0.33000000   1.008000   ; qtot -0.000001
; residue   81 ccc rtp ccc q 0.0
 1750         c3     81    ccc     C1   1750 -0.02400000  12.010000   ; qtot -0.024001
 1751         h1     81    ccc     H1   1751 0.10170000   1.008000   ; qtot 0.077699
 1752         h1     81    ccc     H2   1752 0.10170000   1.008000   ; qtot 0.179399
 1753         c3     81    ccc     C2   1753 0.52570000  12.010000   ; qtot 0.705099
 1754         h1     81    ccc     H3   1754 -0.02490000   1.008000   ; qtot 0.680199
 1755         h1     81    ccc     H4   1755 -0.02490000   1.008000   ; qtot 0.655299
 1756         n3     81    ccc     N1   1756 -1.33770000  14.010000   ; qtot -0.682401
 1757         hn     81    ccc     H5   1757 0.47210000   1.008000   ; qtot -0.210301
 1758         hn     81    ccc     H6   1758 0.47210000   1.008000   ; qtot 0.261799
 1759          n     81    ccc     N2   1759 -0.59180000  14.010000   ; qtot -0.330001
 1760         hn     81    ccc     H7   1760 0.33000000   1.008000   ; qtot -0.000001
; residue   82 ccc rtp ccc q 0.0
 1761         c3     82    ccc     C1   1761 -0.02400000  12.010000   ; qtot -0.024001
 1762         h1     82    ccc     H1   1762 0.10170000   1.008000   ; qtot 0.077699
 1763         h1     82    ccc     H2   1763 0.10170000   1.008000   ; qtot 0.179399
 1764         c3     82    ccc     C2   1764 0.52570000  12.010000   ; qtot 0.705099
 1765         h1     82    ccc     H3   1765 -0.02490000   1.008000   ; qtot 0.680199
 1766         h1     82    ccc     H4   1766 -0.02490000   1.008000   ; qtot 0.655299
 1767         n3     82    ccc     N1   1767 -1.33770000  14.010000   ; qtot -0.682401
 1768         hn     82    ccc     H5   1768 0.47210000   1.008000   ; qtot -0.210301
 1769         hn     82    ccc     H6   1769 0.47210000   1.008000   ; qtot 0.261799
 1770          n     82    ccc     N2   1770 -0.59180000  14.010000   ; qtot -0.330001
 1771         hn     82    ccc     H7   1771 0.33000000   1.008000   ; qtot -0.000001
; residue   83 ccc rtp ccc q 0.0
 1772         c3     83    ccc     C1   1772 -0.02400000  12.010000   ; qtot -0.024001
 1773         h1     83    ccc     H1   1773 0.10170000   1.008000   ; qtot 0.077699
 1774         h1     83    ccc     H2   1774 0.10170000   1.008000   ; qtot 0.179399
 1775         c3     83    ccc     C2   1775 0.52570000  12.010000   ; qtot 0.705099
 1776         h1     83    ccc     H3   1776 -0.02490000   1.008000   ; qtot 0.680199
 1777         h1     83    ccc     H4   1777 -0.02490000   1.008000   ; qtot 0.655299
 1778         n3     83    ccc     N1   1778 -1.33770000  14.010000   ; qtot -0.682401
 1779         hn     83    ccc     H5   1779 0.47210000   1.008000   ; qtot -0.210301
 1780         hn     83    ccc     H6   1780 0.47210000   1.008000   ; qtot 0.261799
 1781          n     83    ccc     N2   1781 -0.59180000  14.010000   ; qtot -0.330001
 1782         hn     83    ccc     H7   1782 0.33000000   1.008000   ; qtot -0.000001
; residue   84 ccc rtp ccc q 0.0
 1783         c3     84    ccc     C1   1783 -0.02400000  12.010000   ; qtot -0.024001
 1784         h1     84    ccc     H1   1784 0.10170000   1.008000   ; qtot 0.077699
 1785         h1     84    ccc     H2   1785 0.10170000   1.008000   ; qtot 0.179399
 1786         c3     84    ccc     C2   1786 0.52570000  12.010000   ; qtot 0.705099
 1787         h1     84    ccc     H3   1787 -0.02490000   1.008000   ; qtot 0.680199
 1788         h1     84    ccc     H4   1788 -0.02490000   1.008000   ; qtot 0.655299
 1789         n3     84    ccc     N1   1789 -1.33770000  14.010000   ; qtot -0.682401
 1790         hn     84    ccc     H5   1790 0.47210000   1.008000   ; qtot -0.210301
 1791         hn     84    ccc     H6   1791 0.47210000   1.008000   ; qtot 0.261799
 1792          n     84    ccc     N2   1792 -0.59180000  14.010000   ; qtot -0.330001
 1793         hn     84    ccc     H7   1793 0.33000000   1.008000   ; qtot -0.000001
; residue   85 ccc rtp ccc q 0.0
 1794         c3     85    ccc     C1   1794 -0.02400000  12.010000   ; qtot -0.024001
 1795         h1     85    ccc     H1   1795 0.10170000   1.008000   ; qtot 0.077699
 1796         h1     85    ccc     H2   1796 0.10170000   1.008000   ; qtot 0.179399
 1797         c3     85    ccc     C2   1797 0.52570000  12.010000   ; qtot 0.705099
 1798         h1     85    ccc     H3   1798 -0.02490000   1.008000   ; qtot 0.680199
 1799         h1     85    ccc     H4   1799 -0.02490000   1.008000   ; qtot 0.655299
 1800         n3     85    ccc     N1   1800 -1.33770000  14.010000   ; qtot -0.682401
 1801         hn     85    ccc     H5   1801 0.47210000   1.008000   ; qtot -0.210301
 1802         hn     85    ccc     H6   1802 0.47210000   1.008000   ; qtot 0.261799
 1803          n     85    ccc     N2   1803 -0.59180000  14.010000   ; qtot -0.330001
 1804         hn     85    ccc     H7   1804 0.33000000   1.008000   ; qtot -0.000001
; residue   86 ccc rtp ccc q 0.0
 1805         c3     86    ccc     C1   1805 -0.02400000  12.010000   ; qtot -0.024001
 1806         h1     86    ccc     H1   1806 0.10170000   1.008000   ; qtot 0.077699
 1807         h1     86    ccc     H2   1807 0.10170000   1.008000   ; qtot 0.179399
 1808         c3     86    ccc     C2   1808 0.52570000  12.010000   ; qtot 0.705099
 1809         h1     86    ccc     H3   1809 -0.02490000   1.008000   ; qtot 0.680199
 1810         h1     86    ccc     H4   1810 -0.02490000   1.008000   ; qtot 0.655299
 1811         n3     86    ccc     N1   1811 -1.33770000  14.010000   ; qtot -0.682401
 1812         hn     86    ccc     H5   1812 0.47210000   1.008000   ; qtot -0.210301
 1813         hn     86    ccc     H6   1813 0.47210000   1.008000   ; qtot 0.261799
 1814          n     86    ccc     N2   1814 -0.59180000  14.010000   ; qtot -0.330001
 1815         hn     86    ccc     H7   1815 0.33000000   1.008000   ; qtot -0.000001
; residue   87 ccc rtp ccc q 0.0
 1816         c3     87    ccc     C1   1816 -0.02400000  12.010000   ; qtot -0.024001
 1817         h1     87    ccc     H1   1817 0.10170000   1.008000   ; qtot 0.077699
 1818         h1     87    ccc     H2   1818 0.10170000   1.008000   ; qtot 0.179399
 1819         c3     87    ccc     C2   1819 0.52570000  12.010000   ; qtot 0.705099
 1820         h1     87    ccc     H3   1820 -0.02490000   1.008000   ; qtot 0.680199
 1821         h1     87    ccc     H4   1821 -0.02490000   1.008000   ; qtot 0.655299
 1822         n3     87    ccc     N1   1822 -1.33770000  14.010000   ; qtot -0.682401
 1823         hn     87    ccc     H5   1823 0.47210000   1.008000   ; qtot -0.210301
 1824         hn     87    ccc     H6   1824 0.47210000   1.008000   ; qtot 0.261799
 1825          n     87    ccc     N2   1825 -0.59180000  14.010000   ; qtot -0.330001
 1826         hn     87    ccc     H7   1826 0.33000000   1.008000   ; qtot -0.000001
; residue   88 ccc rtp ccc q 0.0
 1827         c3     88    ccc     C1   1827 -0.02400000  12.010000   ; qtot -0.024001
 1828         h1     88    ccc     H1   1828 0.10170000   1.008000   ; qtot 0.077699
 1829         h1     88    ccc     H2   1829 0.10170000   1.008000   ; qtot 0.179399
 1830         c3     88    ccc     C2   1830 0.52570000  12.010000   ; qtot 0.705099
 1831         h1     88    ccc     H3   1831 -0.02490000   1.008000   ; qtot 0.680199
 1832         h1     88    ccc     H4   1832 -0.02490000   1.008000   ; qtot 0.655299
 1833         n3     88    ccc     N1   1833 -1.33770000  14.010000   ; qtot -0.682401
 1834         hn     88    ccc     H5   1834 0.47210000   1.008000   ; qtot -0.210301
 1835         hn     88    ccc     H6   1835 0.47210000   1.008000   ; qtot 0.261799
 1836          n     88    ccc     N2   1836 -0.59180000  14.010000   ; qtot -0.330001
 1837         hn     88    ccc     H7   1837 0.33000000   1.008000   ; qtot -0.000001
; residue   89 ccc rtp ccc q 0.0
 1838         c3     89    ccc     C1   1838 -0.02400000  12.010000   ; qtot -0.024001
 1839         h1     89    ccc     H1   1839 0.10170000   1.008000   ; qtot 0.077699
 1840         h1     89    ccc     H2   1840 0.10170000   1.008000   ; qtot 0.179399
 1841         c3     89    ccc     C2   1841 0.52570000  12.010000   ; qtot 0.705099
 1842         h1     89    ccc     H3   1842 -0.02490000   1.008000   ; qtot 0.680199
 1843         h1     89    ccc     H4   1843 -0.02490000   1.008000   ; qtot 0.655299
 1844         n3     89    ccc     N1   1844 -1.33770000  14.010000   ; qtot -0.682401
 1845         hn     89    ccc     H5   1845 0.47210000   1.008000   ; qtot -0.210301
 1846         hn     89    ccc     H6   1846 0.47210000   1.008000   ; qtot 0.261799
 1847          n     89    ccc     N2   1847 -0.59180000  14.010000   ; qtot -0.330001
 1848         hn     89    ccc     H7   1848 0.33000000   1.008000   ; qtot -0.000001
; residue   90 ccc rtp ccc q 0.0
 1849         c3     90    ccc     C1   1849 -0.02400000  12.010000   ; qtot -0.024001
 1850         h1     90    ccc     H1   1850 0.10170000   1.008000   ; qtot 0.077699
 1851         h1     90    ccc     H2   1851 0.10170000   1.008000   ; qtot 0.179399
 1852         c3     90    ccc     C2   1852 0.52570000  12.010000   ; qtot 0.705099
 1853         h1     90    ccc     H3   1853 -0.02490000   1.008000   ; qtot 0.680199
 1854         h1     90    ccc     H4   1854 -0.02490000   1.008000   ; qtot 0.655299
 1855         n3     90    ccc     N1   1855 -1.33770000  14.010000   ; qtot -0.682401
 1856         hn     90    ccc     H5   1856 0.47210000   1.008000   ; qtot -0.210301
 1857         hn     90    ccc     H6   1857 0.47210000   1.008000   ; qtot 0.261799
 1858          n     90    ccc     N2   1858 -0.59180000  14.010000   ; qtot -0.330001
 1859         hn     90    ccc     H7   1859 0.33000000   1.008000   ; qtot -0.000001
; residue   91 ccc rtp ccc q 0.0
 1860         c3     91    ccc     C1   1860 -0.02400000  12.010000   ; qtot -0.024001
 1861         h1     91    ccc     H1   1861 0.10170000   1.008000   ; qtot 0.077699
 1862         h1     91    ccc     H2   1862 0.10170000   1.008000   ; qtot 0.179399
 1863         c3     91    ccc     C2   1863 0.52570000  12.010000   ; qtot 0.705099
 1864         h1     91    ccc     H3   1864 -0.02490000   1.008000   ; qtot 0.680199
 1865         h1     91    ccc     H4   1865 -0.02490000   1.008000   ; qtot 0.655299
 1866         n3     91    ccc     N1   1866 -1.33770000  14.010000   ; qtot -0.682401
 1867         hn     91    ccc     H5   1867 0.47210000   1.008000   ; qtot -0.210301
 1868         hn     91    ccc     H6   1868 0.47210000   1.008000   ; qtot 0.261799
 1869          n     91    ccc     N2   1869 -0.59180000  14.010000   ; qtot -0.330001
 1870         hn     91    ccc     H7   1870 0.33000000   1.008000   ; qtot -0.000001
; residue   92 ccc rtp ccc q 0.0
 1871         c3     92    ccc     C1   1871 -0.02400000  12.010000   ; qtot -0.024001
 1872         h1     92    ccc     H1   1872 0.10170000   1.008000   ; qtot 0.077699
 1873         h1     92    ccc     H2   1873 0.10170000   1.008000   ; qtot 0.179399
 1874         c3     92    ccc     C2   1874 0.52570000  12.010000   ; qtot 0.705099
 1875         h1     92    ccc     H3   1875 -0.02490000   1.008000   ; qtot 0.680199
 1876         h1     92    ccc     H4   1876 -0.02490000   1.008000   ; qtot 0.655299
 1877         n3     92    ccc     N1   1877 -1.33770000  14.010000   ; qtot -0.682401
 1878         hn     92    ccc     H5   1878 0.47210000   1.008000   ; qtot -0.210301
 1879         hn     92    ccc     H6   1879 0.47210000   1.008000   ; qtot 0.261799
 1880          n     92    ccc     N2   1880 -0.59180000  14.010000   ; qtot -0.330001
 1881         hn     92    ccc     H7   1881 0.33000000   1.008000   ; qtot -0.000001
; residue   93 ccc rtp ccc q 0.0
 1882         c3     93    ccc     C1   1882 -0.02400000  12.010000   ; qtot -0.024001
 1883         h1     93    ccc     H1   1883 0.10170000   1.008000   ; qtot 0.077699
 1884         h1     93    ccc     H2   1884 0.10170000   1.008000   ; qtot 0.179399
 1885         c3     93    ccc     C2   1885 0.52570000  12.010000   ; qtot 0.705099
 1886         h1     93    ccc     H3   1886 -0.02490000   1.008000   ; qtot 0.680199
 1887         h1     93    ccc     H4   1887 -0.02490000   1.008000   ; qtot 0.655299
 1888         n3     93    ccc     N1   1888 -1.33770000  14.010000   ; qtot -0.682401
 1889         hn     93    ccc     H5   1889 0.47210000   1.008000   ; qtot -0.210301
 1890         hn     93    ccc     H6   1890 0.47210000   1.008000   ; qtot 0.261799
 1891          n     93    ccc     N2   1891 -0.59180000  14.010000   ; qtot -0.330001
 1892         hn     93    ccc     H7   1892 0.33000000   1.008000   ; qtot -0.000001
; residue   94 ccc rtp ccc q 0.0
 1893         c3     94    ccc     C1   1893 -0.02400000  12.010000   ; qtot -0.024001
 1894         h1     94    ccc     H1   1894 0.10170000   1.008000   ; qtot 0.077699
 1895         h1     94    ccc     H2   1895 0.10170000   1.008000   ; qtot 0.179399
 1896         c3     94    ccc     C2   1896 0.52570000  12.010000   ; qtot 0.705099
 1897         h1     94    ccc     H3   1897 -0.02490000   1.008000   ; qtot 0.680199
 1898         h1     94    ccc     H4   1898 -0.02490000   1.008000   ; qtot 0.655299
 1899         n3     94    ccc     N1   1899 -1.33770000  14.010000   ; qtot -0.682401
 1900         hn     94    ccc     H5   1900 0.47210000   1.008000   ; qtot -0.210301
 1901         hn     94    ccc     H6   1901 0.47210000   1.008000   ; qtot 0.261799
 1902          n     94    ccc     N2   1902 -0.59180000  14.010000   ; qtot -0.330001
 1903         hn     94    ccc     H7   1903 0.33000000   1.008000   ; qtot -0.000001
; residue   95 ccc rtp ccc q 0.0
 1904         c3     95    ccc     C1   1904 -0.02400000  12.010000   ; qtot -0.024001
 1905         h1     95    ccc     H1   1905 0.10170000   1.008000   ; qtot 0.077699
 1906         h1     95    ccc     H2   1906 0.10170000   1.008000   ; qtot 0.179399
 1907         c3     95    ccc     C2   1907 0.52570000  12.010000   ; qtot 0.705099
 1908         h1     95    ccc     H3   1908 -0.02490000   1.008000   ; qtot 0.680199
 1909         h1     95    ccc     H4   1909 -0.02490000   1.008000   ; qtot 0.655299
 1910         n3     95    ccc     N1   1910 -1.33770000  14.010000   ; qtot -0.682401
 1911         hn     95    ccc     H5   1911 0.47210000   1.008000   ; qtot -0.210301
 1912         hn     95    ccc     H6   1912 0.47210000   1.008000   ; qtot 0.261799
 1913          n     95    ccc     N2   1913 -0.59180000  14.010000   ; qtot -0.330001
 1914         hn     95    ccc     H7   1914 0.33000000   1.008000   ; qtot -0.000001
; residue   96 ccc rtp ccc q 0.0
 1915         c3     96    ccc     C1   1915 -0.02400000  12.010000   ; qtot -0.024001
 1916         h1     96    ccc     H1   1916 0.10170000   1.008000   ; qtot 0.077699
 1917         h1     96    ccc     H2   1917 0.10170000   1.008000   ; qtot 0.179399
 1918         c3     96    ccc     C2   1918 0.52570000  12.010000   ; qtot 0.705099
 1919         h1     96    ccc     H3   1919 -0.02490000   1.008000   ; qtot 0.680199
 1920         h1     96    ccc     H4   1920 -0.02490000   1.008000   ; qtot 0.655299
 1921         n3     96    ccc     N1   1921 -1.33770000  14.010000   ; qtot -0.682401
 1922         hn     96    ccc     H5   1922 0.47210000   1.008000   ; qtot -0.210301
 1923         hn     96    ccc     H6   1923 0.47210000   1.008000   ; qtot 0.261799
 1924          n     96    ccc     N2   1924 -0.59180000  14.010000   ; qtot -0.330001
 1925         hn     96    ccc     H7   1925 0.33000000   1.008000   ; qtot -0.000001
; residue   97 ccc rtp ccc q 0.0
 1926         c3     97    ccc     C1   1926 -0.02400000  12.010000   ; qtot -0.024001
 1927         h1     97    ccc     H1   1927 0.10170000   1.008000   ; qtot 0.077699
 1928         h1     97    ccc     H2   1928 0.10170000   1.008000   ; qtot 0.179399
 1929         c3     97    ccc     C2   1929 0.52570000  12.010000   ; qtot 0.705099
 1930         h1     97    ccc     H3   1930 -0.02490000   1.008000   ; qtot 0.680199
 1931         h1     97    ccc     H4   1931 -0.02490000   1.008000   ; qtot 0.655299
 1932         n3     97    ccc     N1   1932 -1.33770000  14.010000   ; qtot -0.682401
 1933         hn     97    ccc     H5   1933 0.47210000   1.008000   ; qtot -0.210301
 1934         hn     97    ccc     H6   1934 0.47210000   1.008000   ; qtot 0.261799
 1935          n     97    ccc     N2   1935 -0.59180000  14.010000   ; qtot -0.330001
 1936         hn     97    ccc     H7   1936 0.33000000   1.008000   ; qtot -0.000001
; residue   98 ccc rtp ccc q 0.0
 1937         c3     98    ccc     C1   1937 -0.02400000  12.010000   ; qtot -0.024001
 1938         h1     98    ccc     H1   1938 0.10170000   1.008000   ; qtot 0.077699
 1939         h1     98    ccc     H2   1939 0.10170000   1.008000   ; qtot 0.179399
 1940         c3     98    ccc     C2   1940 0.52570000  12.010000   ; qtot 0.705099
 1941         h1     98    ccc     H3   1941 -0.02490000   1.008000   ; qtot 0.680199
 1942         h1     98    ccc     H4   1942 -0.02490000   1.008000   ; qtot 0.655299
 1943         n3     98    ccc     N1   1943 -1.33770000  14.010000   ; qtot -0.682401
 1944         hn     98    ccc     H5   1944 0.47210000   1.008000   ; qtot -0.210301
 1945         hn     98    ccc     H6   1945 0.47210000   1.008000   ; qtot 0.261799
 1946          n     98    ccc     N2   1946 -0.59180000  14.010000   ; qtot -0.330001
 1947         hn     98    ccc     H7   1947 0.33000000   1.008000   ; qtot -0.000001
; residue   99 ccc rtp ccc q 0.0
 1948         c3     99    ccc     C1   1948 -0.02400000  12.010000   ; qtot -0.024001
 1949         h1     99    ccc     H1   1949 0.10170000   1.008000   ; qtot 0.077699
 1950         h1     99    ccc     H2   1950 0.10170000   1.008000   ; qtot 0.179399
 1951         c3     99    ccc     C2   1951 0.52570000  12.010000   ; qtot 0.705099
 1952         h1     99    ccc     H3   1952 -0.02490000   1.008000   ; qtot 0.680199
 1953         h1     99    ccc     H4   1953 -0.02490000   1.008000   ; qtot 0.655299
 1954         n3     99    ccc     N1   1954 -1.33770000  14.010000   ; qtot -0.682401
 1955         hn     99    ccc     H5   1955 0.47210000   1.008000   ; qtot -0.210301
 1956         hn     99    ccc     H6   1956 0.47210000   1.008000   ; qtot 0.261799
 1957          n     99    ccc     N2   1957 -0.59180000  14.010000   ; qtot -0.330001
 1958         hn     99    ccc     H7   1958 0.33000000   1.008000   ; qtot -0.000001
; residue  100 ccc rtp ccc q 0.0
 1959         c3    100    ccc     C1   1959 -0.02400000  12.010000   ; qtot -0.024001
 1960         h1    100    ccc     H1   1960 0.10170000   1.008000   ; qtot 0.077699
 1961         h1    100    ccc     H2   1961 0.10170000   1.008000   ; qtot 0.179399
 1962         c3    100    ccc     C2   1962 0.52570000  12.010000   ; qtot 0.705099
 1963         h1    100    ccc     H3   1963 -0.02490000   1.008000   ; qtot 0.680199
 1964         h1    100    ccc     H4   1964 -0.02490000   1.008000   ; qtot 0.655299
 1965         n3    100    ccc     N1   1965 -1.33770000  14.010000   ; qtot -0.682401
 1966         hn    100    ccc     H5   1966 0.47210000   1.008000   ; qtot -0.210301
 1967         hn    100    ccc     H6   1967 0.47210000   1.008000   ; qtot 0.261799
 1968          n    100    ccc     N2   1968 -0.59180000  14.010000   ; qtot -0.330001
 1969         hn    100    ccc     H7   1969 0.33000000   1.008000   ; qtot -0.000001
; residue  101 ccc rtp ccc q 0.0
 1970         c3    101    ccc     C1   1970 -0.02400000  12.010000   ; qtot -0.024001
 1971         h1    101    ccc     H1   1971 0.10170000   1.008000   ; qtot 0.077699
 1972         h1    101    ccc     H2   1972 0.10170000   1.008000   ; qtot 0.179399
 1973         c3    101    ccc     C2   1973 0.52570000  12.010000   ; qtot 0.705099
 1974         h1    101    ccc     H3   1974 -0.02490000   1.008000   ; qtot 0.680199
 1975         h1    101    ccc     H4   1975 -0.02490000   1.008000   ; qtot 0.655299
 1976         n3    101    ccc     N1   1976 -1.33770000  14.010000   ; qtot -0.682401
 1977         hn    101    ccc     H5   1977 0.47210000   1.008000   ; qtot -0.210301
 1978         hn    101    ccc     H6   1978 0.47210000   1.008000   ; qtot 0.261799
 1979          n    101    ccc     N2   1979 -0.59180000  14.010000   ; qtot -0.330001
 1980         hn    101    ccc     H7   1980 0.33000000   1.008000   ; qtot -0.000001
; residue  102 ccc rtp ccc q 0.0
 1981         c3    102    ccc     C1   1981 -0.02400000  12.010000   ; qtot -0.024001
 1982         h1    102    ccc     H1   1982 0.10170000   1.008000   ; qtot 0.077699
 1983         h1    102    ccc     H2   1983 0.10170000   1.008000   ; qtot 0.179399
 1984         c3    102    ccc     C2   1984 0.52570000  12.010000   ; qtot 0.705099
 1985         h1    102    ccc     H3   1985 -0.02490000   1.008000   ; qtot 0.680199
 1986         h1    102    ccc     H4   1986 -0.02490000   1.008000   ; qtot 0.655299
 1987         n3    102    ccc     N1   1987 -1.33770000  14.010000   ; qtot -0.682401
 1988         hn    102    ccc     H5   1988 0.47210000   1.008000   ; qtot -0.210301
 1989         hn    102    ccc     H6   1989 0.47210000   1.008000   ; qtot 0.261799
 1990          n    102    ccc     N2   1990 -0.59180000  14.010000   ; qtot -0.330001
 1991         hn    102    ccc     H7   1991 0.33000000   1.008000   ; qtot -0.000001
; residue  103 ccc rtp ccc q 0.0
 1992         c3    103    ccc     C1   1992 -0.02400000  12.010000   ; qtot -0.024001
 1993         h1    103    ccc     H1   1993 0.10170000   1.008000   ; qtot 0.077699
 1994         h1    103    ccc     H2   1994 0.10170000   1.008000   ; qtot 0.179399
 1995         c3    103    ccc     C2   1995 0.52570000  12.010000   ; qtot 0.705099
 1996         h1    103    ccc     H3   1996 -0.02490000   1.008000   ; qtot 0.680199
 1997         h1    103    ccc     H4   1997 -0.02490000   1.008000   ; qtot 0.655299
 1998         n3    103    ccc     N1   1998 -1.33770000  14.010000   ; qtot -0.682401
 1999         hn    103    ccc     H5   1999 0.47210000   1.008000   ; qtot -0.210301
 2000         hn    103    ccc     H6   2000 0.47210000   1.008000   ; qtot 0.261799
 2001          n    103    ccc     N2   2001 -0.59180000  14.010000   ; qtot -0.330001
 2002         hn    103    ccc     H7   2002 0.33000000   1.008000   ; qtot -0.000001
; residue  104 ccc rtp ccc q 0.0
 2003         c3    104    ccc     C1   2003 -0.02400000  12.010000   ; qtot -0.024001
 2004         h1    104    ccc     H1   2004 0.10170000   1.008000   ; qtot 0.077699
 2005         h1    104    ccc     H2   2005 0.10170000   1.008000   ; qtot 0.179399
 2006         c3    104    ccc     C2   2006 0.52570000  12.010000   ; qtot 0.705099
 2007         h1    104    ccc     H3   2007 -0.02490000   1.008000   ; qtot 0.680199
 2008         h1    104    ccc     H4   2008 -0.02490000   1.008000   ; qtot 0.655299
 2009         n3    104    ccc     N1   2009 -1.33770000  14.010000   ; qtot -0.682401
 2010         hn    104    ccc     H5   2010 0.47210000   1.008000   ; qtot -0.210301
 2011         hn    104    ccc     H6   2011 0.47210000   1.008000   ; qtot 0.261799
 2012          n    104    ccc     N2   2012 -0.59180000  14.010000   ; qtot -0.330001
 2013         hn    104    ccc     H7   2013 0.33000000   1.008000   ; qtot -0.000001
; residue  105 ccc rtp ccc q 0.0
 2014         c3    105    ccc     C1   2014 -0.02400000  12.010000   ; qtot -0.024001
 2015         h1    105    ccc     H1   2015 0.10170000   1.008000   ; qtot 0.077699
 2016         h1    105    ccc     H2   2016 0.10170000   1.008000   ; qtot 0.179399
 2017         c3    105    ccc     C2   2017 0.52570000  12.010000   ; qtot 0.705099
 2018         h1    105    ccc     H3   2018 -0.02490000   1.008000   ; qtot 0.680199
 2019         h1    105    ccc     H4   2019 -0.02490000   1.008000   ; qtot 0.655299
 2020         n3    105    ccc     N1   2020 -1.33770000  14.010000   ; qtot -0.682401
 2021         hn    105    ccc     H5   2021 0.47210000   1.008000   ; qtot -0.210301
 2022         hn    105    ccc     H6   2022 0.47210000   1.008000   ; qtot 0.261799
 2023          n    105    ccc     N2   2023 -0.59180000  14.010000   ; qtot -0.330001
 2024         hn    105    ccc     H7   2024 0.33000000   1.008000   ; qtot -0.000001
; residue  106 ccc rtp ccc q 0.0
 2025         c3    106    ccc     C1   2025 -0.02400000  12.010000   ; qtot -0.024001
 2026         h1    106    ccc     H1   2026 0.10170000   1.008000   ; qtot 0.077699
 2027         h1    106    ccc     H2   2027 0.10170000   1.008000   ; qtot 0.179399
 2028         c3    106    ccc     C2   2028 0.52570000  12.010000   ; qtot 0.705099
 2029         h1    106    ccc     H3   2029 -0.02490000   1.008000   ; qtot 0.680199
 2030         h1    106    ccc     H4   2030 -0.02490000   1.008000   ; qtot 0.655299
 2031         n3    106    ccc     N1   2031 -1.33770000  14.010000   ; qtot -0.682401
 2032         hn    106    ccc     H5   2032 0.47210000   1.008000   ; qtot -0.210301
 2033         hn    106    ccc     H6   2033 0.47210000   1.008000   ; qtot 0.261799
 2034          n    106    ccc     N2   2034 -0.59180000  14.010000   ; qtot -0.330001
 2035         hn    106    ccc     H7   2035 0.33000000   1.008000   ; qtot -0.000001
; residue  107 ccc rtp ccc q 0.0
 2036         c3    107    ccc     C1   2036 -0.02400000  12.010000   ; qtot -0.024001
 2037         h1    107    ccc     H1   2037 0.10170000   1.008000   ; qtot 0.077699
 2038         h1    107    ccc     H2   2038 0.10170000   1.008000   ; qtot 0.179399
 2039         c3    107    ccc     C2   2039 0.52570000  12.010000   ; qtot 0.705099
 2040         h1    107    ccc     H3   2040 -0.02490000   1.008000   ; qtot 0.680199
 2041         h1    107    ccc     H4   2041 -0.02490000   1.008000   ; qtot 0.655299
 2042         n3    107    ccc     N1   2042 -1.33770000  14.010000   ; qtot -0.682401
 2043         hn    107    ccc     H5   2043 0.47210000   1.008000   ; qtot -0.210301
 2044         hn    107    ccc     H6   2044 0.47210000   1.008000   ; qtot 0.261799
 2045          n    107    ccc     N2   2045 -0.59180000  14.010000   ; qtot -0.330001
 2046         hn    107    ccc     H7   2046 0.33000000   1.008000   ; qtot -0.000001
; residue  108 ccc rtp ccc q 0.0
 2047         c3    108    ccc     C1   2047 -0.02400000  12.010000   ; qtot -0.024001
 2048         h1    108    ccc     H1   2048 0.10170000   1.008000   ; qtot 0.077699
 2049         h1    108    ccc     H2   2049 0.10170000   1.008000   ; qtot 0.179399
 2050         c3    108    ccc     C2   2050 0.52570000  12.010000   ; qtot 0.705099
 2051         h1    108    ccc     H3   2051 -0.02490000   1.008000   ; qtot 0.680199
 2052         h1    108    ccc     H4   2052 -0.02490000   1.008000   ; qtot 0.655299
 2053         n3    108    ccc     N1   2053 -1.33770000  14.010000   ; qtot -0.682401
 2054         hn    108    ccc     H5   2054 0.47210000   1.008000   ; qtot -0.210301
 2055         hn    108    ccc     H6   2055 0.47210000   1.008000   ; qtot 0.261799
 2056          n    108    ccc     N2   2056 -0.59180000  14.010000   ; qtot -0.330001
 2057         hn    108    ccc     H7   2057 0.33000000   1.008000   ; qtot -0.000001
; residue  109 ccc rtp ccc q 0.0
 2058         c3    109    ccc     C1   2058 -0.02400000  12.010000   ; qtot -0.024001
 2059         h1    109    ccc     H1   2059 0.10170000   1.008000   ; qtot 0.077699
 2060         h1    109    ccc     H2   2060 0.10170000   1.008000   ; qtot 0.179399
 2061         c3    109    ccc     C2   2061 0.52570000  12.010000   ; qtot 0.705099
 2062         h1    109    ccc     H3   2062 -0.02490000   1.008000   ; qtot 0.680199
 2063         h1    109    ccc     H4   2063 -0.02490000   1.008000   ; qtot 0.655299
 2064         n3    109    ccc     N1   2064 -1.33770000  14.010000   ; qtot -0.682401
 2065         hn    109    ccc     H5   2065 0.47210000   1.008000   ; qtot -0.210301
 2066         hn    109    ccc     H6   2066 0.47210000   1.008000   ; qtot 0.261799
 2067          n    109    ccc     N2   2067 -0.59180000  14.010000   ; qtot -0.330001
 2068         hn    109    ccc     H7   2068 0.33000000   1.008000   ; qtot -0.000001
; residue  110 ccc rtp ccc q 0.0
 2069         c3    110    ccc     C1   2069 -0.02400000  12.010000   ; qtot -0.024001
 2070         h1    110    ccc     H1   2070 0.10170000   1.008000   ; qtot 0.077699
 2071         h1    110    ccc     H2   2071 0.10170000   1.008000   ; qtot 0.179399
 2072         c3    110    ccc     C2   2072 0.52570000  12.010000   ; qtot 0.705099
 2073         h1    110    ccc     H3   2073 -0.02490000   1.008000   ; qtot 0.680199
 2074         h1    110    ccc     H4   2074 -0.02490000   1.008000   ; qtot 0.655299
 2075         n3    110    ccc     N1   2075 -1.33770000  14.010000   ; qtot -0.682401
 2076         hn    110    ccc     H5   2076 0.47210000   1.008000   ; qtot -0.210301
 2077         hn    110    ccc     H6   2077 0.47210000   1.008000   ; qtot 0.261799
 2078          n    110    ccc     N2   2078 -0.59180000  14.010000   ; qtot -0.330001
 2079         hn    110    ccc     H7   2079 0.33000000   1.008000   ; qtot -0.000001
; residue  111 ccc rtp ccc q 0.0
 2080         c3    111    ccc     C1   2080 -0.02400000  12.010000   ; qtot -0.024001
 2081         h1    111    ccc     H1   2081 0.10170000   1.008000   ; qtot 0.077699
 2082         h1    111    ccc     H2   2082 0.10170000   1.008000   ; qtot 0.179399
 2083         c3    111    ccc     C2   2083 0.52570000  12.010000   ; qtot 0.705099
 2084         h1    111    ccc     H3   2084 -0.02490000   1.008000   ; qtot 0.680199
 2085         h1    111    ccc     H4   2085 -0.02490000   1.008000   ; qtot 0.655299
 2086         n3    111    ccc     N1   2086 -1.33770000  14.010000   ; qtot -0.682401
 2087         hn    111    ccc     H5   2087 0.47210000   1.008000   ; qtot -0.210301
 2088         hn    111    ccc     H6   2088 0.47210000   1.008000   ; qtot 0.261799
 2089          n    111    ccc     N2   2089 -0.59180000  14.010000   ; qtot -0.330001
 2090         hn    111    ccc     H7   2090 0.33000000   1.008000   ; qtot -0.000001
; residue  112 ccc rtp ccc q 0.0
 2091         c3    112    ccc     C1   2091 -0.02400000  12.010000   ; qtot -0.024001
 2092         h1    112    ccc     H1   2092 0.10170000   1.008000   ; qtot 0.077699
 2093         h1    112    ccc     H2   2093 0.10170000   1.008000   ; qtot 0.179399
 2094         c3    112    ccc     C2   2094 0.52570000  12.010000   ; qtot 0.705099
 2095         h1    112    ccc     H3   2095 -0.02490000   1.008000   ; qtot 0.680199
 2096         h1    112    ccc     H4   2096 -0.02490000   1.008000   ; qtot 0.655299
 2097         n3    112    ccc     N1   2097 -1.33770000  14.010000   ; qtot -0.682401
 2098         hn    112    ccc     H5   2098 0.47210000   1.008000   ; qtot -0.210301
 2099         hn    112    ccc     H6   2099 0.47210000   1.008000   ; qtot 0.261799
 2100          n    112    ccc     N2   2100 -0.59180000  14.010000   ; qtot -0.330001
 2101         hn    112    ccc     H7   2101 0.33000000   1.008000   ; qtot -0.000001
; residue  113 ccc rtp ccc q 0.0
 2102         c3    113    ccc     C1   2102 -0.02400000  12.010000   ; qtot -0.024001
 2103         h1    113    ccc     H1   2103 0.10170000   1.008000   ; qtot 0.077699
 2104         h1    113    ccc     H2   2104 0.10170000   1.008000   ; qtot 0.179399
 2105         c3    113    ccc     C2   2105 0.52570000  12.010000   ; qtot 0.705099
 2106         h1    113    ccc     H3   2106 -0.02490000   1.008000   ; qtot 0.680199
 2107         h1    113    ccc     H4   2107 -0.02490000   1.008000   ; qtot 0.655299
 2108         n3    113    ccc     N1   2108 -1.33770000  14.010000   ; qtot -0.682401
 2109         hn    113    ccc     H5   2109 0.47210000   1.008000   ; qtot -0.210301
 2110         hn    113    ccc     H6   2110 0.47210000   1.008000   ; qtot 0.261799
 2111          n    113    ccc     N2   2111 -0.59180000  14.010000   ; qtot -0.330001
 2112         hn    113    ccc     H7   2112 0.33000000   1.008000   ; qtot -0.000001
; residue  114 ccc rtp ccc q 0.0
 2113         c3    114    ccc     C1   2113 -0.02400000  12.010000   ; qtot -0.024001
 2114         h1    114    ccc     H1   2114 0.10170000   1.008000   ; qtot 0.077699
 2115         h1    114    ccc     H2   2115 0.10170000   1.008000   ; qtot 0.179399
 2116         c3    114    ccc     C2   2116 0.52570000  12.010000   ; qtot 0.705099
 2117         h1    114    ccc     H3   2117 -0.02490000   1.008000   ; qtot 0.680199
 2118         h1    114    ccc     H4   2118 -0.02490000   1.008000   ; qtot 0.655299
 2119         n3    114    ccc     N1   2119 -1.33770000  14.010000   ; qtot -0.682401
 2120         hn    114    ccc     H5   2120 0.47210000   1.008000   ; qtot -0.210301
 2121         hn    114    ccc     H6   2121 0.47210000   1.008000   ; qtot 0.261799
 2122          n    114    ccc     N2   2122 -0.59180000  14.010000   ; qtot -0.330001
 2123         hn    114    ccc     H7   2123 0.33000000   1.008000   ; qtot -0.000001
; residue  115 ccc rtp ccc q 0.0
 2124         c3    115    ccc     C1   2124 -0.02400000  12.010000   ; qtot -0.024001
 2125         h1    115    ccc     H1   2125 0.10170000   1.008000   ; qtot 0.077699
 2126         h1    115    ccc     H2   2126 0.10170000   1.008000   ; qtot 0.179399
 2127         c3    115    ccc     C2   2127 0.52570000  12.010000   ; qtot 0.705099
 2128         h1    115    ccc     H3   2128 -0.02490000   1.008000   ; qtot 0.680199
 2129         h1    115    ccc     H4   2129 -0.02490000   1.008000   ; qtot 0.655299
 2130         n3    115    ccc     N1   2130 -1.33770000  14.010000   ; qtot -0.682401
 2131         hn    115    ccc     H5   2131 0.47210000   1.008000   ; qtot -0.210301
 2132         hn    115    ccc     H6   2132 0.47210000   1.008000   ; qtot 0.261799
 2133          n    115    ccc     N2   2133 -0.59180000  14.010000   ; qtot -0.330001
 2134         hn    115    ccc     H7   2134 0.33000000   1.008000   ; qtot -0.000001
; residue  116 ccc rtp ccc q 0.0
 2135         c3    116    ccc     C1   2135 -0.02400000  12.010000   ; qtot -0.024001
 2136         h1    116    ccc     H1   2136 0.10170000   1.008000   ; qtot 0.077699
 2137         h1    116    ccc     H2   2137 0.10170000   1.008000   ; qtot 0.179399
 2138         c3    116    ccc     C2   2138 0.52570000  12.010000   ; qtot 0.705099
 2139         h1    116    ccc     H3   2139 -0.02490000   1.008000   ; qtot 0.680199
 2140         h1    116    ccc     H4   2140 -0.02490000   1.008000   ; qtot 0.655299
 2141         n3    116    ccc     N1   2141 -1.33770000  14.010000   ; qtot -0.682401
 2142         hn    116    ccc     H5   2142 0.47210000   1.008000   ; qtot -0.210301
 2143         hn    116    ccc     H6   2143 0.47210000   1.008000   ; qtot 0.261799
 2144          n    116    ccc     N2   2144 -0.59180000  14.010000   ; qtot -0.330001
 2145         hn    116    ccc     H7   2145 0.33000000   1.008000   ; qtot -0.000001
; residue  117 ccc rtp ccc q 0.0
 2146         c3    117    ccc     C1   2146 -0.02400000  12.010000   ; qtot -0.024001
 2147         h1    117    ccc     H1   2147 0.10170000   1.008000   ; qtot 0.077699
 2148         h1    117    ccc     H2   2148 0.10170000   1.008000   ; qtot 0.179399
 2149         c3    117    ccc     C2   2149 0.52570000  12.010000   ; qtot 0.705099
 2150         h1    117    ccc     H3   2150 -0.02490000   1.008000   ; qtot 0.680199
 2151         h1    117    ccc     H4   2151 -0.02490000   1.008000   ; qtot 0.655299
 2152         n3    117    ccc     N1   2152 -1.33770000  14.010000   ; qtot -0.682401
 2153         hn    117    ccc     H5   2153 0.47210000   1.008000   ; qtot -0.210301
 2154         hn    117    ccc     H6   2154 0.47210000   1.008000   ; qtot 0.261799
 2155          n    117    ccc     N2   2155 -0.59180000  14.010000   ; qtot -0.330001
 2156         hn    117    ccc     H7   2156 0.33000000   1.008000   ; qtot -0.000001
; residue  118 ccc rtp ccc q 0.0
 2157         c3    118    ccc     C1   2157 -0.02400000  12.010000   ; qtot -0.024001
 2158         h1    118    ccc     H1   2158 0.10170000   1.008000   ; qtot 0.077699
 2159         h1    118    ccc     H2   2159 0.10170000   1.008000   ; qtot 0.179399
 2160         c3    118    ccc     C2   2160 0.52570000  12.010000   ; qtot 0.705099
 2161         h1    118    ccc     H3   2161 -0.02490000   1.008000   ; qtot 0.680199
 2162         h1    118    ccc     H4   2162 -0.02490000   1.008000   ; qtot 0.655299
 2163         n3    118    ccc     N1   2163 -1.33770000  14.010000   ; qtot -0.682401
 2164         hn    118    ccc     H5   2164 0.47210000   1.008000   ; qtot -0.210301
 2165         hn    118    ccc     H6   2165 0.47210000   1.008000   ; qtot 0.261799
 2166          n    118    ccc     N2   2166 -0.59180000  14.010000   ; qtot -0.330001
 2167         hn    118    ccc     H7   2167 0.33000000   1.008000   ; qtot -0.000001
; residue  119 ccc rtp ccc q 0.0
 2168         c3    119    ccc     C1   2168 -0.02400000  12.010000   ; qtot -0.024001
 2169         h1    119    ccc     H1   2169 0.10170000   1.008000   ; qtot 0.077699
 2170         h1    119    ccc     H2   2170 0.10170000   1.008000   ; qtot 0.179399
 2171         c3    119    ccc     C2   2171 0.52570000  12.010000   ; qtot 0.705099
 2172         h1    119    ccc     H3   2172 -0.02490000   1.008000   ; qtot 0.680199
 2173         h1    119    ccc     H4   2173 -0.02490000   1.008000   ; qtot 0.655299
 2174         n3    119    ccc     N1   2174 -1.33770000  14.010000   ; qtot -0.682401
 2175         hn    119    ccc     H5   2175 0.47210000   1.008000   ; qtot -0.210301
 2176         hn    119    ccc     H6   2176 0.47210000   1.008000   ; qtot 0.261799
 2177          n    119    ccc     N2   2177 -0.59180000  14.010000   ; qtot -0.330001
 2178         hn    119    ccc     H7   2178 0.33000000   1.008000   ; qtot -0.000001
; residue  120 ccc rtp ccc q 0.0
 2179         c3    120    ccc     C1   2179 -0.02400000  12.010000   ; qtot -0.024001
 2180         h1    120    ccc     H1   2180 0.10170000   1.008000   ; qtot 0.077699
 2181         h1    120    ccc     H2   2181 0.10170000   1.008000   ; qtot 0.179399
 2182         c3    120    ccc     C2   2182 0.52570000  12.010000   ; qtot 0.705099
 2183         h1    120    ccc     H3   2183 -0.02490000   1.008000   ; qtot 0.680199
 2184         h1    120    ccc     H4   2184 -0.02490000   1.008000   ; qtot 0.655299
 2185         n3    120    ccc     N1   2185 -1.33770000  14.010000   ; qtot -0.682401
 2186         hn    120    ccc     H5   2186 0.47210000   1.008000   ; qtot -0.210301
 2187         hn    120    ccc     H6   2187 0.47210000   1.008000   ; qtot 0.261799
 2188          n    120    ccc     N2   2188 -0.59180000  14.010000   ; qtot -0.330001
 2189         hn    120    ccc     H7   2189 0.33000000   1.008000   ; qtot -0.000001
; residue  121 ccc rtp ccc q 0.0
 2190         c3    121    ccc     C1   2190 -0.02400000  12.010000   ; qtot -0.024001
 2191         h1    121    ccc     H1   2191 0.10170000   1.008000   ; qtot 0.077699
 2192         h1    121    ccc     H2   2192 0.10170000   1.008000   ; qtot 0.179399
 2193         c3    121    ccc     C2   2193 0.52570000  12.010000   ; qtot 0.705099
 2194         h1    121    ccc     H3   2194 -0.02490000   1.008000   ; qtot 0.680199
 2195         h1    121    ccc     H4   2195 -0.02490000   1.008000   ; qtot 0.655299
 2196         n3    121    ccc     N1   2196 -1.33770000  14.010000   ; qtot -0.682401
 2197         hn    121    ccc     H5   2197 0.47210000   1.008000   ; qtot -0.210301
 2198         hn    121    ccc     H6   2198 0.47210000   1.008000   ; qtot 0.261799
 2199          n    121    ccc     N2   2199 -0.59180000  14.010000   ; qtot -0.330001
 2200         hn    121    ccc     H7   2200 0.33000000   1.008000   ; qtot -0.000001
; residue  122 ccc rtp ccc q 0.0
 2201         c3    122    ccc     C1   2201 -0.02400000  12.010000   ; qtot -0.024001
 2202         h1    122    ccc     H1   2202 0.10170000   1.008000   ; qtot 0.077699
 2203         h1    122    ccc     H2   2203 0.10170000   1.008000   ; qtot 0.179399
 2204         c3    122    ccc     C2   2204 0.52570000  12.010000   ; qtot 0.705099
 2205         h1    122    ccc     H3   2205 -0.02490000   1.008000   ; qtot 0.680199
 2206         h1    122    ccc     H4   2206 -0.02490000   1.008000   ; qtot 0.655299
 2207         n3    122    ccc     N1   2207 -1.33770000  14.010000   ; qtot -0.682401
 2208         hn    122    ccc     H5   2208 0.47210000   1.008000   ; qtot -0.210301
 2209         hn    122    ccc     H6   2209 0.47210000   1.008000   ; qtot 0.261799
 2210          n    122    ccc     N2   2210 -0.59180000  14.010000   ; qtot -0.330001
 2211         hn    122    ccc     H7   2211 0.33000000   1.008000   ; qtot -0.000001
; residue  123 ccc rtp ccc q 0.0
 2212         c3    123    ccc     C1   2212 -0.02400000  12.010000   ; qtot -0.024001
 2213         h1    123    ccc     H1   2213 0.10170000   1.008000   ; qtot 0.077699
 2214         h1    123    ccc     H2   2214 0.10170000   1.008000   ; qtot 0.179399
 2215         c3    123    ccc     C2   2215 0.52570000  12.010000   ; qtot 0.705099
 2216         h1    123    ccc     H3   2216 -0.02490000   1.008000   ; qtot 0.680199
 2217         h1    123    ccc     H4   2217 -0.02490000   1.008000   ; qtot 0.655299
 2218         n3    123    ccc     N1   2218 -1.33770000  14.010000   ; qtot -0.682401
 2219         hn    123    ccc     H5   2219 0.47210000   1.008000   ; qtot -0.210301
 2220         hn    123    ccc     H6   2220 0.47210000   1.008000   ; qtot 0.261799
 2221          n    123    ccc     N2   2221 -0.59180000  14.010000   ; qtot -0.330001
 2222         hn    123    ccc     H7   2222 0.33000000   1.008000   ; qtot -0.000001
; residue  124 ccc rtp ccc q 0.0
 2223         c3    124    ccc     C1   2223 -0.02400000  12.010000   ; qtot -0.024001
 2224         h1    124    ccc     H1   2224 0.10170000   1.008000   ; qtot 0.077699
 2225         h1    124    ccc     H2   2225 0.10170000   1.008000   ; qtot 0.179399
 2226         c3    124    ccc     C2   2226 0.52570000  12.010000   ; qtot 0.705099
 2227         h1    124    ccc     H3   2227 -0.02490000   1.008000   ; qtot 0.680199
 2228         h1    124    ccc     H4   2228 -0.02490000   1.008000   ; qtot 0.655299
 2229         n3    124    ccc     N1   2229 -1.33770000  14.010000   ; qtot -0.682401
 2230         hn    124    ccc     H5   2230 0.47210000   1.008000   ; qtot -0.210301
 2231         hn    124    ccc     H6   2231 0.47210000   1.008000   ; qtot 0.261799
 2232          n    124    ccc     N2   2232 -0.59180000  14.010000   ; qtot -0.330001
 2233         hn    124    ccc     H7   2233 0.33000000   1.008000   ; qtot -0.000001
; residue  125 ccc rtp ccc q 0.0
 2234         c3    125    ccc     C1   2234 -0.02400000  12.010000   ; qtot -0.024001
 2235         h1    125    ccc     H1   2235 0.10170000   1.008000   ; qtot 0.077699
 2236         h1    125    ccc     H2   2236 0.10170000   1.008000   ; qtot 0.179399
 2237         c3    125    ccc     C2   2237 0.52570000  12.010000   ; qtot 0.705099
 2238         h1    125    ccc     H3   2238 -0.02490000   1.008000   ; qtot 0.680199
 2239         h1    125    ccc     H4   2239 -0.02490000   1.008000   ; qtot 0.655299
 2240         n3    125    ccc     N1   2240 -1.33770000  14.010000   ; qtot -0.682401
 2241         hn    125    ccc     H5   2241 0.47210000   1.008000   ; qtot -0.210301
 2242         hn    125    ccc     H6   2242 0.47210000   1.008000   ; qtot 0.261799
 2243          n    125    ccc     N2   2243 -0.59180000  14.010000   ; qtot -0.330001
 2244         hn    125    ccc     H7   2244 0.33000000   1.008000   ; qtot -0.000001

[ bonds ]
;    ai     aj funct         c0         c1         c2         c3
      1      4     1   0.15375 251793.120000
      1      8     1   0.14647 272713.120000
      4      7     1   0.14647 272713.120000
      7     15     1   0.14647 272713.120000
      7     18     1   0.14647 272713.120000
      8      9     1   0.14647 272713.120000
      8     12     1   0.14647 272713.120000
      9     30     1   0.15375 251793.120000
     12     27     1   0.15375 251793.120000
     15     21     1   0.15375 251793.120000
     18     24     1   0.15375 251793.120000
     21     35     1   0.15241 261918.400000
     24     36     1   0.15241 261918.400000
     27     33     1   0.15241 261918.400000
     30     34     1   0.15241 261918.400000
     33     37     1   0.12183 533627.360000
     33     64     1   0.13789 357815.680000
     34     40     1   0.12183 533627.360000
     34     89     1   0.13789 357815.680000
     35     38     1   0.12183 533627.360000
     35    114     1   0.13789 357815.680000
     36     39     1   0.12183 533627.360000
     36    139     1   0.13789 357815.680000
     41     44     1   0.15375 251793.120000
     41     47     1   0.14647 272713.120000
     44     64     1   0.14619 275056.160000
     47     48     1   0.14647 272713.120000
     47     51     1   0.14647 272713.120000
     48     57     1   0.15375 251793.120000
     51     54     1   0.15375 251793.120000
     54     60     1   0.15241 261918.400000
     57     61     1   0.15241 261918.400000
     60     62     1   0.12183 533627.360000
     60    164     1   0.13789 357815.680000
     61     63     1   0.12183 533627.360000
     61    189     1   0.13789 357815.680000
     66     69     1   0.15375 251793.120000
     66     72     1   0.14647 272713.120000
     69     89     1   0.14619 275056.160000
     72     73     1   0.14647 272713.120000
     72     76     1   0.14647 272713.120000
     73     82     1   0.15375 251793.120000
     76     79     1   0.15375 251793.120000
     79     85     1   0.15241 261918.400000
     82     86     1   0.15241 261918.400000
     85     87     1   0.12183 533627.360000
     85    214     1   0.13789 357815.680000
     86     88     1   0.12183 533627.360000
     86    239     1   0.13789 357815.680000
     91     94     1   0.15375 251793.120000
     91     97     1   0.14647 272713.120000
     94    114     1   0.14619 275056.160000
     97     98     1   0.14647 272713.120000
     97    101     1   0.14647 272713.120000
     98    107     1   0.15375 251793.120000
    101    104     1   0.15375 251793.120000
    104    110     1   0.15241 261918.400000
    107    111     1   0.15241 261918.400000
    110    112     1   0.12183 533627.360000
    110    264     1   0.13789 357815.680000
    111    113     1   0.12183 533627.360000
    111    289     1   0.13789 357815.680000
    116    119     1   0.15375 251793.120000
    116    122     1   0.14647 272713.120000
    119    139     1   0.14619 275056.160000
    122    123     1   0.14647 272713.120000
    122    126     1   0.14647 272713.120000
    123    132     1   0.15375 251793.120000
    126    129     1   0.15375 251793.120000
    129    135     1   0.15241 261918.400000
    132    136     1   0.15241 261918.400000
    135    137     1   0.12183 533627.360000
    135    314     1   0.13789 357815.680000
    136    138     1   0.12183 533627.360000
    136    339     1   0.13789 357815.680000
    141    144     1   0.15375 251793.120000
    141    147     1   0.14647 272713.120000
    144    164     1   0.14619 275056.160000
    147    148     1   0.14647 272713.120000
    147    151     1   0.14647 272713.120000
    148    157     1   0.15375 251793.120000
    151    154     1   0.15375 251793.120000
    154    160     1   0.15241 261918.400000
    157    161     1   0.15241 261918.400000
    160    162     1   0.12183 533627.360000
    160    364     1   0.13789 357815.680000
    161    163     1   0.12183 533627.360000
    161    389     1   0.13789 357815.680000
    166    169     1   0.15375 251793.120000
    166    172     1   0.14647 272713.120000
    169    189     1   0.14619 275056.160000
    172    173     1   0.14647 272713.120000
    172    176     1   0.14647 272713.120000
    173    182     1   0.15375 251793.120000
    176    179     1   0.15375 251793.120000
    179    185     1   0.15241 261918.400000
    182    186     1   0.15241 261918.400000
    185    187     1   0.12183 533627.360000
    185    414     1   0.13789 357815.680000
    186    188     1   0.12183 533627.360000
    186    439     1   0.13789 357815.680000
    191    194     1   0.15375 251793.120000
    191    197     1   0.14647 272713.120000
    194    214     1   0.14619 275056.160000
    197    198     1   0.14647 272713.120000
    197    201     1   0.14647 272713.120000
    198    207     1   0.15375 251793.120000
    201    204     1   0.15375 251793.120000
    204    210     1   0.15241 261918.400000
    207    211     1   0.15241 261918.400000
    210    212     1   0.12183 533627.360000
    210    464     1   0.13789 357815.680000
    211    213     1   0.12183 533627.360000
    211    489     1   0.13789 357815.680000
    216    219     1   0.15375 251793.120000
    216    222     1   0.14647 272713.120000
    219    239     1   0.14619 275056.160000
    222    223     1   0.14647 272713.120000
    222    226     1   0.14647 272713.120000
    223    232     1   0.15375 251793.120000
    226    229     1   0.15375 251793.120000
    229    235     1   0.15241 261918.400000
    232    236     1   0.15241 261918.400000
    235    237     1   0.12183 533627.360000
    235    514     1   0.13789 357815.680000
    236    238     1   0.12183 533627.360000
    236    539     1   0.13789 357815.680000
    241    244     1   0.15375 251793.120000
    241    247     1   0.14647 272713.120000
    244    264     1   0.14619 275056.160000
    247    248     1   0.14647 272713.120000
    247    251     1   0.14647 272713.120000
    248    257     1   0.15375 251793.120000
    251    254     1   0.15375 251793.120000
    254    260     1   0.15241 261918.400000
    257    261     1   0.15241 261918.400000
    260    262     1   0.12183 533627.360000
    260    564     1   0.13789 357815.680000
    261    263     1   0.12183 533627.360000
    261    589     1   0.13789 357815.680000
    266    269     1   0.15375 251793.120000
    266    272     1   0.14647 272713.120000
    269    289     1   0.14619 275056.160000
    272    273     1   0.14647 272713.120000
    272    276     1   0.14647 272713.120000
    273    282     1   0.15375 251793.120000
    276    279     1   0.15375 251793.120000
    279    285     1   0.15241 261918.400000
    282    286     1   0.15241 261918.400000
    285    287     1   0.12183 533627.360000
    285    614     1   0.13789 357815.680000
    286    288     1   0.12183 533627.360000
    286    639     1   0.13789 357815.680000
    291    294     1   0.15375 251793.120000
    291    297     1   0.14647 272713.120000
    294    314     1   0.14619 275056.160000
    297    298     1   0.14647 272713.120000
    297    301     1   0.14647 272713.120000
    298    307     1   0.15375 251793.120000
    301    304     1   0.15375 251793.120000
    304    310     1   0.15241 261918.400000
    307    311     1   0.15241 261918.400000
    310    312     1   0.12183 533627.360000
    310    664     1   0.13789 357815.680000
    311    313     1   0.12183 533627.360000
    311    689     1   0.13789 357815.680000
    316    319     1   0.15375 251793.120000
    316    322     1   0.14647 272713.120000
    319    339     1   0.14619 275056.160000
    322    323     1   0.14647 272713.120000
    322    326     1   0.14647 272713.120000
    323    332     1   0.15375 251793.120000
    326    329     1   0.15375 251793.120000
    329    335     1   0.15241 261918.400000
    332    336     1   0.15241 261918.400000
    335    337     1   0.12183 533627.360000
    335    714     1   0.13789 357815.680000
    336    338     1   0.12183 533627.360000
    336    739     1   0.13789 357815.680000
    341    344     1   0.15375 251793.120000
    341    347     1   0.14647 272713.120000
    344    364     1   0.14619 275056.160000
    347    348     1   0.14647 272713.120000
    347    351     1   0.14647 272713.120000
    348    357     1   0.15375 251793.120000
    351    354     1   0.15375 251793.120000
    354    360     1   0.15241 261918.400000
    357    361     1   0.15241 261918.400000
    360    362     1   0.12183 533627.360000
    360    764     1   0.13789 357815.680000
    361    363     1   0.12183 533627.360000
    361    789     1   0.13789 357815.680000
    366    369     1   0.15375 251793.120000
    366    372     1   0.14647 272713.120000
    369    389     1   0.14619 275056.160000
    372    373     1   0.14647 272713.120000
    372    376     1   0.14647 272713.120000
    373    382     1   0.15375 251793.120000
    376    379     1   0.15375 251793.120000
    379    385     1   0.15241 261918.400000
    382    386     1   0.15241 261918.400000
    385    387     1   0.12183 533627.360000
    385    814     1   0.13789 357815.680000
    386    388     1   0.12183 533627.360000
    386    839     1   0.13789 357815.680000
    391    394     1   0.15375 251793.120000
    391    397     1   0.14647 272713.120000
    394    414     1   0.14619 275056.160000
    397    398     1   0.14647 272713.120000
    397    401     1   0.14647 272713.120000
    398    407     1   0.15375 251793.120000
    401    404     1   0.15375 251793.120000
    404    410     1   0.15241 261918.400000
    407    411     1   0.15241 261918.400000
    410    412     1   0.12183 533627.360000
    410    864     1   0.13789 357815.680000
    411    413     1   0.12183 533627.360000
    411    889     1   0.13789 357815.680000
    416    419     1   0.15375 251793.120000
    416    422     1   0.14647 272713.120000
    419    439     1   0.14619 275056.160000
    422    423     1   0.14647 272713.120000
    422    426     1   0.14647 272713.120000
    423    432     1   0.15375 251793.120000
    426    429     1   0.15375 251793.120000
    429    435     1   0.15241 261918.400000
    432    436     1   0.15241 261918.400000
    435    437     1   0.12183 533627.360000
    435    914     1   0.13789 357815.680000
    436    438     1   0.12183 533627.360000
    436    939     1   0.13789 357815.680000
    441    444     1   0.15375 251793.120000
    441    447     1   0.14647 272713.120000
    444    464     1   0.14619 275056.160000
    447    448     1   0.14647 272713.120000
    447    451     1   0.14647 272713.120000
    448    457     1   0.15375 251793.120000
    451    454     1   0.15375 251793.120000
    454    460     1   0.15241 261918.400000
    457    461     1   0.15241 261918.400000
    460    462     1   0.12183 533627.360000
    460    964     1   0.13789 357815.680000
    461    463     1   0.12183 533627.360000
    461    989     1   0.13789 357815.680000
    466    469     1   0.15375 251793.120000
    466    472     1   0.14647 272713.120000
    469    489     1   0.14619 275056.160000
    472    473     1   0.14647 272713.120000
    472    476     1   0.14647 272713.120000
    473    482     1   0.15375 251793.120000
    476    479     1   0.15375 251793.120000
    479    485     1   0.15241 261918.400000
    482    486     1   0.15241 261918.400000
    485    487     1   0.12183 533627.360000
    485   1014     1   0.13789 357815.680000
    486    488     1   0.12183 533627.360000
    486   1039     1   0.13789 357815.680000
    491    494     1   0.15375 251793.120000
    491    497     1   0.14647 272713.120000
    494    514     1   0.14619 275056.160000
    497    498     1   0.14647 272713.120000
    497    501     1   0.14647 272713.120000
    498    507     1   0.15375 251793.120000
    501    504     1   0.15375 251793.120000
    504    510     1   0.15241 261918.400000
    507    511     1   0.15241 261918.400000
    510    512     1   0.12183 533627.360000
    510   1064     1   0.13789 357815.680000
    511    513     1   0.12183 533627.360000
    511   1089     1   0.13789 357815.680000
    516    519     1   0.15375 251793.120000
    516    522     1   0.14647 272713.120000
    519    539     1   0.14619 275056.160000
    522    523     1   0.14647 272713.120000
    522    526     1   0.14647 272713.120000
    523    532     1   0.15375 251793.120000
    526    529     1   0.15375 251793.120000
    529    535     1   0.15241 261918.400000
    532    536     1   0.15241 261918.400000
    535    537     1   0.12183 533627.360000
    535   1114     1   0.13789 357815.680000
    536    538     1   0.12183 533627.360000
    536   1139     1   0.13789 357815.680000
    541    544     1   0.15375 251793.120000
    541    547     1   0.14647 272713.120000
    544    564     1   0.14619 275056.160000
    547    548     1   0.14647 272713.120000
    547    551     1   0.14647 272713.120000
    548    557     1   0.15375 251793.120000
    551    554     1   0.15375 251793.120000
    554    560     1   0.15241 261918.400000
    557    561     1   0.15241 261918.400000
    560    562     1   0.12183 533627.360000
    560   1164     1   0.13789 357815.680000
    561    563     1   0.12183 533627.360000
    561   1189     1   0.13789 357815.680000
    566    569     1   0.15375 251793.120000
    566    572     1   0.14647 272713.120000
    569    589     1   0.14619 275056.160000
    572    573     1   0.14647 272713.120000
    572    576     1   0.14647 272713.120000
    573    582     1   0.15375 251793.120000
    576    579     1   0.15375 251793.120000
    579    585     1   0.15241 261918.400000
    582    586     1   0.15241 261918.400000
    585    587     1   0.12183 533627.360000
    585   1214     1   0.13789 357815.680000
    586    588     1   0.12183 533627.360000
    586   1239     1   0.13789 357815.680000
    591    594     1   0.15375 251793.120000
    591    597     1   0.14647 272713.120000
    594    614     1   0.14619 275056.160000
    597    598     1   0.14647 272713.120000
    597    601     1   0.14647 272713.120000
    598    607     1   0.15375 251793.120000
    601    604     1   0.15375 251793.120000
    604    610     1   0.15241 261918.400000
    607    611     1   0.15241 261918.400000
    610    612     1   0.12183 533627.360000
    610   1264     1   0.13789 357815.680000
    611    613     1   0.12183 533627.360000
    611   1289     1   0.13789 357815.680000
    616    619     1   0.15375 251793.120000
    616    622     1   0.14647 272713.120000
    619    639     1   0.14619 275056.160000
    622    623     1   0.14647 272713.120000
    622    626     1   0.14647 272713.120000
    623    632     1   0.15375 251793.120000
    626    629     1   0.15375 251793.120000
    629    635     1   0.15241 261918.400000
    632    636     1   0.15241 261918.400000
    635    637     1   0.12183 533627.360000
    635   1314     1   0.13789 357815.680000
    636    638     1   0.12183 533627.360000
    636   1339     1   0.13789 357815.680000
    641    644     1   0.15375 251793.120000
    641    647     1   0.14647 272713.120000
    644    664     1   0.14619 275056.160000
    647    648     1   0.14647 272713.120000
    647    651     1   0.14647 272713.120000
    648    657     1   0.15375 251793.120000
    651    654     1   0.15375 251793.120000
    654    660     1   0.15241 261918.400000
    657    661     1   0.15241 261918.400000
    660    662     1   0.12183 533627.360000
    660   1364     1   0.13789 357815.680000
    661    663     1   0.12183 533627.360000
    661   1389     1   0.13789 357815.680000
    666    669     1   0.15375 251793.120000
    666    672     1   0.14647 272713.120000
    669    689     1   0.14619 275056.160000
    672    673     1   0.14647 272713.120000
    672    676     1   0.14647 272713.120000
    673    682     1   0.15375 251793.120000
    676    679     1   0.15375 251793.120000
    679    685     1   0.15241 261918.400000
    682    686     1   0.15241 261918.400000
    685    687     1   0.12183 533627.360000
    685   1414     1   0.13789 357815.680000
    686    688     1   0.12183 533627.360000
    686   1439     1   0.13789 357815.680000
    691    694     1   0.15375 251793.120000
    691    697     1   0.14647 272713.120000
    694    714     1   0.14619 275056.160000
    697    698     1   0.14647 272713.120000
    697    701     1   0.14647 272713.120000
    698    707     1   0.15375 251793.120000
    701    704     1   0.15375 251793.120000
    704    710     1   0.15241 261918.400000
    707    711     1   0.15241 261918.400000
    710    712     1   0.12183 533627.360000
    710   1464     1   0.13789 357815.680000
    711    713     1   0.12183 533627.360000
    711   1489     1   0.13789 357815.680000
    716    719     1   0.15375 251793.120000
    716    722     1   0.14647 272713.120000
    719    739     1   0.14619 275056.160000
    722    723     1   0.14647 272713.120000
    722    726     1   0.14647 272713.120000
    723    732     1   0.15375 251793.120000
    726    729     1   0.15375 251793.120000
    729    735     1   0.15241 261918.400000
    732    736     1   0.15241 261918.400000
    735    737     1   0.12183 533627.360000
    735   1514     1   0.13789 357815.680000
    736    738     1   0.12183 533627.360000
    736   1539     1   0.13789 357815.680000
    741    744     1   0.15375 251793.120000
    741    747     1   0.14647 272713.120000
    744    764     1   0.14619 275056.160000
    747    748     1   0.14647 272713.120000
    747    751     1   0.14647 272713.120000
    748    757     1   0.15375 251793.120000
    751    754     1   0.15375 251793.120000
    754    760     1   0.15241 261918.400000
    757    761     1   0.15241 261918.400000
    760   1550     1   0.13789 357815.680000
    760    762     1   0.12183 533627.360000
    761    763     1   0.12183 533627.360000
    761   1561     1   0.13789 357815.680000
    766    769     1   0.15375 251793.120000
    766    772     1   0.14647 272713.120000
    769    789     1   0.14619 275056.160000
    772    773     1   0.14647 272713.120000
    772    776     1   0.14647 272713.120000
    773    782     1   0.15375 251793.120000
    776    779     1   0.15375 251793.120000
    779    785     1   0.15241 261918.400000
    782    786     1   0.15241 261918.400000
    785   1572     1   0.13789 357815.680000
    785    787     1   0.12183 533627.360000
    786    788     1   0.12183 533627.360000
    786   1583     1   0.13789 357815.680000
    791    794     1   0.15375 251793.120000
    791    797     1   0.14647 272713.120000
    794    814     1   0.14619 275056.160000
    797    798     1   0.14647 272713.120000
    797    801     1   0.14647 272713.120000
    798    807     1   0.15375 251793.120000
    801    804     1   0.15375 251793.120000
    804    810     1   0.15241 261918.400000
    807    811     1   0.15241 261918.400000
    810   1594     1   0.13789 357815.680000
    810    812     1   0.12183 533627.360000
    811    813     1   0.12183 533627.360000
    811   1605     1   0.13789 357815.680000
    816    819     1   0.15375 251793.120000
    816    822     1   0.14647 272713.120000
    819    839     1   0.14619 275056.160000
    822    823     1   0.14647 272713.120000
    822    826     1   0.14647 272713.120000
    823    832     1   0.15375 251793.120000
    826    829     1   0.15375 251793.120000
    829    835     1   0.15241 261918.400000
    832    836     1   0.15241 261918.400000
    835   1616     1   0.13789 357815.680000
    835    837     1   0.12183 533627.360000
    836    838     1   0.12183 533627.360000
    836   1627     1   0.13789 357815.680000
    841    844     1   0.15375 251793.120000
    841    847     1   0.14647 272713.120000
    844    864     1   0.14619 275056.160000
    847    848     1   0.14647 272713.120000
    847    851     1   0.14647 272713.120000
    848    857     1   0.15375 251793.120000
    851    854     1   0.15375 251793.120000
    854    860     1   0.15241 261918.400000
    857    861     1   0.15241 261918.400000
    860   1638     1   0.13789 357815.680000
    860    862     1   0.12183 533627.360000
    861    863     1   0.12183 533627.360000
    861   1649     1   0.13789 357815.680000
    866    869     1   0.15375 251793.120000
    866    872     1   0.14647 272713.120000
    869    889     1   0.14619 275056.160000
    872    873     1   0.14647 272713.120000
    872    876     1   0.14647 272713.120000
    873    882     1   0.15375 251793.120000
    876    879     1   0.15375 251793.120000
    879    885     1   0.15241 261918.400000
    882    886     1   0.15241 261918.400000
    885   1660     1   0.13789 357815.680000
    885    887     1   0.12183 533627.360000
    886    888     1   0.12183 533627.360000
    886   1671     1   0.13789 357815.680000
    891    894     1   0.15375 251793.120000
    891    897     1   0.14647 272713.120000
    894    914     1   0.14619 275056.160000
    897    898     1   0.14647 272713.120000
    897    901     1   0.14647 272713.120000
    898    907     1   0.15375 251793.120000
    901    904     1   0.15375 251793.120000
    904    910     1   0.15241 261918.400000
    907    911     1   0.15241 261918.400000
    910   1682     1   0.13789 357815.680000
    910    912     1   0.12183 533627.360000
    911    913     1   0.12183 533627.360000
    911   1693     1   0.13789 357815.680000
    916    919     1   0.15375 251793.120000
    916    922     1   0.14647 272713.120000
    919    939     1   0.14619 275056.160000
    922    923     1   0.14647 272713.120000
    922    926     1   0.14647 272713.120000
    923    932     1   0.15375 251793.120000
    926    929     1   0.15375 251793.120000
    929    935     1   0.15241 261918.400000
    932    936     1   0.15241 261918.400000
    935   1704     1   0.13789 357815.680000
    935    937     1   0.12183 533627.360000
    936    938     1   0.12183 533627.360000
    936   1715     1   0.13789 357815.680000
    941    944     1   0.15375 251793.120000
    941    947     1   0.14647 272713.120000
    944    964     1   0.14619 275056.160000
    947    948     1   0.14647 272713.120000
    947    951     1   0.14647 272713.120000
    948    957     1   0.15375 251793.120000
    951    954     1   0.15375 251793.120000
    954    960     1   0.15241 261918.400000
    957    961     1   0.15241 261918.400000
    960   1726     1   0.13789 357815.680000
    960    962     1   0.12183 533627.360000
    961    963     1   0.12183 533627.360000
    961   1737     1   0.13789 357815.680000
    966    969     1   0.15375 251793.120000
    966    972     1   0.14647 272713.120000
    969    989     1   0.14619 275056.160000
    972    973     1   0.14647 272713.120000
    972    976     1   0.14647 272713.120000
    973    982     1   0.15375 251793.120000
    976    979     1   0.15375 251793.120000
    979    985     1   0.15241 261918.400000
    982    986     1   0.15241 261918.400000
    985   1748     1   0.13789 357815.680000
    985    987     1   0.12183 533627.360000
    986    988     1   0.12183 533627.360000
    986   1759     1   0.13789 357815.680000
    991    994     1   0.15375 251793.120000
    991    997     1   0.14647 272713.120000
    994   1014     1   0.14619 275056.160000
    997    998     1   0.14647 272713.120000
    997   1001     1   0.14647 272713.120000
    998   1007     1   0.15375 251793.120000
   1001   1004     1   0.15375 251793.120000
   1004   1010     1   0.15241 261918.400000
   1007   1011     1   0.15241 261918.400000
   1010   1770     1   0.13789 357815.680000
   1010   1012     1   0.12183 533627.360000
   1011   1013     1   0.12183 533627.360000
   1011   1781     1   0.13789 357815.680000
   1016   1019     1   0.15375 251793.120000
   1016   1022     1   0.14647 272713.120000
   1019   1039     1   0.14619 275056.160000
   1022   1023     1   0.14647 272713.120000
   1022   1026     1   0.14647 272713.120000
   1023   1032     1   0.15375 251793.120000
   1026   1029     1   0.15375 251793.120000
   1029   1035     1   0.15241 261918.400000
   1032   1036     1   0.15241 261918.400000
   1035   1792     1   0.13789 357815.680000
   1035   1037     1   0.12183 533627.360000
   1036   1038     1   0.12183 533627.360000
   1036   1803     1   0.13789 357815.680000
   1041   1044     1   0.15375 251793.120000
   1041   1047     1   0.14647 272713.120000
   1044   1064     1   0.14619 275056.160000
   1047   1048     1   0.14647 272713.120000
   1047   1051     1   0.14647 272713.120000
   1048   1057     1   0.15375 251793.120000
   1051   1054     1   0.15375 251793.120000
   1054   1060     1   0.15241 261918.400000
   1057   1061     1   0.15241 261918.400000
   1060   1814     1   0.13789 357815.680000
   1060   1062     1   0.12183 533627.360000
   1061   1063     1   0.12183 533627.360000
   1061   1825     1   0.13789 357815.680000
   1066   1069     1   0.15375 251793.120000
   1066   1072     1   0.14647 272713.120000
   1069   1089     1   0.14619 275056.160000
   1072   1073     1   0.14647 272713.120000
   1072   1076     1   0.14647 272713.120000
   1073   1082     1   0.15375 251793.120000
   1076   1079     1   0.15375 251793.120000
   1079   1085     1   0.15241 261918.400000
   1082   1086     1   0.15241 261918.400000
   1085   1836     1   0.13789 357815.680000
   1085   1087     1   0.12183 533627.360000
   1086   1088     1   0.12183 533627.360000
   1086   1847     1   0.13789 357815.680000
   1091   1094     1   0.15375 251793.120000
   1091   1097     1   0.14647 272713.120000
   1094   1114     1   0.14619 275056.160000
   1097   1098     1   0.14647 272713.120000
   1097   1101     1   0.14647 272713.120000
   1098   1107     1   0.15375 251793.120000
   1101   1104     1   0.15375 251793.120000
   1104   1110     1   0.15241 261918.400000
   1107   1111     1   0.15241 261918.400000
   1110   1858     1   0.13789 357815.680000
   1110   1112     1   0.12183 533627.360000
   1111   1113     1   0.12183 533627.360000
   1111   1869     1   0.13789 357815.680000
   1116   1119     1   0.15375 251793.120000
   1116   1122     1   0.14647 272713.120000
   1119   1139     1   0.14619 275056.160000
   1122   1123     1   0.14647 272713.120000
   1122   1126     1   0.14647 272713.120000
   1123   1132     1   0.15375 251793.120000
   1126   1129     1   0.15375 251793.120000
   1129   1135     1   0.15241 261918.400000
   1132   1136     1   0.15241 261918.400000
   1135   1880     1   0.13789 357815.680000
   1135   1137     1   0.12183 533627.360000
   1136   1138     1   0.12183 533627.360000
   1136   1891     1   0.13789 357815.680000
   1141   1144     1   0.15375 251793.120000
   1141   1147     1   0.14647 272713.120000
   1144   1164     1   0.14619 275056.160000
   1147   1148     1   0.14647 272713.120000
   1147   1151     1   0.14647 272713.120000
   1148   1157     1   0.15375 251793.120000
   1151   1154     1   0.15375 251793.120000
   1154   1160     1   0.15241 261918.400000
   1157   1161     1   0.15241 261918.400000
   1160   1902     1   0.13789 357815.680000
   1160   1162     1   0.12183 533627.360000
   1161   1163     1   0.12183 533627.360000
   1161   1913     1   0.13789 357815.680000
   1166   1169     1   0.15375 251793.120000
   1166   1172     1   0.14647 272713.120000
   1169   1189     1   0.14619 275056.160000
   1172   1173     1   0.14647 272713.120000
   1172   1176     1   0.14647 272713.120000
   1173   1182     1   0.15375 251793.120000
   1176   1179     1   0.15375 251793.120000
   1179   1185     1   0.15241 261918.400000
   1182   1186     1   0.15241 261918.400000
   1185   1924     1   0.13789 357815.680000
   1185   1187     1   0.12183 533627.360000
   1186   1188     1   0.12183 533627.360000
   1186   1935     1   0.13789 357815.680000
   1191   1194     1   0.15375 251793.120000
   1191   1197     1   0.14647 272713.120000
   1194   1214     1   0.14619 275056.160000
   1197   1198     1   0.14647 272713.120000
   1197   1201     1   0.14647 272713.120000
   1198   1207     1   0.15375 251793.120000
   1201   1204     1   0.15375 251793.120000
   1204   1210     1   0.15241 261918.400000
   1207   1211     1   0.15241 261918.400000
   1210   1946     1   0.13789 357815.680000
   1210   1212     1   0.12183 533627.360000
   1211   1213     1   0.12183 533627.360000
   1211   1957     1   0.13789 357815.680000
   1216   1219     1   0.15375 251793.120000
   1216   1222     1   0.14647 272713.120000
   1219   1239     1   0.14619 275056.160000
   1222   1223     1   0.14647 272713.120000
   1222   1226     1   0.14647 272713.120000
   1223   1232     1   0.15375 251793.120000
   1226   1229     1   0.15375 251793.120000
   1229   1235     1   0.15241 261918.400000
   1232   1236     1   0.15241 261918.400000
   1235   1968     1   0.13789 357815.680000
   1235   1237     1   0.12183 533627.360000
   1236   1238     1   0.12183 533627.360000
   1236   1979     1   0.13789 357815.680000
   1241   1244     1   0.15375 251793.120000
   1241   1247     1   0.14647 272713.120000
   1244   1264     1   0.14619 275056.160000
   1247   1248     1   0.14647 272713.120000
   1247   1251     1   0.14647 272713.120000
   1248   1257     1   0.15375 251793.120000
   1251   1254     1   0.15375 251793.120000
   1254   1260     1   0.15241 261918.400000
   1257   1261     1   0.15241 261918.400000
   1260   1990     1   0.13789 357815.680000
   1260   1262     1   0.12183 533627.360000
   1261   1263     1   0.12183 533627.360000
   1261   2001     1   0.13789 357815.680000
   1266   1269     1   0.15375 251793.120000
   1266   1272     1   0.14647 272713.120000
   1269   1289     1   0.14619 275056.160000
   1272   1273     1   0.14647 272713.120000
   1272   1276     1   0.14647 272713.120000
   1273   1282     1   0.15375 251793.120000
   1276   1279     1   0.15375 251793.120000
   1279   1285     1   0.15241 261918.400000
   1282   1286     1   0.15241 261918.400000
   1285   2012     1   0.13789 357815.680000
   1285   1287     1   0.12183 533627.360000
   1286   1288     1   0.12183 533627.360000
   1286   2023     1   0.13789 357815.680000
   1291   1294     1   0.15375 251793.120000
   1291   1297     1   0.14647 272713.120000
   1294   1314     1   0.14619 275056.160000
   1297   1298     1   0.14647 272713.120000
   1297   1301     1   0.14647 272713.120000
   1298   1307     1   0.15375 251793.120000
   1301   1304     1   0.15375 251793.120000
   1304   1310     1   0.15241 261918.400000
   1307   1311     1   0.15241 261918.400000
   1310   2034     1   0.13789 357815.680000
   1310   1312     1   0.12183 533627.360000
   1311   1313     1   0.12183 533627.360000
   1311   2045     1   0.13789 357815.680000
   1316   1319     1   0.15375 251793.120000
   1316   1322     1   0.14647 272713.120000
   1319   1339     1   0.14619 275056.160000
   1322   1323     1   0.14647 272713.120000
   1322   1326     1   0.14647 272713.120000
   1323   1332     1   0.15375 251793.120000
   1326   1329     1   0.15375 251793.120000
   1329   1335     1   0.15241 261918.400000
   1332   1336     1   0.15241 261918.400000
   1335   2056     1   0.13789 357815.680000
   1335   1337     1   0.12183 533627.360000
   1336   1338     1   0.12183 533627.360000
   1336   2067     1   0.13789 357815.680000
   1341   1344     1   0.15375 251793.120000
   1341   1347     1   0.14647 272713.120000
   1344   1364     1   0.14619 275056.160000
   1347   1348     1   0.14647 272713.120000
   1347   1351     1   0.14647 272713.120000
   1348   1357     1   0.15375 251793.120000
   1351   1354     1   0.15375 251793.120000
   1354   1360     1   0.15241 261918.400000
   1357   1361     1   0.15241 261918.400000
   1360   2078     1   0.13789 357815.680000
   1360   1362     1   0.12183 533627.360000
   1361   1363     1   0.12183 533627.360000
   1361   2089     1   0.13789 357815.680000
   1366   1369     1   0.15375 251793.120000
   1366   1372     1   0.14647 272713.120000
   1369   1389     1   0.14619 275056.160000
   1372   1373     1   0.14647 272713.120000
   1372   1376     1   0.14647 272713.120000
   1373   1382     1   0.15375 251793.120000
   1376   1379     1   0.15375 251793.120000
   1379   1385     1   0.15241 261918.400000
   1382   1386     1   0.15241 261918.400000
   1385   2100     1   0.13789 357815.680000
   1385   1387     1   0.12183 533627.360000
   1386   1388     1   0.12183 533627.360000
   1386   2111     1   0.13789 357815.680000
   1391   1394     1   0.15375 251793.120000
   1391   1397     1   0.14647 272713.120000
   1394   1414     1   0.14619 275056.160000
   1397   1398     1   0.14647 272713.120000
   1397   1401     1   0.14647 272713.120000
   1398   1407     1   0.15375 251793.120000
   1401   1404     1   0.15375 251793.120000
   1404   1410     1   0.15241 261918.400000
   1407   1411     1   0.15241 261918.400000
   1410   2122     1   0.13789 357815.680000
   1410   1412     1   0.12183 533627.360000
   1411   1413     1   0.12183 533627.360000
   1411   2133     1   0.13789 357815.680000
   1416   1419     1   0.15375 251793.120000
   1416   1422     1   0.14647 272713.120000
   1419   1439     1   0.14619 275056.160000
   1422   1423     1   0.14647 272713.120000
   1422   1426     1   0.14647 272713.120000
   1423   1432     1   0.15375 251793.120000
   1426   1429     1   0.15375 251793.120000
   1429   1435     1   0.15241 261918.400000
   1432   1436     1   0.15241 261918.400000
   1435   2144     1   0.13789 357815.680000
   1435   1437     1   0.12183 533627.360000
   1436   1438     1   0.12183 533627.360000
   1436   2155     1   0.13789 357815.680000
   1441   1444     1   0.15375 251793.120000
   1441   1447     1   0.14647 272713.120000
   1444   1464     1   0.14619 275056.160000
   1447   1448     1   0.14647 272713.120000
   1447   1451     1   0.14647 272713.120000
   1448   1457     1   0.15375 251793.120000
   1451   1454     1   0.15375 251793.120000
   1454   1460     1   0.15241 261918.400000
   1457   1461     1   0.15241 261918.400000
   1460   2166     1   0.13789 357815.680000
   1460   1462     1   0.12183 533627.360000
   1461   1463     1   0.12183 533627.360000
   1461   2177     1   0.13789 357815.680000
   1466   1469     1   0.15375 251793.120000
   1466   1472     1   0.14647 272713.120000
   1469   1489     1   0.14619 275056.160000
   1472   1473     1   0.14647 272713.120000
   1472   1476     1   0.14647 272713.120000
   1473   1482     1   0.15375 251793.120000
   1476   1479     1   0.15375 251793.120000
   1479   1485     1   0.15241 261918.400000
   1482   1486     1   0.15241 261918.400000
   1485   2188     1   0.13789 357815.680000
   1485   1487     1   0.12183 533627.360000
   1486   1488     1   0.12183 533627.360000
   1486   2199     1   0.13789 357815.680000
   1491   1494     1   0.15375 251793.120000
   1491   1497     1   0.14647 272713.120000
   1494   1514     1   0.14619 275056.160000
   1497   1498     1   0.14647 272713.120000
   1497   1501     1   0.14647 272713.120000
   1498   1507     1   0.15375 251793.120000
   1501   1504     1   0.15375 251793.120000
   1504   1510     1   0.15241 261918.400000
   1507   1511     1   0.15241 261918.400000
   1510   2210     1   0.13789 357815.680000
   1510   1512     1   0.12183 533627.360000
   1511   1513     1   0.12183 533627.360000
   1511   2221     1   0.13789 357815.680000
   1516   1519     1   0.15375 251793.120000
   1516   1522     1   0.14647 272713.120000
   1519   1539     1   0.14619 275056.160000
   1522   1523     1   0.14647 272713.120000
   1522   1526     1   0.14647 272713.120000
   1523   1532     1   0.15375 251793.120000
   1526   1529     1   0.15375 251793.120000
   1529   1535     1   0.15241 261918.400000
   1532   1536     1   0.15241 261918.400000
   1535   2232     1   0.13789 357815.680000
   1535   1537     1   0.12183 533627.360000
   1536   2243     1   0.13789 357815.680000
   1536   1538     1   0.12183 533627.360000
   1541   1544     1   0.15375 251793.120000
   1541   1550     1   0.14619 275056.160000
   1544   1547     1   0.14647 272713.120000
   1552   1555     1   0.15375 251793.120000
   1552   1561     1   0.14619 275056.160000
   1555   1558     1   0.14647 272713.120000
   1563   1566     1   0.15375 251793.120000
   1563   1572     1   0.14619 275056.160000
   1566   1569     1   0.14647 272713.120000
   1574   1577     1   0.15375 251793.120000
   1574   1583     1   0.14619 275056.160000
   1577   1580     1   0.14647 272713.120000
   1585   1588     1   0.15375 251793.120000
   1585   1594     1   0.14619 275056.160000
   1588   1591     1   0.14647 272713.120000
   1596   1599     1   0.15375 251793.120000
   1596   1605     1   0.14619 275056.160000
   1599   1602     1   0.14647 272713.120000
   1607   1610     1   0.15375 251793.120000
   1607   1616     1   0.14619 275056.160000
   1610   1613     1   0.14647 272713.120000
   1618   1621     1   0.15375 251793.120000
   1618   1627     1   0.14619 275056.160000
   1621   1624     1   0.14647 272713.120000
   1629   1632     1   0.15375 251793.120000
   1629   1638     1   0.14619 275056.160000
   1632   1635     1   0.14647 272713.120000
   1640   1643     1   0.15375 251793.120000
   1640   1649     1   0.14619 275056.160000
   1643   1646     1   0.14647 272713.120000
   1651   1654     1   0.15375 251793.120000
   1651   1660     1   0.14619 275056.160000
   1654   1657     1   0.14647 272713.120000
   1662   1665     1   0.15375 251793.120000
   1662   1671     1   0.14619 275056.160000
   1665   1668     1   0.14647 272713.120000
   1673   1676     1   0.15375 251793.120000
   1673   1682     1   0.14619 275056.160000
   1676   1679     1   0.14647 272713.120000
   1684   1687     1   0.15375 251793.120000
   1684   1693     1   0.14619 275056.160000
   1687   1690     1   0.14647 272713.120000
   1695   1698     1   0.15375 251793.120000
   1695   1704     1   0.14619 275056.160000
   1698   1701     1   0.14647 272713.120000
   1706   1709     1   0.15375 251793.120000
   1706   1715     1   0.14619 275056.160000
   1709   1712     1   0.14647 272713.120000
   1717   1720     1   0.15375 251793.120000
   1717   1726     1   0.14619 275056.160000
   1720   1723     1   0.14647 272713.120000
   1728   1731     1   0.15375 251793.120000
   1728   1737     1   0.14619 275056.160000
   1731   1734     1   0.14647 272713.120000
   1739   1742     1   0.15375 251793.120000
   1739   1748     1   0.14619 275056.160000
   1742   1745     1   0.14647 272713.120000
   1750   1753     1   0.15375 251793.120000
   1750   1759     1   0.14619 275056.160000
   1753   1756     1   0.14647 272713.120000
   1761   1764     1   0.15375 251793.120000
   1761   1770     1   0.14619 275056.160000
   1764   1767     1   0.14647 272713.120000
   1772   1775     1   0.15375 251793.120000
   1772   1781     1   0.14619 275056.160000
   1775   1778     1   0.14647 272713.120000
   1783   1786     1   0.15375 251793.120000
   1783   1792     1   0.14619 275056.160000
   1786   1789     1   0.14647 272713.120000
   1794   1797     1   0.15375 251793.120000
   1794   1803     1   0.14619 275056.160000
   1797   1800     1   0.14647 272713.120000
   1805   1808     1   0.15375 251793.120000
   1805   1814     1   0.14619 275056.160000
   1808   1811     1   0.14647 272713.120000
   1816   1819     1   0.15375 251793.120000
   1816   1825     1   0.14619 275056.160000
   1819   1822     1   0.14647 272713.120000
   1827   1830     1   0.15375 251793.120000
   1827   1836     1   0.14619 275056.160000
   1830   1833     1   0.14647 272713.120000
   1838   1841     1   0.15375 251793.120000
   1838   1847     1   0.14619 275056.160000
   1841   1844     1   0.14647 272713.120000
   1849   1852     1   0.15375 251793.120000
   1849   1858     1   0.14619 275056.160000
   1852   1855     1   0.14647 272713.120000
   1860   1863     1   0.15375 251793.120000
   1860   1869     1   0.14619 275056.160000
   1863   1866     1   0.14647 272713.120000
   1871   1874     1   0.15375 251793.120000
   1871   1880     1   0.14619 275056.160000
   1874   1877     1   0.14647 272713.120000
   1882   1885     1   0.15375 251793.120000
   1882   1891     1   0.14619 275056.160000
   1885   1888     1   0.14647 272713.120000
   1893   1896     1   0.15375 251793.120000
   1893   1902     1   0.14619 275056.160000
   1896   1899     1   0.14647 272713.120000
   1904   1907     1   0.15375 251793.120000
   1904   1913     1   0.14619 275056.160000
   1907   1910     1   0.14647 272713.120000
   1915   1918     1   0.15375 251793.120000
   1915   1924     1   0.14619 275056.160000
   1918   1921     1   0.14647 272713.120000
   1926   1929     1   0.15375 251793.120000
   1926   1935     1   0.14619 275056.160000
   1929   1932     1   0.14647 272713.120000
   1937   1940     1   0.15375 251793.120000
   1937   1946     1   0.14619 275056.160000
   1940   1943     1   0.14647 272713.120000
   1948   1951     1   0.15375 251793.120000
   1948   1957     1   0.14619 275056.160000
   1951   1954     1   0.14647 272713.120000
   1959   1962     1   0.15375 251793.120000
   1959   1968     1   0.14619 275056.160000
   1962   1965     1   0.14647 272713.120000
   1970   1973     1   0.15375 251793.120000
   1970   1979     1   0.14619 275056.160000
   1973   1976     1   0.14647 272713.120000
   1981   1984     1   0.15375 251793.120000
   1981   1990     1   0.14619 275056.160000
   1984   1987     1   0.14647 272713.120000
   1992   1995     1   0.15375 251793.120000
   1992   2001     1   0.14619 275056.160000
   1995   1998     1   0.14647 272713.120000
   2003   2006     1   0.15375 251793.120000
   2003   2012     1   0.14619 275056.160000
   2006   2009     1   0.14647 272713.120000
   2014   2017     1   0.15375 251793.120000
   2014   2023     1   0.14619 275056.160000
   2017   2020     1   0.14647 272713.120000
   2025   2028     1   0.15375 251793.120000
   2025   2034     1   0.14619 275056.160000
   2028   2031     1   0.14647 272713.120000
   2036   2039     1   0.15375 251793.120000
   2036   2045     1   0.14619 275056.160000
   2039   2042     1   0.14647 272713.120000
   2047   2050     1   0.15375 251793.120000
   2047   2056     1   0.14619 275056.160000
   2050   2053     1   0.14647 272713.120000
   2058   2061     1   0.15375 251793.120000
   2058   2067     1   0.14619 275056.160000
   2061   2064     1   0.14647 272713.120000
   2069   2072     1   0.15375 251793.120000
   2069   2078     1   0.14619 275056.160000
   2072   2075     1   0.14647 272713.120000
   2080   2083     1   0.15375 251793.120000
   2080   2089     1   0.14619 275056.160000
   2083   2086     1   0.14647 272713.120000
   2091   2094     1   0.15375 251793.120000
   2091   2100     1   0.14619 275056.160000
   2094   2097     1   0.14647 272713.120000
   2102   2105     1   0.15375 251793.120000
   2102   2111     1   0.14619 275056.160000
   2105   2108     1   0.14647 272713.120000
   2113   2116     1   0.15375 251793.120000
   2113   2122     1   0.14619 275056.160000
   2116   2119     1   0.14647 272713.120000
   2124   2127     1   0.15375 251793.120000
   2124   2133     1   0.14619 275056.160000
   2127   2130     1   0.14647 272713.120000
   2135   2138     1   0.15375 251793.120000
   2135   2144     1   0.14619 275056.160000
   2138   2141     1   0.14647 272713.120000
   2146   2149     1   0.15375 251793.120000
   2146   2155     1   0.14619 275056.160000
   2149   2152     1   0.14647 272713.120000
   2157   2160     1   0.15375 251793.120000
   2157   2166     1   0.14619 275056.160000
   2160   2163     1   0.14647 272713.120000
   2168   2171     1   0.15375 251793.120000
   2168   2177     1   0.14619 275056.160000
   2171   2174     1   0.14647 272713.120000
   2179   2182     1   0.15375 251793.120000
   2179   2188     1   0.14619 275056.160000
   2182   2185     1   0.14647 272713.120000
   2190   2193     1   0.15375 251793.120000
   2190   2199     1   0.14619 275056.160000
   2193   2196     1   0.14647 272713.120000
   2201   2204     1   0.15375 251793.120000
   2201   2210     1   0.14619 275056.160000
   2204   2207     1   0.14647 272713.120000
   2212   2215     1   0.15375 251793.120000
   2212   2221     1   0.14619 275056.160000
   2215   2218     1   0.14647 272713.120000
   2223   2226     1   0.15375 251793.120000
   2223   2232     1   0.14619 275056.160000
   2226   2229     1   0.14647 272713.120000
   2234   2237     1   0.15375 251793.120000
   2234   2243     1   0.14619 275056.160000
   2237   2240     1   0.14647 272713.120000
      1      2     1   0.10969 276646.080000
      1      3     1   0.10969 276646.080000
      4      5     1   0.10969 276646.080000
      4      6     1   0.10969 276646.080000
      9     10     1   0.10969 276646.080000
      9     11     1   0.10969 276646.080000
     12     13     1   0.10969 276646.080000
     12     14     1   0.10969 276646.080000
     15     16     1   0.10969 276646.080000
     15     17     1   0.10969 276646.080000
     18     19     1   0.10969 276646.080000
     18     20     1   0.10969 276646.080000
     21     22     1   0.10969 276646.080000
     21     23     1   0.10969 276646.080000
     24     25     1   0.10969 276646.080000
     24     26     1   0.10969 276646.080000
     27     28     1   0.10969 276646.080000
     27     29     1   0.10969 276646.080000
     30     31     1   0.10969 276646.080000
     30     32     1   0.10969 276646.080000
     41     42     1   0.10969 276646.080000
     41     43     1   0.10969 276646.080000
     44     45     1   0.10969 276646.080000
     44     46     1   0.10969 276646.080000
     48     49     1   0.10969 276646.080000
     48     50     1   0.10969 276646.080000
     51     52     1   0.10969 276646.080000
     51     53     1   0.10969 276646.080000
     54     55     1   0.10969 276646.080000
     54     56     1   0.10969 276646.080000
     57     58     1   0.10969 276646.080000
     57     59     1   0.10969 276646.080000
     64     65     1   0.10129 337397.760000
     66     67     1   0.10969 276646.080000
     66     68     1   0.10969 276646.080000
     69     70     1   0.10969 276646.080000
     69     71     1   0.10969 276646.080000
     73     74     1   0.10969 276646.080000
     73     75     1   0.10969 276646.080000
     76     77     1   0.10969 276646.080000
     76     78     1   0.10969 276646.080000
     79     80     1   0.10969 276646.080000
     79     81     1   0.10969 276646.080000
     82     83     1   0.10969 276646.080000
     82     84     1   0.10969 276646.080000
     89     90     1   0.10129 337397.760000
     91     92     1   0.10969 276646.080000
     91     93     1   0.10969 276646.080000
     94     95     1   0.10969 276646.080000
     94     96     1   0.10969 276646.080000
     98     99     1   0.10969 276646.080000
     98    100     1   0.10969 276646.080000
    101    102     1   0.10969 276646.080000
    101    103     1   0.10969 276646.080000
    104    105     1   0.10969 276646.080000
    104    106     1   0.10969 276646.080000
    107    108     1   0.10969 276646.080000
    107    109     1   0.10969 276646.080000
    114    115     1   0.10129 337397.760000
    116    117     1   0.10969 276646.080000
    116    118     1   0.10969 276646.080000
    119    120     1   0.10969 276646.080000
    119    121     1   0.10969 276646.080000
    123    124     1   0.10969 276646.080000
    123    125     1   0.10969 276646.080000
    126    127     1   0.10969 276646.080000
    126    128     1   0.10969 276646.080000
    129    130     1   0.10969 276646.080000
    129    131     1   0.10969 276646.080000
    132    133     1   0.10969 276646.080000
    132    134     1   0.10969 276646.080000
    139    140     1   0.10129 337397.760000
    141    142     1   0.10969 276646.080000
    141    143     1   0.10969 276646.080000
    144    145     1   0.10969 276646.080000
    144    146     1   0.10969 276646.080000
    148    149     1   0.10969 276646.080000
    148    150     1   0.10969 276646.080000
    151    152     1   0.10969 276646.080000
    151    153     1   0.10969 276646.080000
    154    155     1   0.10969 276646.080000
    154    156     1   0.10969 276646.080000
    157    158     1   0.10969 276646.080000
    157    159     1   0.10969 276646.080000
    164    165     1   0.10129 337397.760000
    166    167     1   0.10969 276646.080000
    166    168     1   0.10969 276646.080000
    169    170     1   0.10969 276646.080000
    169    171     1   0.10969 276646.080000
    173    174     1   0.10969 276646.080000
    173    175     1   0.10969 276646.080000
    176    177     1   0.10969 276646.080000
    176    178     1   0.10969 276646.080000
    179    180     1   0.10969 276646.080000
    179    181     1   0.10969 276646.080000
    182    183     1   0.10969 276646.080000
    182    184     1   0.10969 276646.080000
    189    190     1   0.10129 337397.760000
    191    192     1   0.10969 276646.080000
    191    193     1   0.10969 276646.080000
    194    195     1   0.10969 276646.080000
    194    196     1   0.10969 276646.080000
    198    199     1   0.10969 276646.080000
    198    200     1   0.10969 276646.080000
    201    202     1   0.10969 276646.080000
    201    203     1   0.10969 276646.080000
    204    205     1   0.10969 276646.080000
    204    206     1   0.10969 276646.080000
    207    208     1   0.10969 276646.080000
    207    209     1   0.10969 276646.080000
    214    215     1   0.10129 337397.760000
    216    217     1   0.10969 276646.080000
    216    218     1   0.10969 276646.080000
    219    220     1   0.10969 276646.080000
    219    221     1   0.10969 276646.080000
    223    224     1   0.10969 276646.080000
    223    225     1   0.10969 276646.080000
    226    227     1   0.10969 276646.080000
    226    228     1   0.10969 276646.080000
    229    230     1   0.10969 276646.080000
    229    231     1   0.10969 276646.080000
    232    233     1   0.10969 276646.080000
    232    234     1   0.10969 276646.080000
    239    240     1   0.10129 337397.760000
    241    242     1   0.10969 276646.080000
    241    243     1   0.10969 276646.080000
    244    245     1   0.10969 276646.080000
    244    246     1   0.10969 276646.080000
    248    249     1   0.10969 276646.080000
    248    250     1   0.10969 276646.080000
    251    252     1   0.10969 276646.080000
    251    253     1   0.10969 276646.080000
    254    255     1   0.10969 276646.080000
    254    256     1   0.10969 276646.080000
    257    258     1   0.10969 276646.080000
    257    259     1   0.10969 276646.080000
    264    265     1   0.10129 337397.760000
    266    267     1   0.10969 276646.080000
    266    268     1   0.10969 276646.080000
    269    270     1   0.10969 276646.080000
    269    271     1   0.10969 276646.080000
    273    274     1   0.10969 276646.080000
    273    275     1   0.10969 276646.080000
    276    277     1   0.10969 276646.080000
    276    278     1   0.10969 276646.080000
    279    280     1   0.10969 276646.080000
    279    281     1   0.10969 276646.080000
    282    283     1   0.10969 276646.080000
    282    284     1   0.10969 276646.080000
    289    290     1   0.10129 337397.760000
    291    292     1   0.10969 276646.080000
    291    293     1   0.10969 276646.080000
    294    295     1   0.10969 276646.080000
    294    296     1   0.10969 276646.080000
    298    299     1   0.10969 276646.080000
    298    300     1   0.10969 276646.080000
    301    302     1   0.10969 276646.080000
    301    303     1   0.10969 276646.080000
    304    305     1   0.10969 276646.080000
    304    306     1   0.10969 276646.080000
    307    308     1   0.10969 276646.080000
    307    309     1   0.10969 276646.080000
    314    315     1   0.10129 337397.760000
    316    317     1   0.10969 276646.080000
    316    318     1   0.10969 276646.080000
    319    320     1   0.10969 276646.080000
    319    321     1   0.10969 276646.080000
    323    324     1   0.10969 276646.080000
    323    325     1   0.10969 276646.080000
    326    327     1   0.10969 276646.080000
    326    328     1   0.10969 276646.080000
    329    330     1   0.10969 276646.080000
    329    331     1   0.10969 276646.080000
    332    333     1   0.10969 276646.080000
    332    334     1   0.10969 276646.080000
    339    340     1   0.10129 337397.760000
    341    342     1   0.10969 276646.080000
    341    343     1   0.10969 276646.080000
    344    345     1   0.10969 276646.080000
    344    346     1   0.10969 276646.080000
    348    349     1   0.10969 276646.080000
    348    350     1   0.10969 276646.080000
    351    352     1   0.10969 276646.080000
    351    353     1   0.10969 276646.080000
    354    355     1   0.10969 276646.080000
    354    356     1   0.10969 276646.080000
    357    358     1   0.10969 276646.080000
    357    359     1   0.10969 276646.080000
    364    365     1   0.10129 337397.760000
    366    367     1   0.10969 276646.080000
    366    368     1   0.10969 276646.080000
    369    370     1   0.10969 276646.080000
    369    371     1   0.10969 276646.080000
    373    374     1   0.10969 276646.080000
    373    375     1   0.10969 276646.080000
    376    377     1   0.10969 276646.080000
    376    378     1   0.10969 276646.080000
    379    380     1   0.10969 276646.080000
    379    381     1   0.10969 276646.080000
    382    383     1   0.10969 276646.080000
    382    384     1   0.10969 276646.080000
    389    390     1   0.10129 337397.760000
    391    392     1   0.10969 276646.080000
    391    393     1   0.10969 276646.080000
    394    395     1   0.10969 276646.080000
    394    396     1   0.10969 276646.080000
    398    399     1   0.10969 276646.080000
    398    400     1   0.10969 276646.080000
    401    402     1   0.10969 276646.080000
    401    403     1   0.10969 276646.080000
    404    405     1   0.10969 276646.080000
    404    406     1   0.10969 276646.080000
    407    408     1   0.10969 276646.080000
    407    409     1   0.10969 276646.080000
    414    415     1   0.10129 337397.760000
    416    417     1   0.10969 276646.080000
    416    418     1   0.10969 276646.080000
    419    420     1   0.10969 276646.080000
    419    421     1   0.10969 276646.080000
    423    424     1   0.10969 276646.080000
    423    425     1   0.10969 276646.080000
    426    427     1   0.10969 276646.080000
    426    428     1   0.10969 276646.080000
    429    430     1   0.10969 276646.080000
    429    431     1   0.10969 276646.080000
    432    433     1   0.10969 276646.080000
    432    434     1   0.10969 276646.080000
    439    440     1   0.10129 337397.760000
    441    442     1   0.10969 276646.080000
    441    443     1   0.10969 276646.080000
    444    445     1   0.10969 276646.080000
    444    446     1   0.10969 276646.080000
    448    449     1   0.10969 276646.080000
    448    450     1   0.10969 276646.080000
    451    452     1   0.10969 276646.080000
    451    453     1   0.10969 276646.080000
    454    455     1   0.10969 276646.080000
    454    456     1   0.10969 276646.080000
    457    458     1   0.10969 276646.080000
    457    459     1   0.10969 276646.080000
    464    465     1   0.10129 337397.760000
    466    467     1   0.10969 276646.080000
    466    468     1   0.10969 276646.080000
    469    470     1   0.10969 276646.080000
    469    471     1   0.10969 276646.080000
    473    474     1   0.10969 276646.080000
    473    475     1   0.10969 276646.080000
    476    477     1   0.10969 276646.080000
    476    478     1   0.10969 276646.080000
    479    480     1   0.10969 276646.080000
    479    481     1   0.10969 276646.080000
    482    483     1   0.10969 276646.080000
    482    484     1   0.10969 276646.080000
    489    490     1   0.10129 337397.760000
    491    492     1   0.10969 276646.080000
    491    493     1   0.10969 276646.080000
    494    495     1   0.10969 276646.080000
    494    496     1   0.10969 276646.080000
    498    499     1   0.10969 276646.080000
    498    500     1   0.10969 276646.080000
    501    502     1   0.10969 276646.080000
    501    503     1   0.10969 276646.080000
    504    505     1   0.10969 276646.080000
    504    506     1   0.10969 276646.080000
    507    508     1   0.10969 276646.080000
    507    509     1   0.10969 276646.080000
    514    515     1   0.10129 337397.760000
    516    517     1   0.10969 276646.080000
    516    518     1   0.10969 276646.080000
    519    520     1   0.10969 276646.080000
    519    521     1   0.10969 276646.080000
    523    524     1   0.10969 276646.080000
    523    525     1   0.10969 276646.080000
    526    527     1   0.10969 276646.080000
    526    528     1   0.10969 276646.080000
    529    530     1   0.10969 276646.080000
    529    531     1   0.10969 276646.080000
    532    533     1   0.10969 276646.080000
    532    534     1   0.10969 276646.080000
    539    540     1   0.10129 337397.760000
    541    542     1   0.10969 276646.080000
    541    543     1   0.10969 276646.080000
    544    545     1   0.10969 276646.080000
    544    546     1   0.10969 276646.080000
    548    549     1   0.10969 276646.080000
    548    550     1   0.10969 276646.080000
    551    552     1   0.10969 276646.080000
    551    553     1   0.10969 276646.080000
    554    555     1   0.10969 276646.080000
    554    556     1   0.10969 276646.080000
    557    558     1   0.10969 276646.080000
    557    559     1   0.10969 276646.080000
    564    565     1   0.10129 337397.760000
    566    567     1   0.10969 276646.080000
    566    568     1   0.10969 276646.080000
    569    570     1   0.10969 276646.080000
    569    571     1   0.10969 276646.080000
    573    574     1   0.10969 276646.080000
    573    575     1   0.10969 276646.080000
    576    577     1   0.10969 276646.080000
    576    578     1   0.10969 276646.080000
    579    580     1   0.10969 276646.080000
    579    581     1   0.10969 276646.080000
    582    583     1   0.10969 276646.080000
    582    584     1   0.10969 276646.080000
    589    590     1   0.10129 337397.760000
    591    592     1   0.10969 276646.080000
    591    593     1   0.10969 276646.080000
    594    595     1   0.10969 276646.080000
    594    596     1   0.10969 276646.080000
    598    599     1   0.10969 276646.080000
    598    600     1   0.10969 276646.080000
    601    602     1   0.10969 276646.080000
    601    603     1   0.10969 276646.080000
    604    605     1   0.10969 276646.080000
    604    606     1   0.10969 276646.080000
    607    608     1   0.10969 276646.080000
    607    609     1   0.10969 276646.080000
    614    615     1   0.10129 337397.760000
    616    617     1   0.10969 276646.080000
    616    618     1   0.10969 276646.080000
    619    620     1   0.10969 276646.080000
    619    621     1   0.10969 276646.080000
    623    624     1   0.10969 276646.080000
    623    625     1   0.10969 276646.080000
    626    627     1   0.10969 276646.080000
    626    628     1   0.10969 276646.080000
    629    630     1   0.10969 276646.080000
    629    631     1   0.10969 276646.080000
    632    633     1   0.10969 276646.080000
    632    634     1   0.10969 276646.080000
    639    640     1   0.10129 337397.760000
    641    642     1   0.10969 276646.080000
    641    643     1   0.10969 276646.080000
    644    645     1   0.10969 276646.080000
    644    646     1   0.10969 276646.080000
    648    649     1   0.10969 276646.080000
    648    650     1   0.10969 276646.080000
    651    652     1   0.10969 276646.080000
    651    653     1   0.10969 276646.080000
    654    655     1   0.10969 276646.080000
    654    656     1   0.10969 276646.080000
    657    658     1   0.10969 276646.080000
    657    659     1   0.10969 276646.080000
    664    665     1   0.10129 337397.760000
    666    667     1   0.10969 276646.080000
    666    668     1   0.10969 276646.080000
    669    670     1   0.10969 276646.080000
    669    671     1   0.10969 276646.080000
    673    674     1   0.10969 276646.080000
    673    675     1   0.10969 276646.080000
    676    677     1   0.10969 276646.080000
    676    678     1   0.10969 276646.080000
    679    680     1   0.10969 276646.080000
    679    681     1   0.10969 276646.080000
    682    683     1   0.10969 276646.080000
    682    684     1   0.10969 276646.080000
    689    690     1   0.10129 337397.760000
    691    692     1   0.10969 276646.080000
    691    693     1   0.10969 276646.080000
    694    695     1   0.10969 276646.080000
    694    696     1   0.10969 276646.080000
    698    699     1   0.10969 276646.080000
    698    700     1   0.10969 276646.080000
    701    702     1   0.10969 276646.080000
    701    703     1   0.10969 276646.080000
    704    705     1   0.10969 276646.080000
    704    706     1   0.10969 276646.080000
    707    708     1   0.10969 276646.080000
    707    709     1   0.10969 276646.080000
    714    715     1   0.10129 337397.760000
    716    717     1   0.10969 276646.080000
    716    718     1   0.10969 276646.080000
    719    720     1   0.10969 276646.080000
    719    721     1   0.10969 276646.080000
    723    724     1   0.10969 276646.080000
    723    725     1   0.10969 276646.080000
    726    727     1   0.10969 276646.080000
    726    728     1   0.10969 276646.080000
    729    730     1   0.10969 276646.080000
    729    731     1   0.10969 276646.080000
    732    733     1   0.10969 276646.080000
    732    734     1   0.10969 276646.080000
    739    740     1   0.10129 337397.760000
    741    742     1   0.10969 276646.080000
    741    743     1   0.10969 276646.080000
    744    745     1   0.10969 276646.080000
    744    746     1   0.10969 276646.080000
    748    749     1   0.10969 276646.080000
    748    750     1   0.10969 276646.080000
    751    752     1   0.10969 276646.080000
    751    753     1   0.10969 276646.080000
    754    755     1   0.10969 276646.080000
    754    756     1   0.10969 276646.080000
    757    758     1   0.10969 276646.080000
    757    759     1   0.10969 276646.080000
    764    765     1   0.10129 337397.760000
    766    767     1   0.10969 276646.080000
    766    768     1   0.10969 276646.080000
    769    770     1   0.10969 276646.080000
    769    771     1   0.10969 276646.080000
    773    774     1   0.10969 276646.080000
    773    775     1   0.10969 276646.080000
    776    777     1   0.10969 276646.080000
    776    778     1   0.10969 276646.080000
    779    780     1   0.10969 276646.080000
    779    781     1   0.10969 276646.080000
    782    783     1   0.10969 276646.080000
    782    784     1   0.10969 276646.080000
    789    790     1   0.10129 337397.760000
    791    792     1   0.10969 276646.080000
    791    793     1   0.10969 276646.080000
    794    795     1   0.10969 276646.080000
    794    796     1   0.10969 276646.080000
    798    799     1   0.10969 276646.080000
    798    800     1   0.10969 276646.080000
    801    802     1   0.10969 276646.080000
    801    803     1   0.10969 276646.080000
    804    805     1   0.10969 276646.080000
    804    806     1   0.10969 276646.080000
    807    808     1   0.10969 276646.080000
    807    809     1   0.10969 276646.080000
    814    815     1   0.10129 337397.760000
    816    817     1   0.10969 276646.080000
    816    818     1   0.10969 276646.080000
    819    820     1   0.10969 276646.080000
    819    821     1   0.10969 276646.080000
    823    824     1   0.10969 276646.080000
    823    825     1   0.10969 276646.080000
    826    827     1   0.10969 276646.080000
    826    828     1   0.10969 276646.080000
    829    830     1   0.10969 276646.080000
    829    831     1   0.10969 276646.080000
    832    833     1   0.10969 276646.080000
    832    834     1   0.10969 276646.080000
    839    840     1   0.10129 337397.760000
    841    842     1   0.10969 276646.080000
    841    843     1   0.10969 276646.080000
    844    845     1   0.10969 276646.080000
    844    846     1   0.10969 276646.080000
    848    849     1   0.10969 276646.080000
    848    850     1   0.10969 276646.080000
    851    852     1   0.10969 276646.080000
    851    853     1   0.10969 276646.080000
    854    855     1   0.10969 276646.080000
    854    856     1   0.10969 276646.080000
    857    858     1   0.10969 276646.080000
    857    859     1   0.10969 276646.080000
    864    865     1   0.10129 337397.760000
    866    867     1   0.10969 276646.080000
    866    868     1   0.10969 276646.080000
    869    870     1   0.10969 276646.080000
    869    871     1   0.10969 276646.080000
    873    874     1   0.10969 276646.080000
    873    875     1   0.10969 276646.080000
    876    877     1   0.10969 276646.080000
    876    878     1   0.10969 276646.080000
    879    880     1   0.10969 276646.080000
    879    881     1   0.10969 276646.080000
    882    883     1   0.10969 276646.080000
    882    884     1   0.10969 276646.080000
    889    890     1   0.10129 337397.760000
    891    892     1   0.10969 276646.080000
    891    893     1   0.10969 276646.080000
    894    895     1   0.10969 276646.080000
    894    896     1   0.10969 276646.080000
    898    899     1   0.10969 276646.080000
    898    900     1   0.10969 276646.080000
    901    902     1   0.10969 276646.080000
    901    903     1   0.10969 276646.080000
    904    905     1   0.10969 276646.080000
    904    906     1   0.10969 276646.080000
    907    908     1   0.10969 276646.080000
    907    909     1   0.10969 276646.080000
    914    915     1   0.10129 337397.760000
    916    917     1   0.10969 276646.080000
    916    918     1   0.10969 276646.080000
    919    920     1   0.10969 276646.080000
    919    921     1   0.10969 276646.080000
    923    924     1   0.10969 276646.080000
    923    925     1   0.10969 276646.080000
    926    927     1   0.10969 276646.080000
    926    928     1   0.10969 276646.080000
    929    930     1   0.10969 276646.080000
    929    931     1   0.10969 276646.080000
    932    933     1   0.10969 276646.080000
    932    934     1   0.10969 276646.080000
    939    940     1   0.10129 337397.760000
    941    942     1   0.10969 276646.080000
    941    943     1   0.10969 276646.080000
    944    945     1   0.10969 276646.080000
    944    946     1   0.10969 276646.080000
    948    949     1   0.10969 276646.080000
    948    950     1   0.10969 276646.080000
    951    952     1   0.10969 276646.080000
    951    953     1   0.10969 276646.080000
    954    955     1   0.10969 276646.080000
    954    956     1   0.10969 276646.080000
    957    958     1   0.10969 276646.080000
    957    959     1   0.10969 276646.080000
    964    965     1   0.10129 337397.760000
    966    967     1   0.10969 276646.080000
    966    968     1   0.10969 276646.080000
    969    970     1   0.10969 276646.080000
    969    971     1   0.10969 276646.080000
    973    974     1   0.10969 276646.080000
    973    975     1   0.10969 276646.080000
    976    977     1   0.10969 276646.080000
    976    978     1   0.10969 276646.080000
    979    980     1   0.10969 276646.080000
    979    981     1   0.10969 276646.080000
    982    983     1   0.10969 276646.080000
    982    984     1   0.10969 276646.080000
    989    990     1   0.10129 337397.760000
    991    992     1   0.10969 276646.080000
    991    993     1   0.10969 276646.080000
    994    995     1   0.10969 276646.080000
    994    996     1   0.10969 276646.080000
    998    999     1   0.10969 276646.080000
    998   1000     1   0.10969 276646.080000
   1001   1002     1   0.10969 276646.080000
   1001   1003     1   0.10969 276646.080000
   1004   1005     1   0.10969 276646.080000
   1004   1006     1   0.10969 276646.080000
   1007   1008     1   0.10969 276646.080000
   1007   1009     1   0.10969 276646.080000
   1014   1015     1   0.10129 337397.760000
   1016   1017     1   0.10969 276646.080000
   1016   1018     1   0.10969 276646.080000
   1019   1020     1   0.10969 276646.080000
   1019   1021     1   0.10969 276646.080000
   1023   1024     1   0.10969 276646.080000
   1023   1025     1   0.10969 276646.080000
   1026   1027     1   0.10969 276646.080000
   1026   1028     1   0.10969 276646.080000
   1029   1030     1   0.10969 276646.080000
   1029   1031     1   0.10969 276646.080000
   1032   1033     1   0.10969 276646.080000
   1032   1034     1   0.10969 276646.080000
   1039   1040     1   0.10129 337397.760000
   1041   1042     1   0.10969 276646.080000
   1041   1043     1   0.10969 276646.080000
   1044   1045     1   0.10969 276646.080000
   1044   1046     1   0.10969 276646.080000
   1048   1049     1   0.10969 276646.080000
   1048   1050     1   0.10969 276646.080000
   1051   1052     1   0.10969 276646.080000
   1051   1053     1   0.10969 276646.080000
   1054   1055     1   0.10969 276646.080000
   1054   1056     1   0.10969 276646.080000
   1057   1058     1   0.10969 276646.080000
   1057   1059     1   0.10969 276646.080000
   1064   1065     1   0.10129 337397.760000
   1066   1067     1   0.10969 276646.080000
   1066   1068     1   0.10969 276646.080000
   1069   1070     1   0.10969 276646.080000
   1069   1071     1   0.10969 276646.080000
   1073   1074     1   0.10969 276646.080000
   1073   1075     1   0.10969 276646.080000
   1076   1077     1   0.10969 276646.080000
   1076   1078     1   0.10969 276646.080000
   1079   1080     1   0.10969 276646.080000
   1079   1081     1   0.10969 276646.080000
   1082   1083     1   0.10969 276646.080000
   1082   1084     1   0.10969 276646.080000
   1089   1090     1   0.10129 337397.760000
   1091   1092     1   0.10969 276646.080000
   1091   1093     1   0.10969 276646.080000
   1094   1095     1   0.10969 276646.080000
   1094   1096     1   0.10969 276646.080000
   1098   1099     1   0.10969 276646.080000
   1098   1100     1   0.10969 276646.080000
   1101   1102     1   0.10969 276646.080000
   1101   1103     1   0.10969 276646.080000
   1104   1105     1   0.10969 276646.080000
   1104   1106     1   0.10969 276646.080000
   1107   1108     1   0.10969 276646.080000
   1107   1109     1   0.10969 276646.080000
   1114   1115     1   0.10129 337397.760000
   1116   1117     1   0.10969 276646.080000
   1116   1118     1   0.10969 276646.080000
   1119   1120     1   0.10969 276646.080000
   1119   1121     1   0.10969 276646.080000
   1123   1124     1   0.10969 276646.080000
   1123   1125     1   0.10969 276646.080000
   1126   1127     1   0.10969 276646.080000
   1126   1128     1   0.10969 276646.080000
   1129   1130     1   0.10969 276646.080000
   1129   1131     1   0.10969 276646.080000
   1132   1133     1   0.10969 276646.080000
   1132   1134     1   0.10969 276646.080000
   1139   1140     1   0.10129 337397.760000
   1141   1142     1   0.10969 276646.080000
   1141   1143     1   0.10969 276646.080000
   1144   1145     1   0.10969 276646.080000
   1144   1146     1   0.10969 276646.080000
   1148   1149     1   0.10969 276646.080000
   1148   1150     1   0.10969 276646.080000
   1151   1152     1   0.10969 276646.080000
   1151   1153     1   0.10969 276646.080000
   1154   1155     1   0.10969 276646.080000
   1154   1156     1   0.10969 276646.080000
   1157   1158     1   0.10969 276646.080000
   1157   1159     1   0.10969 276646.080000
   1164   1165     1   0.10129 337397.760000
   1166   1167     1   0.10969 276646.080000
   1166   1168     1   0.10969 276646.080000
   1169   1170     1   0.10969 276646.080000
   1169   1171     1   0.10969 276646.080000
   1173   1174     1   0.10969 276646.080000
   1173   1175     1   0.10969 276646.080000
   1176   1177     1   0.10969 276646.080000
   1176   1178     1   0.10969 276646.080000
   1179   1180     1   0.10969 276646.080000
   1179   1181     1   0.10969 276646.080000
   1182   1183     1   0.10969 276646.080000
   1182   1184     1   0.10969 276646.080000
   1189   1190     1   0.10129 337397.760000
   1191   1192     1   0.10969 276646.080000
   1191   1193     1   0.10969 276646.080000
   1194   1195     1   0.10969 276646.080000
   1194   1196     1   0.10969 276646.080000
   1198   1199     1   0.10969 276646.080000
   1198   1200     1   0.10969 276646.080000
   1201   1202     1   0.10969 276646.080000
   1201   1203     1   0.10969 276646.080000
   1204   1205     1   0.10969 276646.080000
   1204   1206     1   0.10969 276646.080000
   1207   1208     1   0.10969 276646.080000
   1207   1209     1   0.10969 276646.080000
   1214   1215     1   0.10129 337397.760000
   1216   1217     1   0.10969 276646.080000
   1216   1218     1   0.10969 276646.080000
   1219   1220     1   0.10969 276646.080000
   1219   1221     1   0.10969 276646.080000
   1223   1224     1   0.10969 276646.080000
   1223   1225     1   0.10969 276646.080000
   1226   1227     1   0.10969 276646.080000
   1226   1228     1   0.10969 276646.080000
   1229   1230     1   0.10969 276646.080000
   1229   1231     1   0.10969 276646.080000
   1232   1233     1   0.10969 276646.080000
   1232   1234     1   0.10969 276646.080000
   1239   1240     1   0.10129 337397.760000
   1241   1242     1   0.10969 276646.080000
   1241   1243     1   0.10969 276646.080000
   1244   1245     1   0.10969 276646.080000
   1244   1246     1   0.10969 276646.080000
   1248   1249     1   0.10969 276646.080000
   1248   1250     1   0.10969 276646.080000
   1251   1252     1   0.10969 276646.080000
   1251   1253     1   0.10969 276646.080000
   1254   1255     1   0.10969 276646.080000
   1254   1256     1   0.10969 276646.080000
   1257   1258     1   0.10969 276646.080000
   1257   1259     1   0.10969 276646.080000
   1264   1265     1   0.10129 337397.760000
   1266   1267     1   0.10969 276646.080000
   1266   1268     1   0.10969 276646.080000
   1269   1270     1   0.10969 276646.080000
   1269   1271     1   0.10969 276646.080000
   1273   1274     1   0.10969 276646.080000
   1273   1275     1   0.10969 276646.080000
   1276   1277     1   0.10969 276646.080000
   1276   1278     1   0.10969 276646.080000
   1279   1280     1   0.10969 276646.080000
   1279   1281     1   0.10969 276646.080000
   1282   1283     1   0.10969 276646.080000
   1282   1284     1   0.10969 276646.080000
   1289   1290     1   0.10129 337397.760000
   1291   1292     1   0.10969 276646.080000
   1291   1293     1   0.10969 276646.080000
   1294   1295     1   0.10969 276646.080000
   1294   1296     1   0.10969 276646.080000
   1298   1299     1   0.10969 276646.080000
   1298   1300     1   0.10969 276646.080000
   1301   1302     1   0.10969 276646.080000
   1301   1303     1   0.10969 276646.080000
   1304   1305     1   0.10969 276646.080000
   1304   1306     1   0.10969 276646.080000
   1307   1308     1   0.10969 276646.080000
   1307   1309     1   0.10969 276646.080000
   1314   1315     1   0.10129 337397.760000
   1316   1317     1   0.10969 276646.080000
   1316   1318     1   0.10969 276646.080000
   1319   1320     1   0.10969 276646.080000
   1319   1321     1   0.10969 276646.080000
   1323   1324     1   0.10969 276646.080000
   1323   1325     1   0.10969 276646.080000
   1326   1327     1   0.10969 276646.080000
   1326   1328     1   0.10969 276646.080000
   1329   1330     1   0.10969 276646.080000
   1329   1331     1   0.10969 276646.080000
   1332   1333     1   0.10969 276646.080000
   1332   1334     1   0.10969 276646.080000
   1339   1340     1   0.10129 337397.760000
   1341   1342     1   0.10969 276646.080000
   1341   1343     1   0.10969 276646.080000
   1344   1345     1   0.10969 276646.080000
   1344   1346     1   0.10969 276646.080000
   1348   1349     1   0.10969 276646.080000
   1348   1350     1   0.10969 276646.080000
   1351   1352     1   0.10969 276646.080000
   1351   1353     1   0.10969 276646.080000
   1354   1355     1   0.10969 276646.080000
   1354   1356     1   0.10969 276646.080000
   1357   1358     1   0.10969 276646.080000
   1357   1359     1   0.10969 276646.080000
   1364   1365     1   0.10129 337397.760000
   1366   1367     1   0.10969 276646.080000
   1366   1368     1   0.10969 276646.080000
   1369   1370     1   0.10969 276646.080000
   1369   1371     1   0.10969 276646.080000
   1373   1374     1   0.10969 276646.080000
   1373   1375     1   0.10969 276646.080000
   1376   1377     1   0.10969 276646.080000
   1376   1378     1   0.10969 276646.080000
   1379   1380     1   0.10969 276646.080000
   1379   1381     1   0.10969 276646.080000
   1382   1383     1   0.10969 276646.080000
   1382   1384     1   0.10969 276646.080000
   1389   1390     1   0.10129 337397.760000
   1391   1392     1   0.10969 276646.080000
   1391   1393     1   0.10969 276646.080000
   1394   1395     1   0.10969 276646.080000
   1394   1396     1   0.10969 276646.080000
   1398   1399     1   0.10969 276646.080000
   1398   1400     1   0.10969 276646.080000
   1401   1402     1   0.10969 276646.080000
   1401   1403     1   0.10969 276646.080000
   1404   1405     1   0.10969 276646.080000
   1404   1406     1   0.10969 276646.080000
   1407   1408     1   0.10969 276646.080000
   1407   1409     1   0.10969 276646.080000
   1414   1415     1   0.10129 337397.760000
   1416   1417     1   0.10969 276646.080000
   1416   1418     1   0.10969 276646.080000
   1419   1420     1   0.10969 276646.080000
   1419   1421     1   0.10969 276646.080000
   1423   1424     1   0.10969 276646.080000
   1423   1425     1   0.10969 276646.080000
   1426   1427     1   0.10969 276646.080000
   1426   1428     1   0.10969 276646.080000
   1429   1430     1   0.10969 276646.080000
   1429   1431     1   0.10969 276646.080000
   1432   1433     1   0.10969 276646.080000
   1432   1434     1   0.10969 276646.080000
   1439   1440     1   0.10129 337397.760000
   1441   1442     1   0.10969 276646.080000
   1441   1443     1   0.10969 276646.080000
   1444   1445     1   0.10969 276646.080000
   1444   1446     1   0.10969 276646.080000
   1448   1449     1   0.10969 276646.080000
   1448   1450     1   0.10969 276646.080000
   1451   1452     1   0.10969 276646.080000
   1451   1453     1   0.10969 276646.080000
   1454   1455     1   0.10969 276646.080000
   1454   1456     1   0.10969 276646.080000
   1457   1458     1   0.10969 276646.080000
   1457   1459     1   0.10969 276646.080000
   1464   1465     1   0.10129 337397.760000
   1466   1467     1   0.10969 276646.080000
   1466   1468     1   0.10969 276646.080000
   1469   1470     1   0.10969 276646.080000
   1469   1471     1   0.10969 276646.080000
   1473   1474     1   0.10969 276646.080000
   1473   1475     1   0.10969 276646.080000
   1476   1477     1   0.10969 276646.080000
   1476   1478     1   0.10969 276646.080000
   1479   1480     1   0.10969 276646.080000
   1479   1481     1   0.10969 276646.080000
   1482   1483     1   0.10969 276646.080000
   1482   1484     1   0.10969 276646.080000
   1489   1490     1   0.10129 337397.760000
   1491   1492     1   0.10969 276646.080000
   1491   1493     1   0.10969 276646.080000
   1494   1495     1   0.10969 276646.080000
   1494   1496     1   0.10969 276646.080000
   1498   1499     1   0.10969 276646.080000
   1498   1500     1   0.10969 276646.080000
   1501   1502     1   0.10969 276646.080000
   1501   1503     1   0.10969 276646.080000
   1504   1505     1   0.10969 276646.080000
   1504   1506     1   0.10969 276646.080000
   1507   1508     1   0.10969 276646.080000
   1507   1509     1   0.10969 276646.080000
   1514   1515     1   0.10129 337397.760000
   1516   1517     1   0.10969 276646.080000
   1516   1518     1   0.10969 276646.080000
   1519   1520     1   0.10969 276646.080000
   1519   1521     1   0.10969 276646.080000
   1523   1524     1   0.10969 276646.080000
   1523   1525     1   0.10969 276646.080000
   1526   1527     1   0.10969 276646.080000
   1526   1528     1   0.10969 276646.080000
   1529   1530     1   0.10969 276646.080000
   1529   1531     1   0.10969 276646.080000
   1532   1533     1   0.10969 276646.080000
   1532   1534     1   0.10969 276646.080000
   1539   1540     1   0.10129 337397.760000
   1541   1542     1   0.10969 276646.080000
   1541   1543     1   0.10969 276646.080000
   1544   1545     1   0.10969 276646.080000
   1544   1546     1   0.10969 276646.080000
   1547   1548     1   0.10190 328360.320000
   1547   1549     1   0.10190 328360.320000
   1550   1551     1   0.10129 337397.760000
   1552   1553     1   0.10969 276646.080000
   1552   1554     1   0.10969 276646.080000
   1555   1556     1   0.10969 276646.080000
   1555   1557     1   0.10969 276646.080000
   1558   1559     1   0.10190 328360.320000
   1558   1560     1   0.10190 328360.320000
   1561   1562     1   0.10129 337397.760000
   1563   1564     1   0.10969 276646.080000
   1563   1565     1   0.10969 276646.080000
   1566   1567     1   0.10969 276646.080000
   1566   1568     1   0.10969 276646.080000
   1569   1570     1   0.10190 328360.320000
   1569   1571     1   0.10190 328360.320000
   1572   1573     1   0.10129 337397.760000
   1574   1575     1   0.10969 276646.080000
   1574   1576     1   0.10969 276646.080000
   1577   1578     1   0.10969 276646.080000
   1577   1579     1   0.10969 276646.080000
   1580   1581     1   0.10190 328360.320000
   1580   1582     1   0.10190 328360.320000
   1583   1584     1   0.10129 337397.760000
   1585   1586     1   0.10969 276646.080000
   1585   1587     1   0.10969 276646.080000
   1588   1589     1   0.10969 276646.080000
   1588   1590     1   0.10969 276646.080000
   1591   1592     1   0.10190 328360.320000
   1591   1593     1   0.10190 328360.320000
   1594   1595     1   0.10129 337397.760000
   1596   1597     1   0.10969 276646.080000
   1596   1598     1   0.10969 276646.080000
   1599   1600     1   0.10969 276646.080000
   1599   1601     1   0.10969 276646.080000
   1602   1603     1   0.10190 328360.320000
   1602   1604     1   0.10190 328360.320000
   1605   1606     1   0.10129 337397.760000
   1607   1608     1   0.10969 276646.080000
   1607   1609     1   0.10969 276646.080000
   1610   1611     1   0.10969 276646.080000
   1610   1612     1   0.10969 276646.080000
   1613   1614     1   0.10190 328360.320000
   1613   1615     1   0.10190 328360.320000
   1616   1617     1   0.10129 337397.760000
   1618   1619     1   0.10969 276646.080000
   1618   1620     1   0.10969 276646.080000
   1621   1622     1   0.10969 276646.080000
   1621   1623     1   0.10969 276646.080000
   1624   1625     1   0.10190 328360.320000
   1624   1626     1   0.10190 328360.320000
   1627   1628     1   0.10129 337397.760000
   1629   1630     1   0.10969 276646.080000
   1629   1631     1   0.10969 276646.080000
   1632   1633     1   0.10969 276646.080000
   1632   1634     1   0.10969 276646.080000
   1635   1636     1   0.10190 328360.320000
   1635   1637     1   0.10190 328360.320000
   1638   1639     1   0.10129 337397.760000
   1640   1641     1   0.10969 276646.080000
   1640   1642     1   0.10969 276646.080000
   1643   1644     1   0.10969 276646.080000
   1643   1645     1   0.10969 276646.080000
   1646   1647     1   0.10190 328360.320000
   1646   1648     1   0.10190 328360.320000
   1649   1650     1   0.10129 337397.760000
   1651   1652     1   0.10969 276646.080000
   1651   1653     1   0.10969 276646.080000
   1654   1655     1   0.10969 276646.080000
   1654   1656     1   0.10969 276646.080000
   1657   1658     1   0.10190 328360.320000
   1657   1659     1   0.10190 328360.320000
   1660   1661     1   0.10129 337397.760000
   1662   1663     1   0.10969 276646.080000
   1662   1664     1   0.10969 276646.080000
   1665   1666     1   0.10969 276646.080000
   1665   1667     1   0.10969 276646.080000
   1668   1669     1   0.10190 328360.320000
   1668   1670     1   0.10190 328360.320000
   1671   1672     1   0.10129 337397.760000
   1673   1674     1   0.10969 276646.080000
   1673   1675     1   0.10969 276646.080000
   1676   1677     1   0.10969 276646.080000
   1676   1678     1   0.10969 276646.080000
   1679   1680     1   0.10190 328360.320000
   1679   1681     1   0.10190 328360.320000
   1682   1683     1   0.10129 337397.760000
   1684   1685     1   0.10969 276646.080000
   1684   1686     1   0.10969 276646.080000
   1687   1688     1   0.10969 276646.080000
   1687   1689     1   0.10969 276646.080000
   1690   1691     1   0.10190 328360.320000
   1690   1692     1   0.10190 328360.320000
   1693   1694     1   0.10129 337397.760000
   1695   1696     1   0.10969 276646.080000
   1695   1697     1   0.10969 276646.080000
   1698   1699     1   0.10969 276646.080000
   1698   1700     1   0.10969 276646.080000
   1701   1702     1   0.10190 328360.320000
   1701   1703     1   0.10190 328360.320000
   1704   1705     1   0.10129 337397.760000
   1706   1707     1   0.10969 276646.080000
   1706   1708     1   0.10969 276646.080000
   1709   1710     1   0.10969 276646.080000
   1709   1711     1   0.10969 276646.080000
   1712   1713     1   0.10190 328360.320000
   1712   1714     1   0.10190 328360.320000
   1715   1716     1   0.10129 337397.760000
   1717   1718     1   0.10969 276646.080000
   1717   1719     1   0.10969 276646.080000
   1720   1721     1   0.10969 276646.080000
   1720   1722     1   0.10969 276646.080000
   1723   1724     1   0.10190 328360.320000
   1723   1725     1   0.10190 328360.320000
   1726   1727     1   0.10129 337397.760000
   1728   1729     1   0.10969 276646.080000
   1728   1730     1   0.10969 276646.080000
   1731   1732     1   0.10969 276646.080000
   1731   1733     1   0.10969 276646.080000
   1734   1735     1   0.10190 328360.320000
   1734   1736     1   0.10190 328360.320000
   1737   1738     1   0.10129 337397.760000
   1739   1740     1   0.10969 276646.080000
   1739   1741     1   0.10969 276646.080000
   1742   1743     1   0.10969 276646.080000
   1742   1744     1   0.10969 276646.080000
   1745   1746     1   0.10190 328360.320000
   1745   1747     1   0.10190 328360.320000
   1748   1749     1   0.10129 337397.760000
   1750   1751     1   0.10969 276646.080000
   1750   1752     1   0.10969 276646.080000
   1753   1754     1   0.10969 276646.080000
   1753   1755     1   0.10969 276646.080000
   1756   1757     1   0.10190 328360.320000
   1756   1758     1   0.10190 328360.320000
   1759   1760     1   0.10129 337397.760000
   1761   1762     1   0.10969 276646.080000
   1761   1763     1   0.10969 276646.080000
   1764   1765     1   0.10969 276646.080000
   1764   1766     1   0.10969 276646.080000
   1767   1768     1   0.10190 328360.320000
   1767   1769     1   0.10190 328360.320000
   1770   1771     1   0.10129 337397.760000
   1772   1773     1   0.10969 276646.080000
   1772   1774     1   0.10969 276646.080000
   1775   1776     1   0.10969 276646.080000
   1775   1777     1   0.10969 276646.080000
   1778   1779     1   0.10190 328360.320000
   1778   1780     1   0.10190 328360.320000
   1781   1782     1   0.10129 337397.760000
   1783   1784     1   0.10969 276646.080000
   1783   1785     1   0.10969 276646.080000
   1786   1787     1   0.10969 276646.080000
   1786   1788     1   0.10969 276646.080000
   1789   1790     1   0.10190 328360.320000
   1789   1791     1   0.10190 328360.320000
   1792   1793     1   0.10129 337397.760000
   1794   1795     1   0.10969 276646.080000
   1794   1796     1   0.10969 276646.080000
   1797   1798     1   0.10969 276646.080000
   1797   1799     1   0.10969 276646.080000
   1800   1801     1   0.10190 328360.320000
   1800   1802     1   0.10190 328360.320000
   1803   1804     1   0.10129 337397.760000
   1805   1806     1   0.10969 276646.080000
   1805   1807     1   0.10969 276646.080000
   1808   1809     1   0.10969 276646.080000
   1808   1810     1   0.10969 276646.080000
   1811   1812     1   0.10190 328360.320000
   1811   1813     1   0.10190 328360.320000
   1814   1815     1   0.10129 337397.760000
   1816   1817     1   0.10969 276646.080000
   1816   1818     1   0.10969 276646.080000
   1819   1820     1   0.10969 276646.080000
   1819   1821     1   0.10969 276646.080000
   1822   1823     1   0.10190 328360.320000
   1822   1824     1   0.10190 328360.320000
   1825   1826     1   0.10129 337397.760000
   1827   1828     1   0.10969 276646.080000
   1827   1829     1   0.10969 276646.080000
   1830   1831     1   0.10969 276646.080000
   1830   1832     1   0.10969 276646.080000
   1833   1834     1   0.10190 328360.320000
   1833   1835     1   0.10190 328360.320000
   1836   1837     1   0.10129 337397.760000
   1838   1839     1   0.10969 276646.080000
   1838   1840     1   0.10969 276646.080000
   1841   1842     1   0.10969 276646.080000
   1841   1843     1   0.10969 276646.080000
   1844   1845     1   0.10190 328360.320000
   1844   1846     1   0.10190 328360.320000
   1847   1848     1   0.10129 337397.760000
   1849   1850     1   0.10969 276646.080000
   1849   1851     1   0.10969 276646.080000
   1852   1853     1   0.10969 276646.080000
   1852   1854     1   0.10969 276646.080000
   1855   1856     1   0.10190 328360.320000
   1855   1857     1   0.10190 328360.320000
   1858   1859     1   0.10129 337397.760000
   1860   1861     1   0.10969 276646.080000
   1860   1862     1   0.10969 276646.080000
   1863   1864     1   0.10969 276646.080000
   1863   1865     1   0.10969 276646.080000
   1866   1867     1   0.10190 328360.320000
   1866   1868     1   0.10190 328360.320000
   1869   1870     1   0.10129 337397.760000
   1871   1872     1   0.10969 276646.080000
   1871   1873     1   0.10969 276646.080000
   1874   1875     1   0.10969 276646.080000
   1874   1876     1   0.10969 276646.080000
   1877   1878     1   0.10190 328360.320000
   1877   1879     1   0.10190 328360.320000
   1880   1881     1   0.10129 337397.760000
   1882   1883     1   0.10969 276646.080000
   1882   1884     1   0.10969 276646.080000
   1885   1886     1   0.10969 276646.080000
   1885   1887     1   0.10969 276646.080000
   1888   1889     1   0.10190 328360.320000
   1888   1890     1   0.10190 328360.320000
   1891   1892     1   0.10129 337397.760000
   1893   1894     1   0.10969 276646.080000
   1893   1895     1   0.10969 276646.080000
   1896   1897     1   0.10969 276646.080000
   1896   1898     1   0.10969 276646.080000
   1899   1900     1   0.10190 328360.320000
   1899   1901     1   0.10190 328360.320000
   1902   1903     1   0.10129 337397.760000
   1904   1905     1   0.10969 276646.080000
   1904   1906     1   0.10969 276646.080000
   1907   1908     1   0.10969 276646.080000
   1907   1909     1   0.10969 276646.080000
   1910   1911     1   0.10190 328360.320000
   1910   1912     1   0.10190 328360.320000
   1913   1914     1   0.10129 337397.760000
   1915   1916     1   0.10969 276646.080000
   1915   1917     1   0.10969 276646.080000
   1918   1919     1   0.10969 276646.080000
   1918   1920     1   0.10969 276646.080000
   1921   1922     1   0.10190 328360.320000
   1921   1923     1   0.10190 328360.320000
   1924   1925     1   0.10129 337397.760000
   1926   1927     1   0.10969 276646.080000
   1926   1928     1   0.10969 276646.080000
   1929   1930     1   0.10969 276646.080000
   1929   1931     1   0.10969 276646.080000
   1932   1933     1   0.10190 328360.320000
   1932   1934     1   0.10190 328360.320000
   1935   1936     1   0.10129 337397.760000
   1937   1938     1   0.10969 276646.080000
   1937   1939     1   0.10969 276646.080000
   1940   1941     1   0.10969 276646.080000
   1940   1942     1   0.10969 276646.080000
   1943   1944     1   0.10190 328360.320000
   1943   1945     1   0.10190 328360.320000
   1946   1947     1   0.10129 337397.760000
   1948   1949     1   0.10969 276646.080000
   1948   1950     1   0.10969 276646.080000
   1951   1952     1   0.10969 276646.080000
   1951   1953     1   0.10969 276646.080000
   1954   1955     1   0.10190 328360.320000
   1954   1956     1   0.10190 328360.320000
   1957   1958     1   0.10129 337397.760000
   1959   1960     1   0.10969 276646.080000
   1959   1961     1   0.10969 276646.080000
   1962   1963     1   0.10969 276646.080000
   1962   1964     1   0.10969 276646.080000
   1965   1966     1   0.10190 328360.320000
   1965   1967     1   0.10190 328360.320000
   1968   1969     1   0.10129 337397.760000
   1970   1971     1   0.10969 276646.080000
   1970   1972     1   0.10969 276646.080000
   1973   1974     1   0.10969 276646.080000
   1973   1975     1   0.10969 276646.080000
   1976   1977     1   0.10190 328360.320000
   1976   1978     1   0.10190 328360.320000
   1979   1980     1   0.10129 337397.760000
   1981   1982     1   0.10969 276646.080000
   1981   1983     1   0.10969 276646.080000
   1984   1985     1   0.10969 276646.080000
   1984   1986     1   0.10969 276646.080000
   1987   1988     1   0.10190 328360.320000
   1987   1989     1   0.10190 328360.320000
   1990   1991     1   0.10129 337397.760000
   1992   1993     1   0.10969 276646.080000
   1992   1994     1   0.10969 276646.080000
   1995   1996     1   0.10969 276646.080000
   1995   1997     1   0.10969 276646.080000
   1998   1999     1   0.10190 328360.320000
   1998   2000     1   0.10190 328360.320000
   2001   2002     1   0.10129 337397.760000
   2003   2004     1   0.10969 276646.080000
   2003   2005     1   0.10969 276646.080000
   2006   2007     1   0.10969 276646.080000
   2006   2008     1   0.10969 276646.080000
   2009   2010     1   0.10190 328360.320000
   2009   2011     1   0.10190 328360.320000
   2012   2013     1   0.10129 337397.760000
   2014   2015     1   0.10969 276646.080000
   2014   2016     1   0.10969 276646.080000
   2017   2018     1   0.10969 276646.080000
   2017   2019     1   0.10969 276646.080000
   2020   2021     1   0.10190 328360.320000
   2020   2022     1   0.10190 328360.320000
   2023   2024     1   0.10129 337397.760000
   2025   2026     1   0.10969 276646.080000
   2025   2027     1   0.10969 276646.080000
   2028   2029     1   0.10969 276646.080000
   2028   2030     1   0.10969 276646.080000
   2031   2032     1   0.10190 328360.320000
   2031   2033     1   0.10190 328360.320000
   2034   2035     1   0.10129 337397.760000
   2036   2037     1   0.10969 276646.080000
   2036   2038     1   0.10969 276646.080000
   2039   2040     1   0.10969 276646.080000
   2039   2041     1   0.10969 276646.080000
   2042   2043     1   0.10190 328360.320000
   2042   2044     1   0.10190 328360.320000
   2045   2046     1   0.10129 337397.760000
   2047   2048     1   0.10969 276646.080000
   2047   2049     1   0.10969 276646.080000
   2050   2051     1   0.10969 276646.080000
   2050   2052     1   0.10969 276646.080000
   2053   2054     1   0.10190 328360.320000
   2053   2055     1   0.10190 328360.320000
   2056   2057     1   0.10129 337397.760000
   2058   2059     1   0.10969 276646.080000
   2058   2060     1   0.10969 276646.080000
   2061   2062     1   0.10969 276646.080000
   2061   2063     1   0.10969 276646.080000
   2064   2065     1   0.10190 328360.320000
   2064   2066     1   0.10190 328360.320000
   2067   2068     1   0.10129 337397.760000
   2069   2070     1   0.10969 276646.080000
   2069   2071     1   0.10969 276646.080000
   2072   2073     1   0.10969 276646.080000
   2072   2074     1   0.10969 276646.080000
   2075   2076     1   0.10190 328360.320000
   2075   2077     1   0.10190 328360.320000
   2078   2079     1   0.10129 337397.760000
   2080   2081     1   0.10969 276646.080000
   2080   2082     1   0.10969 276646.080000
   2083   2084     1   0.10969 276646.080000
   2083   2085     1   0.10969 276646.080000
   2086   2087     1   0.10190 328360.320000
   2086   2088     1   0.10190 328360.320000
   2089   2090     1   0.10129 337397.760000
   2091   2092     1   0.10969 276646.080000
   2091   2093     1   0.10969 276646.080000
   2094   2095     1   0.10969 276646.080000
   2094   2096     1   0.10969 276646.080000
   2097   2098     1   0.10190 328360.320000
   2097   2099     1   0.10190 328360.320000
   2100   2101     1   0.10129 337397.760000
   2102   2103     1   0.10969 276646.080000
   2102   2104     1   0.10969 276646.080000
   2105   2106     1   0.10969 276646.080000
   2105   2107     1   0.10969 276646.080000
   2108   2109     1   0.10190 328360.320000
   2108   2110     1   0.10190 328360.320000
   2111   2112     1   0.10129 337397.760000
   2113   2114     1   0.10969 276646.080000
   2113   2115     1   0.10969 276646.080000
   2116   2117     1   0.10969 276646.080000
   2116   2118     1   0.10969 276646.080000
   2119   2120     1   0.10190 328360.320000
   2119   2121     1   0.10190 328360.320000
   2122   2123     1   0.10129 337397.760000
   2124   2125     1   0.10969 276646.080000
   2124   2126     1   0.10969 276646.080000
   2127   2128     1   0.10969 276646.080000
   2127   2129     1   0.10969 276646.080000
   2130   2131     1   0.10190 328360.320000
   2130   2132     1   0.10190 328360.320000
   2133   2134     1   0.10129 337397.760000
   2135   2136     1   0.10969 276646.080000
   2135   2137     1   0.10969 276646.080000
   2138   2139     1   0.10969 276646.080000
   2138   2140     1   0.10969 276646.080000
   2141   2142     1   0.10190 328360.320000
   2141   2143     1   0.10190 328360.320000
   2144   2145     1   0.10129 337397.760000
   2146   2147     1   0.10969 276646.080000
   2146   2148     1   0.10969 276646.080000
   2149   2150     1   0.10969 276646.080000
   2149   2151     1   0.10969 276646.080000
   2152   2153     1   0.10190 328360.320000
   2152   2154     1   0.10190 328360.320000
   2155   2156     1   0.10129 337397.760000
   2157   2158     1   0.10969 276646.080000
   2157   2159     1   0.10969 276646.080000
   2160   2161     1   0.10969 276646.080000
   2160   2162     1   0.10969 276646.080000
   2163   2164     1   0.10190 328360.320000
   2163   2165     1   0.10190 328360.320000
   2166   2167     1   0.10129 337397.760000
   2168   2169     1   0.10969 276646.080000
   2168   2170     1   0.10969 276646.080000
   2171   2172     1   0.10969 276646.080000
   2171   2173     1   0.10969 276646.080000
   2174   2175     1   0.10190 328360.320000
   2174   2176     1   0.10190 328360.320000
   2177   2178     1   0.10129 337397.760000
   2179   2180     1   0.10969 276646.080000
   2179   2181     1   0.10969 276646.080000
   2182   2183     1   0.10969 276646.080000
   2182   2184     1   0.10969 276646.080000
   2185   2186     1   0.10190 328360.320000
   2185   2187     1   0.10190 328360.320000
   2188   2189     1   0.10129 337397.760000
   2190   2191     1   0.10969 276646.080000
   2190   2192     1   0.10969 276646.080000
   2193   2194     1   0.10969 276646.080000
   2193   2195     1   0.10969 276646.080000
   2196   2197     1   0.10190 328360.320000
   2196   2198     1   0.10190 328360.320000
   2199   2200     1   0.10129 337397.760000
   2201   2202     1   0.10969 276646.080000
   2201   2203     1   0.10969 276646.080000
   2204   2205     1   0.10969 276646.080000
   2204   2206     1   0.10969 276646.080000
   2207   2208     1   0.10190 328360.320000
   2207   2209     1   0.10190 328360.320000
   2210   2211     1   0.10129 337397.760000
   2212   2213     1   0.10969 276646.080000
   2212   2214     1   0.10969 276646.080000
   2215   2216     1   0.10969 276646.080000
   2215   2217     1   0.10969 276646.080000
   2218   2219     1   0.10190 328360.320000
   2218   2220     1   0.10190 328360.320000
   2221   2222     1   0.10129 337397.760000
   2223   2224     1   0.10969 276646.080000
   2223   2225     1   0.10969 276646.080000
   2226   2227     1   0.10969 276646.080000
   2226   2228     1   0.10969 276646.080000
   2229   2230     1   0.10190 328360.320000
   2229   2231     1   0.10190 328360.320000
   2232   2233     1   0.10129 337397.760000
   2234   2235     1   0.10969 276646.080000
   2234   2236     1   0.10969 276646.080000
   2237   2238     1   0.10969 276646.080000
   2237   2239     1   0.10969 276646.080000
   2240   2241     1   0.10190 328360.320000
   2240   2242     1   0.10190 328360.320000
   2243   2244     1   0.10129 337397.760000

[ pairs ]
;    ai     aj funct         c0         c1         c2         c3
      1     15     1
      1     18     1
      1     30     1
      1     27     1
      4      9     1
      4     12     1
      4     21     1
      4     24     1
      8      7     1
      7     35     1
      7     36     1
      8     34     1
      8     33     1
      9     27     1
      9     40     1
      9     89     1
     12     30     1
     12     37     1
     12     64     1
     15     24     1
     15     38     1
     15    114     1
     18     21     1
     18     39     1
     18    139     1
     21     94     1
     24    119     1
     27     44     1
     30     69     1
     33     41     1
     34     66     1
     35     91     1
     36    116     1
     37     44     1
     38     94     1
     39    119     1
     40     69     1
     41     57     1
     41     54     1
     44     48     1
     44     51     1
     47     64     1
     47     61     1
     47     60     1
     48     54     1
     48     63     1
     48    189     1
     51     57     1
     51     62     1
     51    164     1
     54    144     1
     57    169     1
     60    141     1
     61    166     1
     62    144     1
     63    169     1
     66     82     1
     66     79     1
     69     73     1
     69     76     1
     72     89     1
     72     86     1
     72     85     1
     73     79     1
     73     88     1
     73    239     1
     76     82     1
     76     87     1
     76    214     1
     79    194     1
     82    219     1
     85    191     1
     86    216     1
     87    194     1
     88    219     1
     91    107     1
     91    104     1
     94     98     1
     94    101     1
     97    114     1
     97    111     1
     97    110     1
     98    104     1
     98    113     1
     98    289     1
    101    107     1
    101    112     1
    101    264     1
    104    244     1
    107    269     1
    110    241     1
    111    266     1
    112    244     1
    113    269     1
    116    132     1
    116    129     1
    119    123     1
    119    126     1
    122    139     1
    122    136     1
    122    135     1
    123    129     1
    123    138     1
    123    339     1
    126    132     1
    126    137     1
    126    314     1
    129    294     1
    132    319     1
    135    291     1
    136    316     1
    137    294     1
    138    319     1
    141    157     1
    141    154     1
    144    148     1
    144    151     1
    147    164     1
    147    161     1
    147    160     1
    148    154     1
    148    163     1
    148    389     1
    151    157     1
    151    162     1
    151    364     1
    154    344     1
    157    369     1
    160    341     1
    161    366     1
    162    344     1
    163    369     1
    166    182     1
    166    179     1
    169    173     1
    169    176     1
    172    189     1
    172    186     1
    172    185     1
    173    179     1
    173    188     1
    173    439     1
    176    182     1
    176    187     1
    176    414     1
    179    394     1
    182    419     1
    185    391     1
    186    416     1
    187    394     1
    188    419     1
    191    207     1
    191    204     1
    194    198     1
    194    201     1
    197    214     1
    197    211     1
    197    210     1
    198    204     1
    198    213     1
    198    489     1
    201    207     1
    201    212     1
    201    464     1
    204    444     1
    207    469     1
    210    441     1
    211    466     1
    212    444     1
    213    469     1
    216    232     1
    216    229     1
    219    223     1
    219    226     1
    222    239     1
    222    236     1
    222    235     1
    223    229     1
    223    238     1
    223    539     1
    226    232     1
    226    237     1
    226    514     1
    229    494     1
    232    519     1
    235    491     1
    236    516     1
    237    494     1
    238    519     1
    241    257     1
    241    254     1
    244    248     1
    244    251     1
    247    264     1
    247    261     1
    247    260     1
    248    254     1
    248    263     1
    248    589     1
    251    257     1
    251    262     1
    251    564     1
    254    544     1
    257    569     1
    260    541     1
    261    566     1
    262    544     1
    263    569     1
    266    282     1
    266    279     1
    269    273     1
    269    276     1
    272    289     1
    272    286     1
    272    285     1
    273    279     1
    273    288     1
    273    639     1
    276    282     1
    276    287     1
    276    614     1
    279    594     1
    282    619     1
    285    591     1
    286    616     1
    287    594     1
    288    619     1
    291    307     1
    291    304     1
    294    298     1
    294    301     1
    297    314     1
    297    311     1
    297    310     1
    298    304     1
    298    313     1
    298    689     1
    301    307     1
    301    312     1
    301    664     1
    304    644     1
    307    669     1
    310    641     1
    311    666     1
    312    644     1
    313    669     1
    316    332     1
    316    329     1
    319    323     1
    319    326     1
    322    339     1
    322    336     1
    322    335     1
    323    329     1
    323    338     1
    323    739     1
    326    332     1
    326    337     1
    326    714     1
    329    694     1
    332    719     1
    335    691     1
    336    716     1
    337    694     1
    338    719     1
    341    357     1
    341    354     1
    344    348     1
    344    351     1
    347    364     1
    347    361     1
    347    360     1
    348    354     1
    348    363     1
    348    789     1
    351    357     1
    351    362     1
    351    764     1
    354    744     1
    357    769     1
    360    741     1
    361    766     1
    362    744     1
    363    769     1
    366    382     1
    366    379     1
    369    373     1
    369    376     1
    372    389     1
    372    386     1
    372    385     1
    373    379     1
    373    388     1
    373    839     1
    376    382     1
    376    387     1
    376    814     1
    379    794     1
    382    819     1
    385    791     1
    386    816     1
    387    794     1
    388    819     1
    391    407     1
    391    404     1
    394    398     1
    394    401     1
    397    414     1
    397    411     1
    397    410     1
    398    404     1
    398    413     1
    398    889     1
    401    407     1
    401    412     1
    401    864     1
    404    844     1
    407    869     1
    410    841     1
    411    866     1
    412    844     1
    413    869     1
    416    432     1
    416    429     1
    419    423     1
    419    426     1
    422    439     1
    422    436     1
    422    435     1
    423    429     1
    423    438     1
    423    939     1
    426    432     1
    426    437     1
    426    914     1
    429    894     1
    432    919     1
    435    891     1
    436    916     1
    437    894     1
    438    919     1
    441    457     1
    441    454     1
    444    448     1
    444    451     1
    447    464     1
    447    461     1
    447    460     1
    448    454     1
    448    463     1
    448    989     1
    451    457     1
    451    462     1
    451    964     1
    454    944     1
    457    969     1
    460    941     1
    461    966     1
    462    944     1
    463    969     1
    466    482     1
    466    479     1
    469    473     1
    469    476     1
    472    489     1
    472    486     1
    472    485     1
    473    479     1
    473    488     1
    473   1039     1
    476    482     1
    476    487     1
    476   1014     1
    479    994     1
    482   1019     1
    485    991     1
    486   1016     1
    487    994     1
    488   1019     1
    491    507     1
    491    504     1
    494    498     1
    494    501     1
    497    514     1
    497    511     1
    497    510     1
    498    504     1
    498    513     1
    498   1089     1
    501    507     1
    501    512     1
    501   1064     1
    504   1044     1
    507   1069     1
    510   1041     1
    511   1066     1
    512   1044     1
    513   1069     1
    516    532     1
    516    529     1
    519    523     1
    519    526     1
    522    539     1
    522    536     1
    522    535     1
    523    529     1
    523    538     1
    523   1139     1
    526    532     1
    526    537     1
    526   1114     1
    529   1094     1
    532   1119     1
    535   1091     1
    536   1116     1
    537   1094     1
    538   1119     1
    541    557     1
    541    554     1
    544    548     1
    544    551     1
    547    564     1
    547    561     1
    547    560     1
    548    554     1
    548    563     1
    548   1189     1
    551    557     1
    551    562     1
    551   1164     1
    554   1144     1
    557   1169     1
    560   1141     1
    561   1166     1
    562   1144     1
    563   1169     1
    566    582     1
    566    579     1
    569    573     1
    569    576     1
    572    589     1
    572    586     1
    572    585     1
    573    579     1
    573    588     1
    573   1239     1
    576    582     1
    576    587     1
    576   1214     1
    579   1194     1
    582   1219     1
    585   1191     1
    586   1216     1
    587   1194     1
    588   1219     1
    591    607     1
    591    604     1
    594    598     1
    594    601     1
    597    614     1
    597    611     1
    597    610     1
    598    604     1
    598    613     1
    598   1289     1
    601    607     1
    601    612     1
    601   1264     1
    604   1244     1
    607   1269     1
    610   1241     1
    611   1266     1
    612   1244     1
    613   1269     1
    616    632     1
    616    629     1
    619    623     1
    619    626     1
    622    639     1
    622    636     1
    622    635     1
    623    629     1
    623    638     1
    623   1339     1
    626    632     1
    626    637     1
    626   1314     1
    629   1294     1
    632   1319     1
    635   1291     1
    636   1316     1
    637   1294     1
    638   1319     1
    641    657     1
    641    654     1
    644    648     1
    644    651     1
    647    664     1
    647    661     1
    647    660     1
    648    654     1
    648    663     1
    648   1389     1
    651    657     1
    651    662     1
    651   1364     1
    654   1344     1
    657   1369     1
    660   1341     1
    661   1366     1
    662   1344     1
    663   1369     1
    666    682     1
    666    679     1
    669    673     1
    669    676     1
    672    689     1
    672    686     1
    672    685     1
    673    679     1
    673    688     1
    673   1439     1
    676    682     1
    676    687     1
    676   1414     1
    679   1394     1
    682   1419     1
    685   1391     1
    686   1416     1
    687   1394     1
    688   1419     1
    691    707     1
    691    704     1
    694    698     1
    694    701     1
    697    714     1
    697    711     1
    697    710     1
    698    704     1
    698    713     1
    698   1489     1
    701    707     1
    701    712     1
    701   1464     1
    704   1444     1
    707   1469     1
    710   1441     1
    711   1466     1
    712   1444     1
    713   1469     1
    716    732     1
    716    729     1
    719    723     1
    719    726     1
    722    739     1
    722    736     1
    722    735     1
    723    729     1
    723    738     1
    723   1539     1
    726    732     1
    726    737     1
    726   1514     1
    729   1494     1
    732   1519     1
    735   1491     1
    736   1516     1
    737   1494     1
    738   1519     1
    741    757     1
    741    754     1
    744    748     1
    744    751     1
    747    764     1
    747    761     1
    747    760     1
    748    754     1
    748    763     1
    748   1561     1
    751    757     1
    751   1550     1
    751    762     1
    754   1541     1
    757   1552     1
    760   1544     1
    761   1555     1
    762   1541     1
    763   1552     1
    766    782     1
    766    779     1
    769    773     1
    769    776     1
    772    789     1
    772    786     1
    772    785     1
    773    779     1
    773    788     1
    773   1583     1
    776    782     1
    776   1572     1
    776    787     1
    779   1563     1
    782   1574     1
    785   1566     1
    786   1577     1
    787   1563     1
    788   1574     1
    791    807     1
    791    804     1
    794    798     1
    794    801     1
    797    814     1
    797    811     1
    797    810     1
    798    804     1
    798    813     1
    798   1605     1
    801    807     1
    801   1594     1
    801    812     1
    804   1585     1
    807   1596     1
    810   1588     1
    811   1599     1
    812   1585     1
    813   1596     1
    816    832     1
    816    829     1
    819    823     1
    819    826     1
    822    839     1
    822    836     1
    822    835     1
    823    829     1
    823    838     1
    823   1627     1
    826    832     1
    826   1616     1
    826    837     1
    829   1607     1
    832   1618     1
    835   1610     1
    836   1621     1
    837   1607     1
    838   1618     1
    841    857     1
    841    854     1
    844    848     1
    844    851     1
    847    864     1
    847    861     1
    847    860     1
    848    854     1
    848    863     1
    848   1649     1
    851    857     1
    851   1638     1
    851    862     1
    854   1629     1
    857   1640     1
    860   1632     1
    861   1643     1
    862   1629     1
    863   1640     1
    866    882     1
    866    879     1
    869    873     1
    869    876     1
    872    889     1
    872    886     1
    872    885     1
    873    879     1
    873    888     1
    873   1671     1
    876    882     1
    876   1660     1
    876    887     1
    879   1651     1
    882   1662     1
    885   1654     1
    886   1665     1
    887   1651     1
    888   1662     1
    891    907     1
    891    904     1
    894    898     1
    894    901     1
    897    914     1
    897    911     1
    897    910     1
    898    904     1
    898    913     1
    898   1693     1
    901    907     1
    901   1682     1
    901    912     1
    904   1673     1
    907   1684     1
    910   1676     1
    911   1687     1
    912   1673     1
    913   1684     1
    916    932     1
    916    929     1
    919    923     1
    919    926     1
    922    939     1
    922    936     1
    922    935     1
    923    929     1
    923    938     1
    923   1715     1
    926    932     1
    926   1704     1
    926    937     1
    929   1695     1
    932   1706     1
    935   1698     1
    936   1709     1
    937   1695     1
    938   1706     1
    941    957     1
    941    954     1
    944    948     1
    944    951     1
    947    964     1
    947    961     1
    947    960     1
    948    954     1
    948    963     1
    948   1737     1
    951    957     1
    951   1726     1
    951    962     1
    954   1717     1
    957   1728     1
    960   1720     1
    961   1731     1
    962   1717     1
    963   1728     1
    966    982     1
    966    979     1
    969    973     1
    969    976     1
    972    989     1
    972    986     1
    972    985     1
    973    979     1
    973    988     1
    973   1759     1
    976    982     1
    976   1748     1
    976    987     1
    979   1739     1
    982   1750     1
    985   1742     1
    986   1753     1
    987   1739     1
    988   1750     1
    991   1007     1
    991   1004     1
    994    998     1
    994   1001     1
    997   1014     1
    997   1011     1
    997   1010     1
    998   1004     1
    998   1013     1
    998   1781     1
   1001   1007     1
   1001   1770     1
   1001   1012     1
   1004   1761     1
   1007   1772     1
   1010   1764     1
   1011   1775     1
   1012   1761     1
   1013   1772     1
   1016   1032     1
   1016   1029     1
   1019   1023     1
   1019   1026     1
   1022   1039     1
   1022   1036     1
   1022   1035     1
   1023   1029     1
   1023   1038     1
   1023   1803     1
   1026   1032     1
   1026   1792     1
   1026   1037     1
   1029   1783     1
   1032   1794     1
   1035   1786     1
   1036   1797     1
   1037   1783     1
   1038   1794     1
   1041   1057     1
   1041   1054     1
   1044   1048     1
   1044   1051     1
   1047   1064     1
   1047   1061     1
   1047   1060     1
   1048   1054     1
   1048   1063     1
   1048   1825     1
   1051   1057     1
   1051   1814     1
   1051   1062     1
   1054   1805     1
   1057   1816     1
   1060   1808     1
   1061   1819     1
   1062   1805     1
   1063   1816     1
   1066   1082     1
   1066   1079     1
   1069   1073     1
   1069   1076     1
   1072   1089     1
   1072   1086     1
   1072   1085     1
   1073   1079     1
   1073   1088     1
   1073   1847     1
   1076   1082     1
   1076   1836     1
   1076   1087     1
   1079   1827     1
   1082   1838     1
   1085   1830     1
   1086   1841     1
   1087   1827     1
   1088   1838     1
   1091   1107     1
   1091   1104     1
   1094   1098     1
   1094   1101     1
   1097   1114     1
   1097   1111     1
   1097   1110     1
   1098   1104     1
   1098   1113     1
   1098   1869     1
   1101   1107     1
   1101   1858     1
   1101   1112     1
   1104   1849     1
   1107   1860     1
   1110   1852     1
   1111   1863     1
   1112   1849     1
   1113   1860     1
   1116   1132     1
   1116   1129     1
   1119   1123     1
   1119   1126     1
   1122   1139     1
   1122   1136     1
   1122   1135     1
   1123   1129     1
   1123   1138     1
   1123   1891     1
   1126   1132     1
   1126   1880     1
   1126   1137     1
   1129   1871     1
   1132   1882     1
   1135   1874     1
   1136   1885     1
   1137   1871     1
   1138   1882     1
   1141   1157     1
   1141   1154     1
   1144   1148     1
   1144   1151     1
   1147   1164     1
   1147   1161     1
   1147   1160     1
   1148   1154     1
   1148   1163     1
   1148   1913     1
   1151   1157     1
   1151   1902     1
   1151   1162     1
   1154   1893     1
   1157   1904     1
   1160   1896     1
   1161   1907     1
   1162   1893     1
   1163   1904     1
   1166   1182     1
   1166   1179     1
   1169   1173     1
   1169   1176     1
   1172   1189     1
   1172   1186     1
   1172   1185     1
   1173   1179     1
   1173   1188     1
   1173   1935     1
   1176   1182     1
   1176   1924     1
   1176   1187     1
   1179   1915     1
   1182   1926     1
   1185   1918     1
   1186   1929     1
   1187   1915     1
   1188   1926     1
   1191   1207     1
   1191   1204     1
   1194   1198     1
   1194   1201     1
   1197   1214     1
   1197   1211     1
   1197   1210     1
   1198   1204     1
   1198   1213     1
   1198   1957     1
   1201   1207     1
   1201   1946     1
   1201   1212     1
   1204   1937     1
   1207   1948     1
   1210   1940     1
   1211   1951     1
   1212   1937     1
   1213   1948     1
   1216   1232     1
   1216   1229     1
   1219   1223     1
   1219   1226     1
   1222   1239     1
   1222   1236     1
   1222   1235     1
   1223   1229     1
   1223   1238     1
   1223   1979     1
   1226   1232     1
   1226   1968     1
   1226   1237     1
   1229   1959     1
   1232   1970     1
   1235   1962     1
   1236   1973     1
   1237   1959     1
   1238   1970     1
   1241   1257     1
   1241   1254     1
   1244   1248     1
   1244   1251     1
   1247   1264     1
   1247   1261     1
   1247   1260     1
   1248   1254     1
   1248   1263     1
   1248   2001     1
   1251   1257     1
   1251   1990     1
   1251   1262     1
   1254   1981     1
   1257   1992     1
   1260   1984     1
   1261   1995     1
   1262   1981     1
   1263   1992     1
   1266   1282     1
   1266   1279     1
   1269   1273     1
   1269   1276     1
   1272   1289     1
   1272   1286     1
   1272   1285     1
   1273   1279     1
   1273   1288     1
   1273   2023     1
   1276   1282     1
   1276   2012     1
   1276   1287     1
   1279   2003     1
   1282   2014     1
   1285   2006     1
   1286   2017     1
   1287   2003     1
   1288   2014     1
   1291   1307     1
   1291   1304     1
   1294   1298     1
   1294   1301     1
   1297   1314     1
   1297   1311     1
   1297   1310     1
   1298   1304     1
   1298   1313     1
   1298   2045     1
   1301   1307     1
   1301   2034     1
   1301   1312     1
   1304   2025     1
   1307   2036     1
   1310   2028     1
   1311   2039     1
   1312   2025     1
   1313   2036     1
   1316   1332     1
   1316   1329     1
   1319   1323     1
   1319   1326     1
   1322   1339     1
   1322   1336     1
   1322   1335     1
   1323   1329     1
   1323   1338     1
   1323   2067     1
   1326   1332     1
   1326   2056     1
   1326   1337     1
   1329   2047     1
   1332   2058     1
   1335   2050     1
   1336   2061     1
   1337   2047     1
   1338   2058     1
   1341   1357     1
   1341   1354     1
   1344   1348     1
   1344   1351     1
   1347   1364     1
   1347   1361     1
   1347   1360     1
   1348   1354     1
   1348   1363     1
   1348   2089     1
   1351   1357     1
   1351   2078     1
   1351   1362     1
   1354   2069     1
   1357   2080     1
   1360   2072     1
   1361   2083     1
   1362   2069     1
   1363   2080     1
   1366   1382     1
   1366   1379     1
   1369   1373     1
   1369   1376     1
   1372   1389     1
   1372   1386     1
   1372   1385     1
   1373   1379     1
   1373   1388     1
   1373   2111     1
   1376   1382     1
   1376   2100     1
   1376   1387     1
   1379   2091     1
   1382   2102     1
   1385   2094     1
   1386   2105     1
   1387   2091     1
   1388   2102     1
   1391   1407     1
   1391   1404     1
   1394   1398     1
   1394   1401     1
   1397   1414     1
   1397   1411     1
   1397   1410     1
   1398   1404     1
   1398   1413     1
   1398   2133     1
   1401   1407     1
   1401   2122     1
   1401   1412     1
   1404   2113     1
   1407   2124     1
   1410   2116     1
   1411   2127     1
   1412   2113     1
   1413   2124     1
   1416   1432     1
   1416   1429     1
   1419   1423     1
   1419   1426     1
   1422   1439     1
   1422   1436     1
   1422   1435     1
   1423   1429     1
   1423   1438     1
   1423   2155     1
   1426   1432     1
   1426   2144     1
   1426   1437     1
   1429   2135     1
   1432   2146     1
   1435   2138     1
   1436   2149     1
   1437   2135     1
   1438   2146     1
   1441   1457     1
   1441   1454     1
   1444   1448     1
   1444   1451     1
   1447   1464     1
   1447   1461     1
   1447   1460     1
   1448   1454     1
   1448   1463     1
   1448   2177     1
   1451   1457     1
   1451   2166     1
   1451   1462     1
   1454   2157     1
   1457   2168     1
   1460   2160     1
   1461   2171     1
   1462   2157     1
   1463   2168     1
   1466   1482     1
   1466   1479     1
   1469   1473     1
   1469   1476     1
   1472   1489     1
   1472   1486     1
   1472   1485     1
   1473   1479     1
   1473   1488     1
   1473   2199     1
   1476   1482     1
   1476   2188     1
   1476   1487     1
   1479   2179     1
   1482   2190     1
   1485   2182     1
   1486   2193     1
   1487   2179     1
   1488   2190     1
   1491   1507     1
   1491   1504     1
   1494   1498     1
   1494   1501     1
   1497   1514     1
   1497   1511     1
   1497   1510     1
   1498   1504     1
   1498   1513     1
   1498   2221     1
   1501   1507     1
   1501   2210     1
   1501   1512     1
   1504   2201     1
   1507   2212     1
   1510   2204     1
   1511   2215     1
   1512   2201     1
   1513   2212     1
   1516   1532     1
   1516   1529     1
   1519   1523     1
   1519   1526     1
   1522   1539     1
   1522   1536     1
   1522   1535     1
   1523   1529     1
   1523   2243     1
   1523   1538     1
   1526   1532     1
   1526   2232     1
   1526   1537     1
   1529   2223     1
   1532   2234     1
   1535   2226     1
   1536   2237     1
   1537   2223     1
   1538   2234     1
   1547   1550     1
   1558   1561     1
   1569   1572     1
   1580   1583     1
   1591   1594     1
   1602   1605     1
   1613   1616     1
   1624   1627     1
   1635   1638     1
   1646   1649     1
   1657   1660     1
   1668   1671     1
   1679   1682     1
   1690   1693     1
   1701   1704     1
   1712   1715     1
   1723   1726     1
   1734   1737     1
   1745   1748     1
   1756   1759     1
   1767   1770     1
   1778   1781     1
   1789   1792     1
   1800   1803     1
   1811   1814     1
   1822   1825     1
   1833   1836     1
   1844   1847     1
   1855   1858     1
   1866   1869     1
   1877   1880     1
   1888   1891     1
   1899   1902     1
   1910   1913     1
   1921   1924     1
   1932   1935     1
   1943   1946     1
   1954   1957     1
   1965   1968     1
   1976   1979     1
   1987   1990     1
   1998   2001     1
   2009   2012     1
   2020   2023     1
   2031   2034     1
   2042   2045     1
   2053   2056     1
   2064   2067     1
   2075   2078     1
   2086   2089     1
   2097   2100     1
   2108   2111     1
   2119   2122     1
   2130   2133     1
   2141   2144     1
   2152   2155     1
   2163   2166     1
   2174   2177     1
   2185   2188     1
   2196   2199     1
   2207   2210     1
   2218   2221     1
   2229   2232     1
   2240   2243     1
      1     10     1
      1     11     1
      1     13     1
      1     14     1
      2      7     1
      2      5     1
      2      6     1
      2      9     1
      2     12     1
      3      7     1
      3      5     1
      3      6     1
      3      9     1
      3     12     1
      4     16     1
      4     17     1
      4     19     1
      4     20     1
      8      5     1
      5     15     1
      5     18     1
      8      6     1
      6     15     1
      6     18     1
      7     22     1
      7     23     1
      7     25     1
      7     26     1
      8     31     1
      8     32     1
      8     28     1
      8     29     1
      9     13     1
      9     14     1
     10     12     1
     10     34     1
     10     31     1
     10     32     1
     11     12     1
     11     34     1
     11     31     1
     11     32     1
     13     33     1
     13     28     1
     13     29     1
     14     33     1
     14     28     1
     14     29     1
     15     19     1
     15     20     1
     16     18     1
     16     35     1
     16     22     1
     16     23     1
     17     18     1
     17     35     1
     17     22     1
     17     23     1
     19     36     1
     19     25     1
     19     26     1
     20     36     1
     20     25     1
     20     26     1
     21    115     1
     22     38     1
     22    114     1
     23     38     1
     23    114     1
     24    140     1
     25     39     1
     25    139     1
     26     39     1
     26    139     1
     27     65     1
     28     37     1
     28     64     1
     29     37     1
     29     64     1
     30     90     1
     31     40     1
     31     89     1
     32     40     1
     32     89     1
     33     45     1
     33     46     1
     34     70     1
     34     71     1
     35     95     1
     35     96     1
     36    120     1
     36    121     1
     37     65     1
     38    115     1
     39    140     1
     40     90     1
     41     65     1
     41     49     1
     41     50     1
     41     52     1
     41     53     1
     42     64     1
     42     45     1
     42     46     1
     42     48     1
     42     51     1
     43     64     1
     43     45     1
     43     46     1
     43     48     1
     43     51     1
     45     47     1
     45     65     1
     46     47     1
     46     65     1
     47     58     1
     47     59     1
     47     55     1
     47     56     1
     48     52     1
     48     53     1
     49     51     1
     49     61     1
     49     58     1
     49     59     1
     50     51     1
     50     61     1
     50     58     1
     50     59     1
     52     60     1
     52     55     1
     52     56     1
     53     60     1
     53     55     1
     53     56     1
     54    165     1
     55     62     1
     55    164     1
     56     62     1
     56    164     1
     57    190     1
     58     63     1
     58    189     1
     59     63     1
     59    189     1
     60    145     1
     60    146     1
     61    170     1
     61    171     1
     62    165     1
     63    190     1
     66     90     1
     66     74     1
     66     75     1
     66     77     1
     66     78     1
     67     89     1
     67     70     1
     67     71     1
     67     73     1
     67     76     1
     68     89     1
     68     70     1
     68     71     1
     68     73     1
     68     76     1
     70     72     1
     70     90     1
     71     72     1
     71     90     1
     72     83     1
     72     84     1
     72     80     1
     72     81     1
     73     77     1
     73     78     1
     74     76     1
     74     86     1
     74     83     1
     74     84     1
     75     76     1
     75     86     1
     75     83     1
     75     84     1
     77     85     1
     77     80     1
     77     81     1
     78     85     1
     78     80     1
     78     81     1
     79    215     1
     80     87     1
     80    214     1
     81     87     1
     81    214     1
     82    240     1
     83     88     1
     83    239     1
     84     88     1
     84    239     1
     85    195     1
     85    196     1
     86    220     1
     86    221     1
     87    215     1
     88    240     1
     91    115     1
     91     99     1
     91    100     1
     91    102     1
     91    103     1
     92    114     1
     92     95     1
     92     96     1
     92     98     1
     92    101     1
     93    114     1
     93     95     1
     93     96     1
     93     98     1
     93    101     1
     95     97     1
     95    115     1
     96     97     1
     96    115     1
     97    108     1
     97    109     1
     97    105     1
     97    106     1
     98    102     1
     98    103     1
     99    101     1
     99    111     1
     99    108     1
     99    109     1
    100    101     1
    100    111     1
    100    108     1
    100    109     1
    102    110     1
    102    105     1
    102    106     1
    103    110     1
    103    105     1
    103    106     1
    104    265     1
    105    112     1
    105    264     1
    106    112     1
    106    264     1
    107    290     1
    108    113     1
    108    289     1
    109    113     1
    109    289     1
    110    245     1
    110    246     1
    111    270     1
    111    271     1
    112    265     1
    113    290     1
    116    140     1
    116    124     1
    116    125     1
    116    127     1
    116    128     1
    117    139     1
    117    120     1
    117    121     1
    117    123     1
    117    126     1
    118    139     1
    118    120     1
    118    121     1
    118    123     1
    118    126     1
    120    122     1
    120    140     1
    121    122     1
    121    140     1
    122    133     1
    122    134     1
    122    130     1
    122    131     1
    123    127     1
    123    128     1
    124    126     1
    124    136     1
    124    133     1
    124    134     1
    125    126     1
    125    136     1
    125    133     1
    125    134     1
    127    135     1
    127    130     1
    127    131     1
    128    135     1
    128    130     1
    128    131     1
    129    315     1
    130    137     1
    130    314     1
    131    137     1
    131    314     1
    132    340     1
    133    138     1
    133    339     1
    134    138     1
    134    339     1
    135    295     1
    135    296     1
    136    320     1
    136    321     1
    137    315     1
    138    340     1
    141    165     1
    141    149     1
    141    150     1
    141    152     1
    141    153     1
    142    164     1
    142    145     1
    142    146     1
    142    148     1
    142    151     1
    143    164     1
    143    145     1
    143    146     1
    143    148     1
    143    151     1
    145    147     1
    145    165     1
    146    147     1
    146    165     1
    147    158     1
    147    159     1
    147    155     1
    147    156     1
    148    152     1
    148    153     1
    149    151     1
    149    161     1
    149    158     1
    149    159     1
    150    151     1
    150    161     1
    150    158     1
    150    159     1
    152    160     1
    152    155     1
    152    156     1
    153    160     1
    153    155     1
    153    156     1
    154    365     1
    155    162     1
    155    364     1
    156    162     1
    156    364     1
    157    390     1
    158    163     1
    158    389     1
    159    163     1
    159    389     1
    160    345     1
    160    346     1
    161    370     1
    161    371     1
    162    365     1
    163    390     1
    166    190     1
    166    174     1
    166    175     1
    166    177     1
    166    178     1
    167    189     1
    167    170     1
    167    171     1
    167    173     1
    167    176     1
    168    189     1
    168    170     1
    168    171     1
    168    173     1
    168    176     1
    170    172     1
    170    190     1
    171    172     1
    171    190     1
    172    183     1
    172    184     1
    172    180     1
    172    181     1
    173    177     1
    173    178     1
    174    176     1
    174    186     1
    174    183     1
    174    184     1
    175    176     1
    175    186     1
    175    183     1
    175    184     1
    177    185     1
    177    180     1
    177    181     1
    178    185     1
    178    180     1
    178    181     1
    179    415     1
    180    187     1
    180    414     1
    181    187     1
    181    414     1
    182    440     1
    183    188     1
    183    439     1
    184    188     1
    184    439     1
    185    395     1
    185    396     1
    186    420     1
    186    421     1
    187    415     1
    188    440     1
    191    215     1
    191    199     1
    191    200     1
    191    202     1
    191    203     1
    192    214     1
    192    195     1
    192    196     1
    192    198     1
    192    201     1
    193    214     1
    193    195     1
    193    196     1
    193    198     1
    193    201     1
    195    197     1
    195    215     1
    196    197     1
    196    215     1
    197    208     1
    197    209     1
    197    205     1
    197    206     1
    198    202     1
    198    203     1
    199    201     1
    199    211     1
    199    208     1
    199    209     1
    200    201     1
    200    211     1
    200    208     1
    200    209     1
    202    210     1
    202    205     1
    202    206     1
    203    210     1
    203    205     1
    203    206     1
    204    465     1
    205    212     1
    205    464     1
    206    212     1
    206    464     1
    207    490     1
    208    213     1
    208    489     1
    209    213     1
    209    489     1
    210    445     1
    210    446     1
    211    470     1
    211    471     1
    212    465     1
    213    490     1
    216    240     1
    216    224     1
    216    225     1
    216    227     1
    216    228     1
    217    239     1
    217    220     1
    217    221     1
    217    223     1
    217    226     1
    218    239     1
    218    220     1
    218    221     1
    218    223     1
    218    226     1
    220    222     1
    220    240     1
    221    222     1
    221    240     1
    222    233     1
    222    234     1
    222    230     1
    222    231     1
    223    227     1
    223    228     1
    224    226     1
    224    236     1
    224    233     1
    224    234     1
    225    226     1
    225    236     1
    225    233     1
    225    234     1
    227    235     1
    227    230     1
    227    231     1
    228    235     1
    228    230     1
    228    231     1
    229    515     1
    230    237     1
    230    514     1
    231    237     1
    231    514     1
    232    540     1
    233    238     1
    233    539     1
    234    238     1
    234    539     1
    235    495     1
    235    496     1
    236    520     1
    236    521     1
    237    515     1
    238    540     1
    241    265     1
    241    249     1
    241    250     1
    241    252     1
    241    253     1
    242    264     1
    242    245     1
    242    246     1
    242    248     1
    242    251     1
    243    264     1
    243    245     1
    243    246     1
    243    248     1
    243    251     1
    245    247     1
    245    265     1
    246    247     1
    246    265     1
    247    258     1
    247    259     1
    247    255     1
    247    256     1
    248    252     1
    248    253     1
    249    251     1
    249    261     1
    249    258     1
    249    259     1
    250    251     1
    250    261     1
    250    258     1
    250    259     1
    252    260     1
    252    255     1
    252    256     1
    253    260     1
    253    255     1
    253    256     1
    254    565     1
    255    262     1
    255    564     1
    256    262     1
    256    564     1
    257    590     1
    258    263     1
    258    589     1
    259    263     1
    259    589     1
    260    545     1
    260    546     1
    261    570     1
    261    571     1
    262    565     1
    263    590     1
    266    290     1
    266    274     1
    266    275     1
    266    277     1
    266    278     1
    267    289     1
    267    270     1
    267    271     1
    267    273     1
    267    276     1
    268    289     1
    268    270     1
    268    271     1
    268    273     1
    268    276     1
    270    272     1
    270    290     1
    271    272     1
    271    290     1
    272    283     1
    272    284     1
    272    280     1
    272    281     1
    273    277     1
    273    278     1
    274    276     1
    274    286     1
    274    283     1
    274    284     1
    275    276     1
    275    286     1
    275    283     1
    275    284     1
    277    285     1
    277    280     1
    277    281     1
    278    285     1
    278    280     1
    278    281     1
    279    615     1
    280    287     1
    280    614     1
    281    287     1
    281    614     1
    282    640     1
    283    288     1
    283    639     1
    284    288     1
    284    639     1
    285    595     1
    285    596     1
    286    620     1
    286    621     1
    287    615     1
    288    640     1
    291    315     1
    291    299     1
    291    300     1
    291    302     1
    291    303     1
    292    314     1
    292    295     1
    292    296     1
    292    298     1
    292    301     1
    293    314     1
    293    295     1
    293    296     1
    293    298     1
    293    301     1
    295    297     1
    295    315     1
    296    297     1
    296    315     1
    297    308     1
    297    309     1
    297    305     1
    297    306     1
    298    302     1
    298    303     1
    299    301     1
    299    311     1
    299    308     1
    299    309     1
    300    301     1
    300    311     1
    300    308     1
    300    309     1
    302    310     1
    302    305     1
    302    306     1
    303    310     1
    303    305     1
    303    306     1
    304    665     1
    305    312     1
    305    664     1
    306    312     1
    306    664     1
    307    690     1
    308    313     1
    308    689     1
    309    313     1
    309    689     1
    310    645     1
    310    646     1
    311    670     1
    311    671     1
    312    665     1
    313    690     1
    316    340     1
    316    324     1
    316    325     1
    316    327     1
    316    328     1
    317    339     1
    317    320     1
    317    321     1
    317    323     1
    317    326     1
    318    339     1
    318    320     1
    318    321     1
    318    323     1
    318    326     1
    320    322     1
    320    340     1
    321    322     1
    321    340     1
    322    333     1
    322    334     1
    322    330     1
    322    331     1
    323    327     1
    323    328     1
    324    326     1
    324    336     1
    324    333     1
    324    334     1
    325    326     1
    325    336     1
    325    333     1
    325    334     1
    327    335     1
    327    330     1
    327    331     1
    328    335     1
    328    330     1
    328    331     1
    329    715     1
    330    337     1
    330    714     1
    331    337     1
    331    714     1
    332    740     1
    333    338     1
    333    739     1
    334    338     1
    334    739     1
    335    695     1
    335    696     1
    336    720     1
    336    721     1
    337    715     1
    338    740     1
    341    365     1
    341    349     1
    341    350     1
    341    352     1
    341    353     1
    342    364     1
    342    345     1
    342    346     1
    342    348     1
    342    351     1
    343    364     1
    343    345     1
    343    346     1
    343    348     1
    343    351     1
    345    347     1
    345    365     1
    346    347     1
    346    365     1
    347    358     1
    347    359     1
    347    355     1
    347    356     1
    348    352     1
    348    353     1
    349    351     1
    349    361     1
    349    358     1
    349    359     1
    350    351     1
    350    361     1
    350    358     1
    350    359     1
    352    360     1
    352    355     1
    352    356     1
    353    360     1
    353    355     1
    353    356     1
    354    765     1
    355    362     1
    355    764     1
    356    362     1
    356    764     1
    357    790     1
    358    363     1
    358    789     1
    359    363     1
    359    789     1
    360    745     1
    360    746     1
    361    770     1
    361    771     1
    362    765     1
    363    790     1
    366    390     1
    366    374     1
    366    375     1
    366    377     1
    366    378     1
    367    389     1
    367    370     1
    367    371     1
    367    373     1
    367    376     1
    368    389     1
    368    370     1
    368    371     1
    368    373     1
    368    376     1
    370    372     1
    370    390     1
    371    372     1
    371    390     1
    372    383     1
    372    384     1
    372    380     1
    372    381     1
    373    377     1
    373    378     1
    374    376     1
    374    386     1
    374    383     1
    374    384     1
    375    376     1
    375    386     1
    375    383     1
    375    384     1
    377    385     1
    377    380     1
    377    381     1
    378    385     1
    378    380     1
    378    381     1
    379    815     1
    380    387     1
    380    814     1
    381    387     1
    381    814     1
    382    840     1
    383    388     1
    383    839     1
    384    388     1
    384    839     1
    385    795     1
    385    796     1
    386    820     1
    386    821     1
    387    815     1
    388    840     1
    391    415     1
    391    399     1
    391    400     1
    391    402     1
    391    403     1
    392    414     1
    392    395     1
    392    396     1
    392    398     1
    392    401     1
    393    414     1
    393    395     1
    393    396     1
    393    398     1
    393    401     1
    395    397     1
    395    415     1
    396    397     1
    396    415     1
    397    408     1
    397    409     1
    397    405     1
    397    406     1
    398    402     1
    398    403     1
    399    401     1
    399    411     1
    399    408     1
    399    409     1
    400    401     1
    400    411     1
    400    408     1
    400    409     1
    402    410     1
    402    405     1
    402    406     1
    403    410     1
    403    405     1
    403    406     1
    404    865     1
    405    412     1
    405    864     1
    406    412     1
    406    864     1
    407    890     1
    408    413     1
    408    889     1
    409    413     1
    409    889     1
    410    845     1
    410    846     1
    411    870     1
    411    871     1
    412    865     1
    413    890     1
    416    440     1
    416    424     1
    416    425     1
    416    427     1
    416    428     1
    417    439     1
    417    420     1
    417    421     1
    417    423     1
    417    426     1
    418    439     1
    418    420     1
    418    421     1
    418    423     1
    418    426     1
    420    422     1
    420    440     1
    421    422     1
    421    440     1
    422    433     1
    422    434     1
    422    430     1
    422    431     1
    423    427     1
    423    428     1
    424    426     1
    424    436     1
    424    433     1
    424    434     1
    425    426     1
    425    436     1
    425    433     1
    425    434     1
    427    435     1
    427    430     1
    427    431     1
    428    435     1
    428    430     1
    428    431     1
    429    915     1
    430    437     1
    430    914     1
    431    437     1
    431    914     1
    432    940     1
    433    438     1
    433    939     1
    434    438     1
    434    939     1
    435    895     1
    435    896     1
    436    920     1
    436    921     1
    437    915     1
    438    940     1
    441    465     1
    441    449     1
    441    450     1
    441    452     1
    441    453     1
    442    464     1
    442    445     1
    442    446     1
    442    448     1
    442    451     1
    443    464     1
    443    445     1
    443    446     1
    443    448     1
    443    451     1
    445    447     1
    445    465     1
    446    447     1
    446    465     1
    447    458     1
    447    459     1
    447    455     1
    447    456     1
    448    452     1
    448    453     1
    449    451     1
    449    461     1
    449    458     1
    449    459     1
    450    451     1
    450    461     1
    450    458     1
    450    459     1
    452    460     1
    452    455     1
    452    456     1
    453    460     1
    453    455     1
    453    456     1
    454    965     1
    455    462     1
    455    964     1
    456    462     1
    456    964     1
    457    990     1
    458    463     1
    458    989     1
    459    463     1
    459    989     1
    460    945     1
    460    946     1
    461    970     1
    461    971     1
    462    965     1
    463    990     1
    466    490     1
    466    474     1
    466    475     1
    466    477     1
    466    478     1
    467    489     1
    467    470     1
    467    471     1
    467    473     1
    467    476     1
    468    489     1
    468    470     1
    468    471     1
    468    473     1
    468    476     1
    470    472     1
    470    490     1
    471    472     1
    471    490     1
    472    483     1
    472    484     1
    472    480     1
    472    481     1
    473    477     1
    473    478     1
    474    476     1
    474    486     1
    474    483     1
    474    484     1
    475    476     1
    475    486     1
    475    483     1
    475    484     1
    477    485     1
    477    480     1
    477    481     1
    478    485     1
    478    480     1
    478    481     1
    479   1015     1
    480    487     1
    480   1014     1
    481    487     1
    481   1014     1
    482   1040     1
    483    488     1
    483   1039     1
    484    488     1
    484   1039     1
    485    995     1
    485    996     1
    486   1020     1
    486   1021     1
    487   1015     1
    488   1040     1
    491    515     1
    491    499     1
    491    500     1
    491    502     1
    491    503     1
    492    514     1
    492    495     1
    492    496     1
    492    498     1
    492    501     1
    493    514     1
    493    495     1
    493    496     1
    493    498     1
    493    501     1
    495    497     1
    495    515     1
    496    497     1
    496    515     1
    497    508     1
    497    509     1
    497    505     1
    497    506     1
    498    502     1
    498    503     1
    499    501     1
    499    511     1
    499    508     1
    499    509     1
    500    501     1
    500    511     1
    500    508     1
    500    509     1
    502    510     1
    502    505     1
    502    506     1
    503    510     1
    503    505     1
    503    506     1
    504   1065     1
    505    512     1
    505   1064     1
    506    512     1
    506   1064     1
    507   1090     1
    508    513     1
    508   1089     1
    509    513     1
    509   1089     1
    510   1045     1
    510   1046     1
    511   1070     1
    511   1071     1
    512   1065     1
    513   1090     1
    516    540     1
    516    524     1
    516    525     1
    516    527     1
    516    528     1
    517    539     1
    517    520     1
    517    521     1
    517    523     1
    517    526     1
    518    539     1
    518    520     1
    518    521     1
    518    523     1
    518    526     1
    520    522     1
    520    540     1
    521    522     1
    521    540     1
    522    533     1
    522    534     1
    522    530     1
    522    531     1
    523    527     1
    523    528     1
    524    526     1
    524    536     1
    524    533     1
    524    534     1
    525    526     1
    525    536     1
    525    533     1
    525    534     1
    527    535     1
    527    530     1
    527    531     1
    528    535     1
    528    530     1
    528    531     1
    529   1115     1
    530    537     1
    530   1114     1
    531    537     1
    531   1114     1
    532   1140     1
    533    538     1
    533   1139     1
    534    538     1
    534   1139     1
    535   1095     1
    535   1096     1
    536   1120     1
    536   1121     1
    537   1115     1
    538   1140     1
    541    565     1
    541    549     1
    541    550     1
    541    552     1
    541    553     1
    542    564     1
    542    545     1
    542    546     1
    542    548     1
    542    551     1
    543    564     1
    543    545     1
    543    546     1
    543    548     1
    543    551     1
    545    547     1
    545    565     1
    546    547     1
    546    565     1
    547    558     1
    547    559     1
    547    555     1
    547    556     1
    548    552     1
    548    553     1
    549    551     1
    549    561     1
    549    558     1
    549    559     1
    550    551     1
    550    561     1
    550    558     1
    550    559     1
    552    560     1
    552    555     1
    552    556     1
    553    560     1
    553    555     1
    553    556     1
    554   1165     1
    555    562     1
    555   1164     1
    556    562     1
    556   1164     1
    557   1190     1
    558    563     1
    558   1189     1
    559    563     1
    559   1189     1
    560   1145     1
    560   1146     1
    561   1170     1
    561   1171     1
    562   1165     1
    563   1190     1
    566    590     1
    566    574     1
    566    575     1
    566    577     1
    566    578     1
    567    589     1
    567    570     1
    567    571     1
    567    573     1
    567    576     1
    568    589     1
    568    570     1
    568    571     1
    568    573     1
    568    576     1
    570    572     1
    570    590     1
    571    572     1
    571    590     1
    572    583     1
    572    584     1
    572    580     1
    572    581     1
    573    577     1
    573    578     1
    574    576     1
    574    586     1
    574    583     1
    574    584     1
    575    576     1
    575    586     1
    575    583     1
    575    584     1
    577    585     1
    577    580     1
    577    581     1
    578    585     1
    578    580     1
    578    581     1
    579   1215     1
    580    587     1
    580   1214     1
    581    587     1
    581   1214     1
    582   1240     1
    583    588     1
    583   1239     1
    584    588     1
    584   1239     1
    585   1195     1
    585   1196     1
    586   1220     1
    586   1221     1
    587   1215     1
    588   1240     1
    591    615     1
    591    599     1
    591    600     1
    591    602     1
    591    603     1
    592    614     1
    592    595     1
    592    596     1
    592    598     1
    592    601     1
    593    614     1
    593    595     1
    593    596     1
    593    598     1
    593    601     1
    595    597     1
    595    615     1
    596    597     1
    596    615     1
    597    608     1
    597    609     1
    597    605     1
    597    606     1
    598    602     1
    598    603     1
    599    601     1
    599    611     1
    599    608     1
    599    609     1
    600    601     1
    600    611     1
    600    608     1
    600    609     1
    602    610     1
    602    605     1
    602    606     1
    603    610     1
    603    605     1
    603    606     1
    604   1265     1
    605    612     1
    605   1264     1
    606    612     1
    606   1264     1
    607   1290     1
    608    613     1
    608   1289     1
    609    613     1
    609   1289     1
    610   1245     1
    610   1246     1
    611   1270     1
    611   1271     1
    612   1265     1
    613   1290     1
    616    640     1
    616    624     1
    616    625     1
    616    627     1
    616    628     1
    617    639     1
    617    620     1
    617    621     1
    617    623     1
    617    626     1
    618    639     1
    618    620     1
    618    621     1
    618    623     1
    618    626     1
    620    622     1
    620    640     1
    621    622     1
    621    640     1
    622    633     1
    622    634     1
    622    630     1
    622    631     1
    623    627     1
    623    628     1
    624    626     1
    624    636     1
    624    633     1
    624    634     1
    625    626     1
    625    636     1
    625    633     1
    625    634     1
    627    635     1
    627    630     1
    627    631     1
    628    635     1
    628    630     1
    628    631     1
    629   1315     1
    630    637     1
    630   1314     1
    631    637     1
    631   1314     1
    632   1340     1
    633    638     1
    633   1339     1
    634    638     1
    634   1339     1
    635   1295     1
    635   1296     1
    636   1320     1
    636   1321     1
    637   1315     1
    638   1340     1
    641    665     1
    641    649     1
    641    650     1
    641    652     1
    641    653     1
    642    664     1
    642    645     1
    642    646     1
    642    648     1
    642    651     1
    643    664     1
    643    645     1
    643    646     1
    643    648     1
    643    651     1
    645    647     1
    645    665     1
    646    647     1
    646    665     1
    647    658     1
    647    659     1
    647    655     1
    647    656     1
    648    652     1
    648    653     1
    649    651     1
    649    661     1
    649    658     1
    649    659     1
    650    651     1
    650    661     1
    650    658     1
    650    659     1
    652    660     1
    652    655     1
    652    656     1
    653    660     1
    653    655     1
    653    656     1
    654   1365     1
    655    662     1
    655   1364     1
    656    662     1
    656   1364     1
    657   1390     1
    658    663     1
    658   1389     1
    659    663     1
    659   1389     1
    660   1345     1
    660   1346     1
    661   1370     1
    661   1371     1
    662   1365     1
    663   1390     1
    666    690     1
    666    674     1
    666    675     1
    666    677     1
    666    678     1
    667    689     1
    667    670     1
    667    671     1
    667    673     1
    667    676     1
    668    689     1
    668    670     1
    668    671     1
    668    673     1
    668    676     1
    670    672     1
    670    690     1
    671    672     1
    671    690     1
    672    683     1
    672    684     1
    672    680     1
    672    681     1
    673    677     1
    673    678     1
    674    676     1
    674    686     1
    674    683     1
    674    684     1
    675    676     1
    675    686     1
    675    683     1
    675    684     1
    677    685     1
    677    680     1
    677    681     1
    678    685     1
    678    680     1
    678    681     1
    679   1415     1
    680    687     1
    680   1414     1
    681    687     1
    681   1414     1
    682   1440     1
    683    688     1
    683   1439     1
    684    688     1
    684   1439     1
    685   1395     1
    685   1396     1
    686   1420     1
    686   1421     1
    687   1415     1
    688   1440     1
    691    715     1
    691    699     1
    691    700     1
    691    702     1
    691    703     1
    692    714     1
    692    695     1
    692    696     1
    692    698     1
    692    701     1
    693    714     1
    693    695     1
    693    696     1
    693    698     1
    693    701     1
    695    697     1
    695    715     1
    696    697     1
    696    715     1
    697    708     1
    697    709     1
    697    705     1
    697    706     1
    698    702     1
    698    703     1
    699    701     1
    699    711     1
    699    708     1
    699    709     1
    700    701     1
    700    711     1
    700    708     1
    700    709     1
    702    710     1
    702    705     1
    702    706     1
    703    710     1
    703    705     1
    703    706     1
    704   1465     1
    705    712     1
    705   1464     1
    706    712     1
    706   1464     1
    707   1490     1
    708    713     1
    708   1489     1
    709    713     1
    709   1489     1
    710   1445     1
    710   1446     1
    711   1470     1
    711   1471     1
    712   1465     1
    713   1490     1
    716    740     1
    716    724     1
    716    725     1
    716    727     1
    716    728     1
    717    739     1
    717    720     1
    717    721     1
    717    723     1
    717    726     1
    718    739     1
    718    720     1
    718    721     1
    718    723     1
    718    726     1
    720    722     1
    720    740     1
    721    722     1
    721    740     1
    722    733     1
    722    734     1
    722    730     1
    722    731     1
    723    727     1
    723    728     1
    724    726     1
    724    736     1
    724    733     1
    724    734     1
    725    726     1
    725    736     1
    725    733     1
    725    734     1
    727    735     1
    727    730     1
    727    731     1
    728    735     1
    728    730     1
    728    731     1
    729   1515     1
    730    737     1
    730   1514     1
    731    737     1
    731   1514     1
    732   1540     1
    733    738     1
    733   1539     1
    734    738     1
    734   1539     1
    735   1495     1
    735   1496     1
    736   1520     1
    736   1521     1
    737   1515     1
    738   1540     1
    741    765     1
    741    749     1
    741    750     1
    741    752     1
    741    753     1
    742    764     1
    742    745     1
    742    746     1
    742    748     1
    742    751     1
    743    764     1
    743    745     1
    743    746     1
    743    748     1
    743    751     1
    745    747     1
    745    765     1
    746    747     1
    746    765     1
    747    758     1
    747    759     1
    747    755     1
    747    756     1
    748    752     1
    748    753     1
    749    751     1
    749    761     1
    749    758     1
    749    759     1
    750    751     1
    750    761     1
    750    758     1
    750    759     1
    752    760     1
    752    755     1
    752    756     1
    753    760     1
    753    755     1
    753    756     1
    754   1551     1
    755   1550     1
    755    762     1
    756   1550     1
    756    762     1
    757   1562     1
    758    763     1
    758   1561     1
    759    763     1
    759   1561     1
    760   1542     1
    760   1543     1
    761   1553     1
    761   1554     1
    762   1551     1
    763   1562     1
    766    790     1
    766    774     1
    766    775     1
    766    777     1
    766    778     1
    767    789     1
    767    770     1
    767    771     1
    767    773     1
    767    776     1
    768    789     1
    768    770     1
    768    771     1
    768    773     1
    768    776     1
    770    772     1
    770    790     1
    771    772     1
    771    790     1
    772    783     1
    772    784     1
    772    780     1
    772    781     1
    773    777     1
    773    778     1
    774    776     1
    774    786     1
    774    783     1
    774    784     1
    775    776     1
    775    786     1
    775    783     1
    775    784     1
    777    785     1
    777    780     1
    777    781     1
    778    785     1
    778    780     1
    778    781     1
    779   1573     1
    780   1572     1
    780    787     1
    781   1572     1
    781    787     1
    782   1584     1
    783    788     1
    783   1583     1
    784    788     1
    784   1583     1
    785   1564     1
    785   1565     1
    786   1575     1
    786   1576     1
    787   1573     1
    788   1584     1
    791    815     1
    791    799     1
    791    800     1
    791    802     1
    791    803     1
    792    814     1
    792    795     1
    792    796     1
    792    798     1
    792    801     1
    793    814     1
    793    795     1
    793    796     1
    793    798     1
    793    801     1
    795    797     1
    795    815     1
    796    797     1
    796    815     1
    797    808     1
    797    809     1
    797    805     1
    797    806     1
    798    802     1
    798    803     1
    799    801     1
    799    811     1
    799    808     1
    799    809     1
    800    801     1
    800    811     1
    800    808     1
    800    809     1
    802    810     1
    802    805     1
    802    806     1
    803    810     1
    803    805     1
    803    806     1
    804   1595     1
    805   1594     1
    805    812     1
    806   1594     1
    806    812     1
    807   1606     1
    808    813     1
    808   1605     1
    809    813     1
    809   1605     1
    810   1586     1
    810   1587     1
    811   1597     1
    811   1598     1
    812   1595     1
    813   1606     1
    816    840     1
    816    824     1
    816    825     1
    816    827     1
    816    828     1
    817    839     1
    817    820     1
    817    821     1
    817    823     1
    817    826     1
    818    839     1
    818    820     1
    818    821     1
    818    823     1
    818    826     1
    820    822     1
    820    840     1
    821    822     1
    821    840     1
    822    833     1
    822    834     1
    822    830     1
    822    831     1
    823    827     1
    823    828     1
    824    826     1
    824    836     1
    824    833     1
    824    834     1
    825    826     1
    825    836     1
    825    833     1
    825    834     1
    827    835     1
    827    830     1
    827    831     1
    828    835     1
    828    830     1
    828    831     1
    829   1617     1
    830   1616     1
    830    837     1
    831   1616     1
    831    837     1
    832   1628     1
    833    838     1
    833   1627     1
    834    838     1
    834   1627     1
    835   1608     1
    835   1609     1
    836   1619     1
    836   1620     1
    837   1617     1
    838   1628     1
    841    865     1
    841    849     1
    841    850     1
    841    852     1
    841    853     1
    842    864     1
    842    845     1
    842    846     1
    842    848     1
    842    851     1
    843    864     1
    843    845     1
    843    846     1
    843    848     1
    843    851     1
    845    847     1
    845    865     1
    846    847     1
    846    865     1
    847    858     1
    847    859     1
    847    855     1
    847    856     1
    848    852     1
    848    853     1
    849    851     1
    849    861     1
    849    858     1
    849    859     1
    850    851     1
    850    861     1
    850    858     1
    850    859     1
    852    860     1
    852    855     1
    852    856     1
    853    860     1
    853    855     1
    853    856     1
    854   1639     1
    855   1638     1
    855    862     1
    856   1638     1
    856    862     1
    857   1650     1
    858    863     1
    858   1649     1
    859    863     1
    859   1649     1
    860   1630     1
    860   1631     1
    861   1641     1
    861   1642     1
    862   1639     1
    863   1650     1
    866    890     1
    866    874     1
    866    875     1
    866    877     1
    866    878     1
    867    889     1
    867    870     1
    867    871     1
    867    873     1
    867    876     1
    868    889     1
    868    870     1
    868    871     1
    868    873     1
    868    876     1
    870    872     1
    870    890     1
    871    872     1
    871    890     1
    872    883     1
    872    884     1
    872    880     1
    872    881     1
    873    877     1
    873    878     1
    874    876     1
    874    886     1
    874    883     1
    874    884     1
    875    876     1
    875    886     1
    875    883     1
    875    884     1
    877    885     1
    877    880     1
    877    881     1
    878    885     1
    878    880     1
    878    881     1
    879   1661     1
    880   1660     1
    880    887     1
    881   1660     1
    881    887     1
    882   1672     1
    883    888     1
    883   1671     1
    884    888     1
    884   1671     1
    885   1652     1
    885   1653     1
    886   1663     1
    886   1664     1
    887   1661     1
    888   1672     1
    891    915     1
    891    899     1
    891    900     1
    891    902     1
    891    903     1
    892    914     1
    892    895     1
    892    896     1
    892    898     1
    892    901     1
    893    914     1
    893    895     1
    893    896     1
    893    898     1
    893    901     1
    895    897     1
    895    915     1
    896    897     1
    896    915     1
    897    908     1
    897    909     1
    897    905     1
    897    906     1
    898    902     1
    898    903     1
    899    901     1
    899    911     1
    899    908     1
    899    909     1
    900    901     1
    900    911     1
    900    908     1
    900    909     1
    902    910     1
    902    905     1
    902    906     1
    903    910     1
    903    905     1
    903    906     1
    904   1683     1
    905   1682     1
    905    912     1
    906   1682     1
    906    912     1
    907   1694     1
    908    913     1
    908   1693     1
    909    913     1
    909   1693     1
    910   1674     1
    910   1675     1
    911   1685     1
    911   1686     1
    912   1683     1
    913   1694     1
    916    940     1
    916    924     1
    916    925     1
    916    927     1
    916    928     1
    917    939     1
    917    920     1
    917    921     1
    917    923     1
    917    926     1
    918    939     1
    918    920     1
    918    921     1
    918    923     1
    918    926     1
    920    922     1
    920    940     1
    921    922     1
    921    940     1
    922    933     1
    922    934     1
    922    930     1
    922    931     1
    923    927     1
    923    928     1
    924    926     1
    924    936     1
    924    933     1
    924    934     1
    925    926     1
    925    936     1
    925    933     1
    925    934     1
    927    935     1
    927    930     1
    927    931     1
    928    935     1
    928    930     1
    928    931     1
    929   1705     1
    930   1704     1
    930    937     1
    931   1704     1
    931    937     1
    932   1716     1
    933    938     1
    933   1715     1
    934    938     1
    934   1715     1
    935   1696     1
    935   1697     1
    936   1707     1
    936   1708     1
    937   1705     1
    938   1716     1
    941    965     1
    941    949     1
    941    950     1
    941    952     1
    941    953     1
    942    964     1
    942    945     1
    942    946     1
    942    948     1
    942    951     1
    943    964     1
    943    945     1
    943    946     1
    943    948     1
    943    951     1
    945    947     1
    945    965     1
    946    947     1
    946    965     1
    947    958     1
    947    959     1
    947    955     1
    947    956     1
    948    952     1
    948    953     1
    949    951     1
    949    961     1
    949    958     1
    949    959     1
    950    951     1
    950    961     1
    950    958     1
    950    959     1
    952    960     1
    952    955     1
    952    956     1
    953    960     1
    953    955     1
    953    956     1
    954   1727     1
    955   1726     1
    955    962     1
    956   1726     1
    956    962     1
    957   1738     1
    958    963     1
    958   1737     1
    959    963     1
    959   1737     1
    960   1718     1
    960   1719     1
    961   1729     1
    961   1730     1
    962   1727     1
    963   1738     1
    966    990     1
    966    974     1
    966    975     1
    966    977     1
    966    978     1
    967    989     1
    967    970     1
    967    971     1
    967    973     1
    967    976     1
    968    989     1
    968    970     1
    968    971     1
    968    973     1
    968    976     1
    970    972     1
    970    990     1
    971    972     1
    971    990     1
    972    983     1
    972    984     1
    972    980     1
    972    981     1
    973    977     1
    973    978     1
    974    976     1
    974    986     1
    974    983     1
    974    984     1
    975    976     1
    975    986     1
    975    983     1
    975    984     1
    977    985     1
    977    980     1
    977    981     1
    978    985     1
    978    980     1
    978    981     1
    979   1749     1
    980   1748     1
    980    987     1
    981   1748     1
    981    987     1
    982   1760     1
    983    988     1
    983   1759     1
    984    988     1
    984   1759     1
    985   1740     1
    985   1741     1
    986   1751     1
    986   1752     1
    987   1749     1
    988   1760     1
    991   1015     1
    991    999     1
    991   1000     1
    991   1002     1
    991   1003     1
    992   1014     1
    992    995     1
    992    996     1
    992    998     1
    992   1001     1
    993   1014     1
    993    995     1
    993    996     1
    993    998     1
    993   1001     1
    995    997     1
    995   1015     1
    996    997     1
    996   1015     1
    997   1008     1
    997   1009     1
    997   1005     1
    997   1006     1
    998   1002     1
    998   1003     1
    999   1001     1
    999   1011     1
    999   1008     1
    999   1009     1
   1000   1001     1
   1000   1011     1
   1000   1008     1
   1000   1009     1
   1002   1010     1
   1002   1005     1
   1002   1006     1
   1003   1010     1
   1003   1005     1
   1003   1006     1
   1004   1771     1
   1005   1770     1
   1005   1012     1
   1006   1770     1
   1006   1012     1
   1007   1782     1
   1008   1013     1
   1008   1781     1
   1009   1013     1
   1009   1781     1
   1010   1762     1
   1010   1763     1
   1011   1773     1
   1011   1774     1
   1012   1771     1
   1013   1782     1
   1016   1040     1
   1016   1024     1
   1016   1025     1
   1016   1027     1
   1016   1028     1
   1017   1039     1
   1017   1020     1
   1017   1021     1
   1017   1023     1
   1017   1026     1
   1018   1039     1
   1018   1020     1
   1018   1021     1
   1018   1023     1
   1018   1026     1
   1020   1022     1
   1020   1040     1
   1021   1022     1
   1021   1040     1
   1022   1033     1
   1022   1034     1
   1022   1030     1
   1022   1031     1
   1023   1027     1
   1023   1028     1
   1024   1026     1
   1024   1036     1
   1024   1033     1
   1024   1034     1
   1025   1026     1
   1025   1036     1
   1025   1033     1
   1025   1034     1
   1027   1035     1
   1027   1030     1
   1027   1031     1
   1028   1035     1
   1028   1030     1
   1028   1031     1
   1029   1793     1
   1030   1792     1
   1030   1037     1
   1031   1792     1
   1031   1037     1
   1032   1804     1
   1033   1038     1
   1033   1803     1
   1034   1038     1
   1034   1803     1
   1035   1784     1
   1035   1785     1
   1036   1795     1
   1036   1796     1
   1037   1793     1
   1038   1804     1
   1041   1065     1
   1041   1049     1
   1041   1050     1
   1041   1052     1
   1041   1053     1
   1042   1064     1
   1042   1045     1
   1042   1046     1
   1042   1048     1
   1042   1051     1
   1043   1064     1
   1043   1045     1
   1043   1046     1
   1043   1048     1
   1043   1051     1
   1045   1047     1
   1045   1065     1
   1046   1047     1
   1046   1065     1
   1047   1058     1
   1047   1059     1
   1047   1055     1
   1047   1056     1
   1048   1052     1
   1048   1053     1
   1049   1051     1
   1049   1061     1
   1049   1058     1
   1049   1059     1
   1050   1051     1
   1050   1061     1
   1050   1058     1
   1050   1059     1
   1052   1060     1
   1052   1055     1
   1052   1056     1
   1053   1060     1
   1053   1055     1
   1053   1056     1
   1054   1815     1
   1055   1814     1
   1055   1062     1
   1056   1814     1
   1056   1062     1
   1057   1826     1
   1058   1063     1
   1058   1825     1
   1059   1063     1
   1059   1825     1
   1060   1806     1
   1060   1807     1
   1061   1817     1
   1061   1818     1
   1062   1815     1
   1063   1826     1
   1066   1090     1
   1066   1074     1
   1066   1075     1
   1066   1077     1
   1066   1078     1
   1067   1089     1
   1067   1070     1
   1067   1071     1
   1067   1073     1
   1067   1076     1
   1068   1089     1
   1068   1070     1
   1068   1071     1
   1068   1073     1
   1068   1076     1
   1070   1072     1
   1070   1090     1
   1071   1072     1
   1071   1090     1
   1072   1083     1
   1072   1084     1
   1072   1080     1
   1072   1081     1
   1073   1077     1
   1073   1078     1
   1074   1076     1
   1074   1086     1
   1074   1083     1
   1074   1084     1
   1075   1076     1
   1075   1086     1
   1075   1083     1
   1075   1084     1
   1077   1085     1
   1077   1080     1
   1077   1081     1
   1078   1085     1
   1078   1080     1
   1078   1081     1
   1079   1837     1
   1080   1836     1
   1080   1087     1
   1081   1836     1
   1081   1087     1
   1082   1848     1
   1083   1088     1
   1083   1847     1
   1084   1088     1
   1084   1847     1
   1085   1828     1
   1085   1829     1
   1086   1839     1
   1086   1840     1
   1087   1837     1
   1088   1848     1
   1091   1115     1
   1091   1099     1
   1091   1100     1
   1091   1102     1
   1091   1103     1
   1092   1114     1
   1092   1095     1
   1092   1096     1
   1092   1098     1
   1092   1101     1
   1093   1114     1
   1093   1095     1
   1093   1096     1
   1093   1098     1
   1093   1101     1
   1095   1097     1
   1095   1115     1
   1096   1097     1
   1096   1115     1
   1097   1108     1
   1097   1109     1
   1097   1105     1
   1097   1106     1
   1098   1102     1
   1098   1103     1
   1099   1101     1
   1099   1111     1
   1099   1108     1
   1099   1109     1
   1100   1101     1
   1100   1111     1
   1100   1108     1
   1100   1109     1
   1102   1110     1
   1102   1105     1
   1102   1106     1
   1103   1110     1
   1103   1105     1
   1103   1106     1
   1104   1859     1
   1105   1858     1
   1105   1112     1
   1106   1858     1
   1106   1112     1
   1107   1870     1
   1108   1113     1
   1108   1869     1
   1109   1113     1
   1109   1869     1
   1110   1850     1
   1110   1851     1
   1111   1861     1
   1111   1862     1
   1112   1859     1
   1113   1870     1
   1116   1140     1
   1116   1124     1
   1116   1125     1
   1116   1127     1
   1116   1128     1
   1117   1139     1
   1117   1120     1
   1117   1121     1
   1117   1123     1
   1117   1126     1
   1118   1139     1
   1118   1120     1
   1118   1121     1
   1118   1123     1
   1118   1126     1
   1120   1122     1
   1120   1140     1
   1121   1122     1
   1121   1140     1
   1122   1133     1
   1122   1134     1
   1122   1130     1
   1122   1131     1
   1123   1127     1
   1123   1128     1
   1124   1126     1
   1124   1136     1
   1124   1133     1
   1124   1134     1
   1125   1126     1
   1125   1136     1
   1125   1133     1
   1125   1134     1
   1127   1135     1
   1127   1130     1
   1127   1131     1
   1128   1135     1
   1128   1130     1
   1128   1131     1
   1129   1881     1
   1130   1880     1
   1130   1137     1
   1131   1880     1
   1131   1137     1
   1132   1892     1
   1133   1138     1
   1133   1891     1
   1134   1138     1
   1134   1891     1
   1135   1872     1
   1135   1873     1
   1136   1883     1
   1136   1884     1
   1137   1881     1
   1138   1892     1
   1141   1165     1
   1141   1149     1
   1141   1150     1
   1141   1152     1
   1141   1153     1
   1142   1164     1
   1142   1145     1
   1142   1146     1
   1142   1148     1
   1142   1151     1
   1143   1164     1
   1143   1145     1
   1143   1146     1
   1143   1148     1
   1143   1151     1
   1145   1147     1
   1145   1165     1
   1146   1147     1
   1146   1165     1
   1147   1158     1
   1147   1159     1
   1147   1155     1
   1147   1156     1
   1148   1152     1
   1148   1153     1
   1149   1151     1
   1149   1161     1
   1149   1158     1
   1149   1159     1
   1150   1151     1
   1150   1161     1
   1150   1158     1
   1150   1159     1
   1152   1160     1
   1152   1155     1
   1152   1156     1
   1153   1160     1
   1153   1155     1
   1153   1156     1
   1154   1903     1
   1155   1902     1
   1155   1162     1
   1156   1902     1
   1156   1162     1
   1157   1914     1
   1158   1163     1
   1158   1913     1
   1159   1163     1
   1159   1913     1
   1160   1894     1
   1160   1895     1
   1161   1905     1
   1161   1906     1
   1162   1903     1
   1163   1914     1
   1166   1190     1
   1166   1174     1
   1166   1175     1
   1166   1177     1
   1166   1178     1
   1167   1189     1
   1167   1170     1
   1167   1171     1
   1167   1173     1
   1167   1176     1
   1168   1189     1
   1168   1170     1
   1168   1171     1
   1168   1173     1
   1168   1176     1
   1170   1172     1
   1170   1190     1
   1171   1172     1
   1171   1190     1
   1172   1183     1
   1172   1184     1
   1172   1180     1
   1172   1181     1
   1173   1177     1
   1173   1178     1
   1174   1176     1
   1174   1186     1
   1174   1183     1
   1174   1184     1
   1175   1176     1
   1175   1186     1
   1175   1183     1
   1175   1184     1
   1177   1185     1
   1177   1180     1
   1177   1181     1
   1178   1185     1
   1178   1180     1
   1178   1181     1
   1179   1925     1
   1180   1924     1
   1180   1187     1
   1181   1924     1
   1181   1187     1
   1182   1936     1
   1183   1188     1
   1183   1935     1
   1184   1188     1
   1184   1935     1
   1185   1916     1
   1185   1917     1
   1186   1927     1
   1186   1928     1
   1187   1925     1
   1188   1936     1
   1191   1215     1
   1191   1199     1
   1191   1200     1
   1191   1202     1
   1191   1203     1
   1192   1214     1
   1192   1195     1
   1192   1196     1
   1192   1198     1
   1192   1201     1
   1193   1214     1
   1193   1195     1
   1193   1196     1
   1193   1198     1
   1193   1201     1
   1195   1197     1
   1195   1215     1
   1196   1197     1
   1196   1215     1
   1197   1208     1
   1197   1209     1
   1197   1205     1
   1197   1206     1
   1198   1202     1
   1198   1203     1
   1199   1201     1
   1199   1211     1
   1199   1208     1
   1199   1209     1
   1200   1201     1
   1200   1211     1
   1200   1208     1
   1200   1209     1
   1202   1210     1
   1202   1205     1
   1202   1206     1
   1203   1210     1
   1203   1205     1
   1203   1206     1
   1204   1947     1
   1205   1946     1
   1205   1212     1
   1206   1946     1
   1206   1212     1
   1207   1958     1
   1208   1213     1
   1208   1957     1
   1209   1213     1
   1209   1957     1
   1210   1938     1
   1210   1939     1
   1211   1949     1
   1211   1950     1
   1212   1947     1
   1213   1958     1
   1216   1240     1
   1216   1224     1
   1216   1225     1
   1216   1227     1
   1216   1228     1
   1217   1239     1
   1217   1220     1
   1217   1221     1
   1217   1223     1
   1217   1226     1
   1218   1239     1
   1218   1220     1
   1218   1221     1
   1218   1223     1
   1218   1226     1
   1220   1222     1
   1220   1240     1
   1221   1222     1
   1221   1240     1
   1222   1233     1
   1222   1234     1
   1222   1230     1
   1222   1231     1
   1223   1227     1
   1223   1228     1
   1224   1226     1
   1224   1236     1
   1224   1233     1
   1224   1234     1
   1225   1226     1
   1225   1236     1
   1225   1233     1
   1225   1234     1
   1227   1235     1
   1227   1230     1
   1227   1231     1
   1228   1235     1
   1228   1230     1
   1228   1231     1
   1229   1969     1
   1230   1968     1
   1230   1237     1
   1231   1968     1
   1231   1237     1
   1232   1980     1
   1233   1238     1
   1233   1979     1
   1234   1238     1
   1234   1979     1
   1235   1960     1
   1235   1961     1
   1236   1971     1
   1236   1972     1
   1237   1969     1
   1238   1980     1
   1241   1265     1
   1241   1249     1
   1241   1250     1
   1241   1252     1
   1241   1253     1
   1242   1264     1
   1242   1245     1
   1242   1246     1
   1242   1248     1
   1242   1251     1
   1243   1264     1
   1243   1245     1
   1243   1246     1
   1243   1248     1
   1243   1251     1
   1245   1247     1
   1245   1265     1
   1246   1247     1
   1246   1265     1
   1247   1258     1
   1247   1259     1
   1247   1255     1
   1247   1256     1
   1248   1252     1
   1248   1253     1
   1249   1251     1
   1249   1261     1
   1249   1258     1
   1249   1259     1
   1250   1251     1
   1250   1261     1
   1250   1258     1
   1250   1259     1
   1252   1260     1
   1252   1255     1
   1252   1256     1
   1253   1260     1
   1253   1255     1
   1253   1256     1
   1254   1991     1
   1255   1990     1
   1255   1262     1
   1256   1990     1
   1256   1262     1
   1257   2002     1
   1258   1263     1
   1258   2001     1
   1259   1263     1
   1259   2001     1
   1260   1982     1
   1260   1983     1
   1261   1993     1
   1261   1994     1
   1262   1991     1
   1263   2002     1
   1266   1290     1
   1266   1274     1
   1266   1275     1
   1266   1277     1
   1266   1278     1
   1267   1289     1
   1267   1270     1
   1267   1271     1
   1267   1273     1
   1267   1276     1
   1268   1289     1
   1268   1270     1
   1268   1271     1
   1268   1273     1
   1268   1276     1
   1270   1272     1
   1270   1290     1
   1271   1272     1
   1271   1290     1
   1272   1283     1
   1272   1284     1
   1272   1280     1
   1272   1281     1
   1273   1277     1
   1273   1278     1
   1274   1276     1
   1274   1286     1
   1274   1283     1
   1274   1284     1
   1275   1276     1
   1275   1286     1
   1275   1283     1
   1275   1284     1
   1277   1285     1
   1277   1280     1
   1277   1281     1
   1278   1285     1
   1278   1280     1
   1278   1281     1
   1279   2013     1
   1280   2012     1
   1280   1287     1
   1281   2012     1
   1281   1287     1
   1282   2024     1
   1283   1288     1
   1283   2023     1
   1284   1288     1
   1284   2023     1
   1285   2004     1
   1285   2005     1
   1286   2015     1
   1286   2016     1
   1287   2013     1
   1288   2024     1
   1291   1315     1
   1291   1299     1
   1291   1300     1
   1291   1302     1
   1291   1303     1
   1292   1314     1
   1292   1295     1
   1292   1296     1
   1292   1298     1
   1292   1301     1
   1293   1314     1
   1293   1295     1
   1293   1296     1
   1293   1298     1
   1293   1301     1
   1295   1297     1
   1295   1315     1
   1296   1297     1
   1296   1315     1
   1297   1308     1
   1297   1309     1
   1297   1305     1
   1297   1306     1
   1298   1302     1
   1298   1303     1
   1299   1301     1
   1299   1311     1
   1299   1308     1
   1299   1309     1
   1300   1301     1
   1300   1311     1
   1300   1308     1
   1300   1309     1
   1302   1310     1
   1302   1305     1
   1302   1306     1
   1303   1310     1
   1303   1305     1
   1303   1306     1
   1304   2035     1
   1305   2034     1
   1305   1312     1
   1306   2034     1
   1306   1312     1
   1307   2046     1
   1308   1313     1
   1308   2045     1
   1309   1313     1
   1309   2045     1
   1310   2026     1
   1310   2027     1
   1311   2037     1
   1311   2038     1
   1312   2035     1
   1313   2046     1
   1316   1340     1
   1316   1324     1
   1316   1325     1
   1316   1327     1
   1316   1328     1
   1317   1339     1
   1317   1320     1
   1317   1321     1
   1317   1323     1
   1317   1326     1
   1318   1339     1
   1318   1320     1
   1318   1321     1
   1318   1323     1
   1318   1326     1
   1320   1322     1
   1320   1340     1
   1321   1322     1
   1321   1340     1
   1322   1333     1
   1322   1334     1
   1322   1330     1
   1322   1331     1
   1323   1327     1
   1323   1328     1
   1324   1326     1
   1324   1336     1
   1324   1333     1
   1324   1334     1
   1325   1326     1
   1325   1336     1
   1325   1333     1
   1325   1334     1
   1327   1335     1
   1327   1330     1
   1327   1331     1
   1328   1335     1
   1328   1330     1
   1328   1331     1
   1329   2057     1
   1330   2056     1
   1330   1337     1
   1331   2056     1
   1331   1337     1
   1332   2068     1
   1333   1338     1
   1333   2067     1
   1334   1338     1
   1334   2067     1
   1335   2048     1
   1335   2049     1
   1336   2059     1
   1336   2060     1
   1337   2057     1
   1338   2068     1
   1341   1365     1
   1341   1349     1
   1341   1350     1
   1341   1352     1
   1341   1353     1
   1342   1364     1
   1342   1345     1
   1342   1346     1
   1342   1348     1
   1342   1351     1
   1343   1364     1
   1343   1345     1
   1343   1346     1
   1343   1348     1
   1343   1351     1
   1345   1347     1
   1345   1365     1
   1346   1347     1
   1346   1365     1
   1347   1358     1
   1347   1359     1
   1347   1355     1
   1347   1356     1
   1348   1352     1
   1348   1353     1
   1349   1351     1
   1349   1361     1
   1349   1358     1
   1349   1359     1
   1350   1351     1
   1350   1361     1
   1350   1358     1
   1350   1359     1
   1352   1360     1
   1352   1355     1
   1352   1356     1
   1353   1360     1
   1353   1355     1
   1353   1356     1
   1354   2079     1
   1355   2078     1
   1355   1362     1
   1356   2078     1
   1356   1362     1
   1357   2090     1
   1358   1363     1
   1358   2089     1
   1359   1363     1
   1359   2089     1
   1360   2070     1
   1360   2071     1
   1361   2081     1
   1361   2082     1
   1362   2079     1
   1363   2090     1
   1366   1390     1
   1366   1374     1
   1366   1375     1
   1366   1377     1
   1366   1378     1
   1367   1389     1
   1367   1370     1
   1367   1371     1
   1367   1373     1
   1367   1376     1
   1368   1389     1
   1368   1370     1
   1368   1371     1
   1368   1373     1
   1368   1376     1
   1370   1372     1
   1370   1390     1
   1371   1372     1
   1371   1390     1
   1372   1383     1
   1372   1384     1
   1372   1380     1
   1372   1381     1
   1373   1377     1
   1373   1378     1
   1374   1376     1
   1374   1386     1
   1374   1383     1
   1374   1384     1
   1375   1376     1
   1375   1386     1
   1375   1383     1
   1375   1384     1
   1377   1385     1
   1377   1380     1
   1377   1381     1
   1378   1385     1
   1378   1380     1
   1378   1381     1
   1379   2101     1
   1380   2100     1
   1380   1387     1
   1381   2100     1
   1381   1387     1
   1382   2112     1
   1383   1388     1
   1383   2111     1
   1384   1388     1
   1384   2111     1
   1385   2092     1
   1385   2093     1
   1386   2103     1
   1386   2104     1
   1387   2101     1
   1388   2112     1
   1391   1415     1
   1391   1399     1
   1391   1400     1
   1391   1402     1
   1391   1403     1
   1392   1414     1
   1392   1395     1
   1392   1396     1
   1392   1398     1
   1392   1401     1
   1393   1414     1
   1393   1395     1
   1393   1396     1
   1393   1398     1
   1393   1401     1
   1395   1397     1
   1395   1415     1
   1396   1397     1
   1396   1415     1
   1397   1408     1
   1397   1409     1
   1397   1405     1
   1397   1406     1
   1398   1402     1
   1398   1403     1
   1399   1401     1
   1399   1411     1
   1399   1408     1
   1399   1409     1
   1400   1401     1
   1400   1411     1
   1400   1408     1
   1400   1409     1
   1402   1410     1
   1402   1405     1
   1402   1406     1
   1403   1410     1
   1403   1405     1
   1403   1406     1
   1404   2123     1
   1405   2122     1
   1405   1412     1
   1406   2122     1
   1406   1412     1
   1407   2134     1
   1408   1413     1
   1408   2133     1
   1409   1413     1
   1409   2133     1
   1410   2114     1
   1410   2115     1
   1411   2125     1
   1411   2126     1
   1412   2123     1
   1413   2134     1
   1416   1440     1
   1416   1424     1
   1416   1425     1
   1416   1427     1
   1416   1428     1
   1417   1439     1
   1417   1420     1
   1417   1421     1
   1417   1423     1
   1417   1426     1
   1418   1439     1
   1418   1420     1
   1418   1421     1
   1418   1423     1
   1418   1426     1
   1420   1422     1
   1420   1440     1
   1421   1422     1
   1421   1440     1
   1422   1433     1
   1422   1434     1
   1422   1430     1
   1422   1431     1
   1423   1427     1
   1423   1428     1
   1424   1426     1
   1424   1436     1
   1424   1433     1
   1424   1434     1
   1425   1426     1
   1425   1436     1
   1425   1433     1
   1425   1434     1
   1427   1435     1
   1427   1430     1
   1427   1431     1
   1428   1435     1
   1428   1430     1
   1428   1431     1
   1429   2145     1
   1430   2144     1
   1430   1437     1
   1431   2144     1
   1431   1437     1
   1432   2156     1
   1433   1438     1
   1433   2155     1
   1434   1438     1
   1434   2155     1
   1435   2136     1
   1435   2137     1
   1436   2147     1
   1436   2148     1
   1437   2145     1
   1438   2156     1
   1441   1465     1
   1441   1449     1
   1441   1450     1
   1441   1452     1
   1441   1453     1
   1442   1464     1
   1442   1445     1
   1442   1446     1
   1442   1448     1
   1442   1451     1
   1443   1464     1
   1443   1445     1
   1443   1446     1
   1443   1448     1
   1443   1451     1
   1445   1447     1
   1445   1465     1
   1446   1447     1
   1446   1465     1
   1447   1458     1
   1447   1459     1
   1447   1455     1
   1447   1456     1
   1448   1452     1
   1448   1453     1
   1449   1451     1
   1449   1461     1
   1449   1458     1
   1449   1459     1
   1450   1451     1
   1450   1461     1
   1450   1458     1
   1450   1459     1
   1452   1460     1
   1452   1455     1
   1452   1456     1
   1453   1460     1
   1453   1455     1
   1453   1456     1
   1454   2167     1
   1455   2166     1
   1455   1462     1
   1456   2166     1
   1456   1462     1
   1457   2178     1
   1458   1463     1
   1458   2177     1
   1459   1463     1
   1459   2177     1
   1460   2158     1
   1460   2159     1
   1461   2169     1
   1461   2170     1
   1462   2167     1
   1463   2178     1
   1466   1490     1
   1466   1474     1
   1466   1475     1
   1466   1477     1
   1466   1478     1
   1467   1489     1
   1467   1470     1
   1467   1471     1
   1467   1473     1
   1467   1476     1
   1468   1489     1
   1468   1470     1
   1468   1471     1
   1468   1473     1
   1468   1476     1
   1470   1472     1
   1470   1490     1
   1471   1472     1
   1471   1490     1
   1472   1483     1
   1472   1484     1
   1472   1480     1
   1472   1481     1
   1473   1477     1
   1473   1478     1
   1474   1476     1
   1474   1486     1
   1474   1483     1
   1474   1484     1
   1475   1476     1
   1475   1486     1
   1475   1483     1
   1475   1484     1
   1477   1485     1
   1477   1480     1
   1477   1481     1
   1478   1485     1
   1478   1480     1
   1478   1481     1
   1479   2189     1
   1480   2188     1
   1480   1487     1
   1481   2188     1
   1481   1487     1
   1482   2200     1
   1483   1488     1
   1483   2199     1
   1484   1488     1
   1484   2199     1
   1485   2180     1
   1485   2181     1
   1486   2191     1
   1486   2192     1
   1487   2189     1
   1488   2200     1
   1491   1515     1
   1491   1499     1
   1491   1500     1
   1491   1502     1
   1491   1503     1
   1492   1514     1
   1492   1495     1
   1492   1496     1
   1492   1498     1
   1492   1501     1
   1493   1514     1
   1493   1495     1
   1493   1496     1
   1493   1498     1
   1493   1501     1
   1495   1497     1
   1495   1515     1
   1496   1497     1
   1496   1515     1
   1497   1508     1
   1497   1509     1
   1497   1505     1
   1497   1506     1
   1498   1502     1
   1498   1503     1
   1499   1501     1
   1499   1511     1
   1499   1508     1
   1499   1509     1
   1500   1501     1
   1500   1511     1
   1500   1508     1
   1500   1509     1
   1502   1510     1
   1502   1505     1
   1502   1506     1
   1503   1510     1
   1503   1505     1
   1503   1506     1
   1504   2211     1
   1505   2210     1
   1505   1512     1
   1506   2210     1
   1506   1512     1
   1507   2222     1
   1508   1513     1
   1508   2221     1
   1509   1513     1
   1509   2221     1
   1510   2202     1
   1510   2203     1
   1511   2213     1
   1511   2214     1
   1512   2211     1
   1513   2222     1
   1516   1540     1
   1516   1524     1
   1516   1525     1
   1516   1527     1
   1516   1528     1
   1517   1539     1
   1517   1520     1
   1517   1521     1
   1517   1523     1
   1517   1526     1
   1518   1539     1
   1518   1520     1
   1518   1521     1
   1518   1523     1
   1518   1526     1
   1520   1522     1
   1520   1540     1
   1521   1522     1
   1521   1540     1
   1522   1533     1
   1522   1534     1
   1522   1530     1
   1522   1531     1
   1523   1527     1
   1523   1528     1
   1524   1526     1
   1524   1536     1
   1524   1533     1
   1524   1534     1
   1525   1526     1
   1525   1536     1
   1525   1533     1
   1525   1534     1
   1527   1535     1
   1527   1530     1
   1527   1531     1
   1528   1535     1
   1528   1530     1
   1528   1531     1
   1529   2233     1
   1530   2232     1
   1530   1537     1
   1531   2232     1
   1531   1537     1
   1532   2244     1
   1533   2243     1
   1533   1538     1
   1534   2243     1
   1534   1538     1
   1535   2224     1
   1535   2225     1
   1536   2235     1
   1536   2236     1
   1537   2233     1
   1538   2244     1
   1541   1548     1
   1541   1549     1
   1542   1547     1
   1542   1545     1
   1542   1546     1
   1542   1551     1
   1543   1547     1
   1543   1545     1
   1543   1546     1
   1543   1551     1
   1544   1551     1
   1545   1550     1
   1545   1548     1
   1545   1549     1
   1546   1550     1
   1546   1548     1
   1546   1549     1
   1552   1559     1
   1552   1560     1
   1553   1558     1
   1553   1556     1
   1553   1557     1
   1553   1562     1
   1554   1558     1
   1554   1556     1
   1554   1557     1
   1554   1562     1
   1555   1562     1
   1556   1559     1
   1556   1560     1
   1556   1561     1
   1557   1559     1
   1557   1560     1
   1557   1561     1
   1563   1570     1
   1563   1571     1
   1564   1569     1
   1564   1567     1
   1564   1568     1
   1564   1573     1
   1565   1569     1
   1565   1567     1
   1565   1568     1
   1565   1573     1
   1566   1573     1
   1567   1572     1
   1567   1570     1
   1567   1571     1
   1568   1572     1
   1568   1570     1
   1568   1571     1
   1574   1581     1
   1574   1582     1
   1575   1580     1
   1575   1578     1
   1575   1579     1
   1575   1584     1
   1576   1580     1
   1576   1578     1
   1576   1579     1
   1576   1584     1
   1577   1584     1
   1578   1581     1
   1578   1582     1
   1578   1583     1
   1579   1581     1
   1579   1582     1
   1579   1583     1
   1585   1592     1
   1585   1593     1
   1586   1591     1
   1586   1589     1
   1586   1590     1
   1586   1595     1
   1587   1591     1
   1587   1589     1
   1587   1590     1
   1587   1595     1
   1588   1595     1
   1589   1594     1
   1589   1592     1
   1589   1593     1
   1590   1594     1
   1590   1592     1
   1590   1593     1
   1596   1603     1
   1596   1604     1
   1597   1602     1
   1597   1600     1
   1597   1601     1
   1597   1606     1
   1598   1602     1
   1598   1600     1
   1598   1601     1
   1598   1606     1
   1599   1606     1
   1600   1603     1
   1600   1604     1
   1600   1605     1
   1601   1603     1
   1601   1604     1
   1601   1605     1
   1607   1614     1
   1607   1615     1
   1608   1613     1
   1608   1611     1
   1608   1612     1
   1608   1617     1
   1609   1613     1
   1609   1611     1
   1609   1612     1
   1609   1617     1
   1610   1617     1
   1611   1616     1
   1611   1614     1
   1611   1615     1
   1612   1616     1
   1612   1614     1
   1612   1615     1
   1618   1625     1
   1618   1626     1
   1619   1624     1
   1619   1622     1
   1619   1623     1
   1619   1628     1
   1620   1624     1
   1620   1622     1
   1620   1623     1
   1620   1628     1
   1621   1628     1
   1622   1625     1
   1622   1626     1
   1622   1627     1
   1623   1625     1
   1623   1626     1
   1623   1627     1
   1629   1636     1
   1629   1637     1
   1630   1635     1
   1630   1633     1
   1630   1634     1
   1630   1639     1
   1631   1635     1
   1631   1633     1
   1631   1634     1
   1631   1639     1
   1632   1639     1
   1633   1638     1
   1633   1636     1
   1633   1637     1
   1634   1638     1
   1634   1636     1
   1634   1637     1
   1640   1647     1
   1640   1648     1
   1641   1646     1
   1641   1644     1
   1641   1645     1
   1641   1650     1
   1642   1646     1
   1642   1644     1
   1642   1645     1
   1642   1650     1
   1643   1650     1
   1644   1647     1
   1644   1648     1
   1644   1649     1
   1645   1647     1
   1645   1648     1
   1645   1649     1
   1651   1658     1
   1651   1659     1
   1652   1657     1
   1652   1655     1
   1652   1656     1
   1652   1661     1
   1653   1657     1
   1653   1655     1
   1653   1656     1
   1653   1661     1
   1654   1661     1
   1655   1660     1
   1655   1658     1
   1655   1659     1
   1656   1660     1
   1656   1658     1
   1656   1659     1
   1662   1669     1
   1662   1670     1
   1663   1668     1
   1663   1666     1
   1663   1667     1
   1663   1672     1
   1664   1668     1
   1664   1666     1
   1664   1667     1
   1664   1672     1
   1665   1672     1
   1666   1669     1
   1666   1670     1
   1666   1671     1
   1667   1669     1
   1667   1670     1
   1667   1671     1
   1673   1680     1
   1673   1681     1
   1674   1679     1
   1674   1677     1
   1674   1678     1
   1674   1683     1
   1675   1679     1
   1675   1677     1
   1675   1678     1
   1675   1683     1
   1676   1683     1
   1677   1682     1
   1677   1680     1
   1677   1681     1
   1678   1682     1
   1678   1680     1
   1678   1681     1
   1684   1691     1
   1684   1692     1
   1685   1690     1
   1685   1688     1
   1685   1689     1
   1685   1694     1
   1686   1690     1
   1686   1688     1
   1686   1689     1
   1686   1694     1
   1687   1694     1
   1688   1691     1
   1688   1692     1
   1688   1693     1
   1689   1691     1
   1689   1692     1
   1689   1693     1
   1695   1702     1
   1695   1703     1
   1696   1701     1
   1696   1699     1
   1696   1700     1
   1696   1705     1
   1697   1701     1
   1697   1699     1
   1697   1700     1
   1697   1705     1
   1698   1705     1
   1699   1704     1
   1699   1702     1
   1699   1703     1
   1700   1704     1
   1700   1702     1
   1700   1703     1
   1706   1713     1
   1706   1714     1
   1707   1712     1
   1707   1710     1
   1707   1711     1
   1707   1716     1
   1708   1712     1
   1708   1710     1
   1708   1711     1
   1708   1716     1
   1709   1716     1
   1710   1713     1
   1710   1714     1
   1710   1715     1
   1711   1713     1
   1711   1714     1
   1711   1715     1
   1717   1724     1
   1717   1725     1
   1718   1723     1
   1718   1721     1
   1718   1722     1
   1718   1727     1
   1719   1723     1
   1719   1721     1
   1719   1722     1
   1719   1727     1
   1720   1727     1
   1721   1726     1
   1721   1724     1
   1721   1725     1
   1722   1726     1
   1722   1724     1
   1722   1725     1
   1728   1735     1
   1728   1736     1
   1729   1734     1
   1729   1732     1
   1729   1733     1
   1729   1738     1
   1730   1734     1
   1730   1732     1
   1730   1733     1
   1730   1738     1
   1731   1738     1
   1732   1735     1
   1732   1736     1
   1732   1737     1
   1733   1735     1
   1733   1736     1
   1733   1737     1
   1739   1746     1
   1739   1747     1
   1740   1745     1
   1740   1743     1
   1740   1744     1
   1740   1749     1
   1741   1745     1
   1741   1743     1
   1741   1744     1
   1741   1749     1
   1742   1749     1
   1743   1748     1
   1743   1746     1
   1743   1747     1
   1744   1748     1
   1744   1746     1
   1744   1747     1
   1750   1757     1
   1750   1758     1
   1751   1756     1
   1751   1754     1
   1751   1755     1
   1751   1760     1
   1752   1756     1
   1752   1754     1
   1752   1755     1
   1752   1760     1
   1753   1760     1
   1754   1757     1
   1754   1758     1
   1754   1759     1
   1755   1757     1
   1755   1758     1
   1755   1759     1
   1761   1768     1
   1761   1769     1
   1762   1767     1
   1762   1765     1
   1762   1766     1
   1762   1771     1
   1763   1767     1
   1763   1765     1
   1763   1766     1
   1763   1771     1
   1764   1771     1
   1765   1770     1
   1765   1768     1
   1765   1769     1
   1766   1770     1
   1766   1768     1
   1766   1769     1
   1772   1779     1
   1772   1780     1
   1773   1778     1
   1773   1776     1
   1773   1777     1
   1773   1782     1
   1774   1778     1
   1774   1776     1
   1774   1777     1
   1774   1782     1
   1775   1782     1
   1776   1779     1
   1776   1780     1
   1776   1781     1
   1777   1779     1
   1777   1780     1
   1777   1781     1
   1783   1790     1
   1783   1791     1
   1784   1789     1
   1784   1787     1
   1784   1788     1
   1784   1793     1
   1785   1789     1
   1785   1787     1
   1785   1788     1
   1785   1793     1
   1786   1793     1
   1787   1792     1
   1787   1790     1
   1787   1791     1
   1788   1792     1
   1788   1790     1
   1788   1791     1
   1794   1801     1
   1794   1802     1
   1795   1800     1
   1795   1798     1
   1795   1799     1
   1795   1804     1
   1796   1800     1
   1796   1798     1
   1796   1799     1
   1796   1804     1
   1797   1804     1
   1798   1801     1
   1798   1802     1
   1798   1803     1
   1799   1801     1
   1799   1802     1
   1799   1803     1
   1805   1812     1
   1805   1813     1
   1806   1811     1
   1806   1809     1
   1806   1810     1
   1806   1815     1
   1807   1811     1
   1807   1809     1
   1807   1810     1
   1807   1815     1
   1808   1815     1
   1809   1814     1
   1809   1812     1
   1809   1813     1
   1810   1814     1
   1810   1812     1
   1810   1813     1
   1816   1823     1
   1816   1824     1
   1817   1822     1
   1817   1820     1
   1817   1821     1
   1817   1826     1
   1818   1822     1
   1818   1820     1
   1818   1821     1
   1818   1826     1
   1819   1826     1
   1820   1823     1
   1820   1824     1
   1820   1825     1
   1821   1823     1
   1821   1824     1
   1821   1825     1
   1827   1834     1
   1827   1835     1
   1828   1833     1
   1828   1831     1
   1828   1832     1
   1828   1837     1
   1829   1833     1
   1829   1831     1
   1829   1832     1
   1829   1837     1
   1830   1837     1
   1831   1836     1
   1831   1834     1
   1831   1835     1
   1832   1836     1
   1832   1834     1
   1832   1835     1
   1838   1845     1
   1838   1846     1
   1839   1844     1
   1839   1842     1
   1839   1843     1
   1839   1848     1
   1840   1844     1
   1840   1842     1
   1840   1843     1
   1840   1848     1
   1841   1848     1
   1842   1845     1
   1842   1846     1
   1842   1847     1
   1843   1845     1
   1843   1846     1
   1843   1847     1
   1849   1856     1
   1849   1857     1
   1850   1855     1
   1850   1853     1
   1850   1854     1
   1850   1859     1
   1851   1855     1
   1851   1853     1
   1851   1854     1
   1851   1859     1
   1852   1859     1
   1853   1858     1
   1853   1856     1
   1853   1857     1
   1854   1858     1
   1854   1856     1
   1854   1857     1
   1860   1867     1
   1860   1868     1
   1861   1866     1
   1861   1864     1
   1861   1865     1
   1861   1870     1
   1862   1866     1
   1862   1864     1
   1862   1865     1
   1862   1870     1
   1863   1870     1
   1864   1867     1
   1864   1868     1
   1864   1869     1
   1865   1867     1
   1865   1868     1
   1865   1869     1
   1871   1878     1
   1871   1879     1
   1872   1877     1
   1872   1875     1
   1872   1876     1
   1872   1881     1
   1873   1877     1
   1873   1875     1
   1873   1876     1
   1873   1881     1
   1874   1881     1
   1875   1880     1
   1875   1878     1
   1875   1879     1
   1876   1880     1
   1876   1878     1
   1876   1879     1
   1882   1889     1
   1882   1890     1
   1883   1888     1
   1883   1886     1
   1883   1887     1
   1883   1892     1
   1884   1888     1
   1884   1886     1
   1884   1887     1
   1884   1892     1
   1885   1892     1
   1886   1889     1
   1886   1890     1
   1886   1891     1
   1887   1889     1
   1887   1890     1
   1887   1891     1
   1893   1900     1
   1893   1901     1
   1894   1899     1
   1894   1897     1
   1894   1898     1
   1894   1903     1
   1895   1899     1
   1895   1897     1
   1895   1898     1
   1895   1903     1
   1896   1903     1
   1897   1902     1
   1897   1900     1
   1897   1901     1
   1898   1902     1
   1898   1900     1
   1898   1901     1
   1904   1911     1
   1904   1912     1
   1905   1910     1
   1905   1908     1
   1905   1909     1
   1905   1914     1
   1906   1910     1
   1906   1908     1
   1906   1909     1
   1906   1914     1
   1907   1914     1
   1908   1911     1
   1908   1912     1
   1908   1913     1
   1909   1911     1
   1909   1912     1
   1909   1913     1
   1915   1922     1
   1915   1923     1
   1916   1921     1
   1916   1919     1
   1916   1920     1
   1916   1925     1
   1917   1921     1
   1917   1919     1
   1917   1920     1
   1917   1925     1
   1918   1925     1
   1919   1924     1
   1919   1922     1
   1919   1923     1
   1920   1924     1
   1920   1922     1
   1920   1923     1
   1926   1933     1
   1926   1934     1
   1927   1932     1
   1927   1930     1
   1927   1931     1
   1927   1936     1
   1928   1932     1
   1928   1930     1
   1928   1931     1
   1928   1936     1
   1929   1936     1
   1930   1933     1
   1930   1934     1
   1930   1935     1
   1931   1933     1
   1931   1934     1
   1931   1935     1
   1937   1944     1
   1937   1945     1
   1938   1943     1
   1938   1941     1
   1938   1942     1
   1938   1947     1
   1939   1943     1
   1939   1941     1
   1939   1942     1
   1939   1947     1
   1940   1947     1
   1941   1946     1
   1941   1944     1
   1941   1945     1
   1942   1946     1
   1942   1944     1
   1942   1945     1
   1948   1955     1
   1948   1956     1
   1949   1954     1
   1949   1952     1
   1949   1953     1
   1949   1958     1
   1950   1954     1
   1950   1952     1
   1950   1953     1
   1950   1958     1
   1951   1958     1
   1952   1955     1
   1952   1956     1
   1952   1957     1
   1953   1955     1
   1953   1956     1
   1953   1957     1
   1959   1966     1
   1959   1967     1
   1960   1965     1
   1960   1963     1
   1960   1964     1
   1960   1969     1
   1961   1965     1
   1961   1963     1
   1961   1964     1
   1961   1969     1
   1962   1969     1
   1963   1968     1
   1963   1966     1
   1963   1967     1
   1964   1968     1
   1964   1966     1
   1964   1967     1
   1970   1977     1
   1970   1978     1
   1971   1976     1
   1971   1974     1
   1971   1975     1
   1971   1980     1
   1972   1976     1
   1972   1974     1
   1972   1975     1
   1972   1980     1
   1973   1980     1
   1974   1977     1
   1974   1978     1
   1974   1979     1
   1975   1977     1
   1975   1978     1
   1975   1979     1
   1981   1988     1
   1981   1989     1
   1982   1987     1
   1982   1985     1
   1982   1986     1
   1982   1991     1
   1983   1987     1
   1983   1985     1
   1983   1986     1
   1983   1991     1
   1984   1991     1
   1985   1990     1
   1985   1988     1
   1985   1989     1
   1986   1990     1
   1986   1988     1
   1986   1989     1
   1992   1999     1
   1992   2000     1
   1993   1998     1
   1993   1996     1
   1993   1997     1
   1993   2002     1
   1994   1998     1
   1994   1996     1
   1994   1997     1
   1994   2002     1
   1995   2002     1
   1996   1999     1
   1996   2000     1
   1996   2001     1
   1997   1999     1
   1997   2000     1
   1997   2001     1
   2003   2010     1
   2003   2011     1
   2004   2009     1
   2004   2007     1
   2004   2008     1
   2004   2013     1
   2005   2009     1
   2005   2007     1
   2005   2008     1
   2005   2013     1
   2006   2013     1
   2007   2012     1
   2007   2010     1
   2007   2011     1
   2008   2012     1
   2008   2010     1
   2008   2011     1
   2014   2021     1
   2014   2022     1
   2015   2020     1
   2015   2018     1
   2015   2019     1
   2015   2024     1
   2016   2020     1
   2016   2018     1
   2016   2019     1
   2016   2024     1
   2017   2024     1
   2018   2021     1
   2018   2022     1
   2018   2023     1
   2019   2021     1
   2019   2022     1
   2019   2023     1
   2025   2032     1
   2025   2033     1
   2026   2031     1
   2026   2029     1
   2026   2030     1
   2026   2035     1
   2027   2031     1
   2027   2029     1
   2027   2030     1
   2027   2035     1
   2028   2035     1
   2029   2034     1
   2029   2032     1
   2029   2033     1
   2030   2034     1
   2030   2032     1
   2030   2033     1
   2036   2043     1
   2036   2044     1
   2037   2042     1
   2037   2040     1
   2037   2041     1
   2037   2046     1
   2038   2042     1
   2038   2040     1
   2038   2041     1
   2038   2046     1
   2039   2046     1
   2040   2043     1
   2040   2044     1
   2040   2045     1
   2041   2043     1
   2041   2044     1
   2041   2045     1
   2047   2054     1
   2047   2055     1
   2048   2053     1
   2048   2051     1
   2048   2052     1
   2048   2057     1
   2049   2053     1
   2049   2051     1
   2049   2052     1
   2049   2057     1
   2050   2057     1
   2051   2056     1
   2051   2054     1
   2051   2055     1
   2052   2056     1
   2052   2054     1
   2052   2055     1
   2058   2065     1
   2058   2066     1
   2059   2064     1
   2059   2062     1
   2059   2063     1
   2059   2068     1
   2060   2064     1
   2060   2062     1
   2060   2063     1
   2060   2068     1
   2061   2068     1
   2062   2065     1
   2062   2066     1
   2062   2067     1
   2063   2065     1
   2063   2066     1
   2063   2067     1
   2069   2076     1
   2069   2077     1
   2070   2075     1
   2070   2073     1
   2070   2074     1
   2070   2079     1
   2071   2075     1
   2071   2073     1
   2071   2074     1
   2071   2079     1
   2072   2079     1
   2073   2078     1
   2073   2076     1
   2073   2077     1
   2074   2078     1
   2074   2076     1
   2074   2077     1
   2080   2087     1
   2080   2088     1
   2081   2086     1
   2081   2084     1
   2081   2085     1
   2081   2090     1
   2082   2086     1
   2082   2084     1
   2082   2085     1
   2082   2090     1
   2083   2090     1
   2084   2087     1
   2084   2088     1
   2084   2089     1
   2085   2087     1
   2085   2088     1
   2085   2089     1
   2091   2098     1
   2091   2099     1
   2092   2097     1
   2092   2095     1
   2092   2096     1
   2092   2101     1
   2093   2097     1
   2093   2095     1
   2093   2096     1
   2093   2101     1
   2094   2101     1
   2095   2100     1
   2095   2098     1
   2095   2099     1
   2096   2100     1
   2096   2098     1
   2096   2099     1
   2102   2109     1
   2102   2110     1
   2103   2108     1
   2103   2106     1
   2103   2107     1
   2103   2112     1
   2104   2108     1
   2104   2106     1
   2104   2107     1
   2104   2112     1
   2105   2112     1
   2106   2109     1
   2106   2110     1
   2106   2111     1
   2107   2109     1
   2107   2110     1
   2107   2111     1
   2113   2120     1
   2113   2121     1
   2114   2119     1
   2114   2117     1
   2114   2118     1
   2114   2123     1
   2115   2119     1
   2115   2117     1
   2115   2118     1
   2115   2123     1
   2116   2123     1
   2117   2122     1
   2117   2120     1
   2117   2121     1
   2118   2122     1
   2118   2120     1
   2118   2121     1
   2124   2131     1
   2124   2132     1
   2125   2130     1
   2125   2128     1
   2125   2129     1
   2125   2134     1
   2126   2130     1
   2126   2128     1
   2126   2129     1
   2126   2134     1
   2127   2134     1
   2128   2131     1
   2128   2132     1
   2128   2133     1
   2129   2131     1
   2129   2132     1
   2129   2133     1
   2135   2142     1
   2135   2143     1
   2136   2141     1
   2136   2139     1
   2136   2140     1
   2136   2145     1
   2137   2141     1
   2137   2139     1
   2137   2140     1
   2137   2145     1
   2138   2145     1
   2139   2144     1
   2139   2142     1
   2139   2143     1
   2140   2144     1
   2140   2142     1
   2140   2143     1
   2146   2153     1
   2146   2154     1
   2147   2152     1
   2147   2150     1
   2147   2151     1
   2147   2156     1
   2148   2152     1
   2148   2150     1
   2148   2151     1
   2148   2156     1
   2149   2156     1
   2150   2153     1
   2150   2154     1
   2150   2155     1
   2151   2153     1
   2151   2154     1
   2151   2155     1
   2157   2164     1
   2157   2165     1
   2158   2163     1
   2158   2161     1
   2158   2162     1
   2158   2167     1
   2159   2163     1
   2159   2161     1
   2159   2162     1
   2159   2167     1
   2160   2167     1
   2161   2166     1
   2161   2164     1
   2161   2165     1
   2162   2166     1
   2162   2164     1
   2162   2165     1
   2168   2175     1
   2168   2176     1
   2169   2174     1
   2169   2172     1
   2169   2173     1
   2169   2178     1
   2170   2174     1
   2170   2172     1
   2170   2173     1
   2170   2178     1
   2171   2178     1
   2172   2175     1
   2172   2176     1
   2172   2177     1
   2173   2175     1
   2173   2176     1
   2173   2177     1
   2179   2186     1
   2179   2187     1
   2180   2185     1
   2180   2183     1
   2180   2184     1
   2180   2189     1
   2181   2185     1
   2181   2183     1
   2181   2184     1
   2181   2189     1
   2182   2189     1
   2183   2188     1
   2183   2186     1
   2183   2187     1
   2184   2188     1
   2184   2186     1
   2184   2187     1
   2190   2197     1
   2190   2198     1
   2191   2196     1
   2191   2194     1
   2191   2195     1
   2191   2200     1
   2192   2196     1
   2192   2194     1
   2192   2195     1
   2192   2200     1
   2193   2200     1
   2194   2197     1
   2194   2198     1
   2194   2199     1
   2195   2197     1
   2195   2198     1
   2195   2199     1
   2201   2208     1
   2201   2209     1
   2202   2207     1
   2202   2205     1
   2202   2206     1
   2202   2211     1
   2203   2207     1
   2203   2205     1
   2203   2206     1
   2203   2211     1
   2204   2211     1
   2205   2210     1
   2205   2208     1
   2205   2209     1
   2206   2210     1
   2206   2208     1
   2206   2209     1
   2212   2219     1
   2212   2220     1
   2213   2218     1
   2213   2216     1
   2213   2217     1
   2213   2222     1
   2214   2218     1
   2214   2216     1
   2214   2217     1
   2214   2222     1
   2215   2222     1
   2216   2219     1
   2216   2220     1
   2216   2221     1
   2217   2219     1
   2217   2220     1
   2217   2221     1
   2223   2230     1
   2223   2231     1
   2224   2229     1
   2224   2227     1
   2224   2228     1
   2224   2233     1
   2225   2229     1
   2225   2227     1
   2225   2228     1
   2225   2233     1
   2226   2233     1
   2227   2232     1
   2227   2230     1
   2227   2231     1
   2228   2232     1
   2228   2230     1
   2228   2231     1
   2234   2241     1
   2234   2242     1
   2235   2240     1
   2235   2238     1
   2235   2239     1
   2235   2244     1
   2236   2240     1
   2236   2238     1
   2236   2239     1
   2236   2244     1
   2237   2244     1
   2238   2241     1
   2238   2242     1
   2238   2243     1
   2239   2241     1
   2239   2242     1
   2239   2243     1

[ angles ]
;    ai     aj     ak funct         c0         c1         c2         c3
      1      4      7     1   111.0400475 552.288000
      1      8      9     1   112.3500484 533.878400
      1      8     12     1   112.3500484 533.878400
      4      1      8     1   111.0400475 552.288000
      4      7     15     1   112.3500484 533.878400
      4      7     18     1   112.3500484 533.878400
      7     15     21     1   111.0400475 552.288000
      7     18     24     1   111.0400475 552.288000
      8      9     30     1   111.0400475 552.288000
      8     12     27     1   111.0400475 552.288000
      9      8     12     1   112.3500484 533.878400
      9     30     34     1   111.0400475 529.694400
     12     27     33     1   111.0400475 529.694400
     15      7     18     1   112.3500484 533.878400
     15     21     35     1   111.0400475 529.694400
     18     24     36     1   111.0400475 529.694400
     21     35     38     1   123.2000528 564.003200
     21     35    114     1   115.1800491 558.982400
     24     36     39     1   123.2000528 564.003200
     24     36    139     1   115.1800491 558.982400
     27     33     37     1   123.2000528 564.003200
     27     33     64     1   115.1800491 558.982400
     30     34     40     1   123.2000528 564.003200
     30     34     89     1   115.1800491 558.982400
     33     64     44     1   120.6900519 530.531200
     34     89     69     1   120.6900519 530.531200
     35    114     94     1   120.6900519 530.531200
     36    139    119     1   120.6900519 530.531200
     37     33     64     1   123.0500530 620.905600
     38     35    114     1   123.0500530 620.905600
     39     36    139     1   123.0500530 620.905600
     40     34     89     1   123.0500530 620.905600
     41     44     64     1   111.6100477 551.451200
     41     47     48     1   112.3500484 533.878400
     41     47     51     1   112.3500484 533.878400
     44     41     47     1   111.0400475 552.288000
     47     48     57     1   111.0400475 552.288000
     47     51     54     1   111.0400475 552.288000
     48     47     51     1   112.3500484 533.878400
     48     57     61     1   111.0400475 529.694400
     51     54     60     1   111.0400475 529.694400
     54     60     62     1   123.2000528 564.003200
     54     60    164     1   115.1800491 558.982400
     57     61     63     1   123.2000528 564.003200
     57     61    189     1   115.1800491 558.982400
     60    164    144     1   120.6900519 530.531200
     61    189    169     1   120.6900519 530.531200
     62     60    164     1   123.0500530 620.905600
     63     61    189     1   123.0500530 620.905600
     66     69     89     1   111.6100477 551.451200
     66     72     73     1   112.3500484 533.878400
     66     72     76     1   112.3500484 533.878400
     69     66     72     1   111.0400475 552.288000
     72     73     82     1   111.0400475 552.288000
     72     76     79     1   111.0400475 552.288000
     73     72     76     1   112.3500484 533.878400
     73     82     86     1   111.0400475 529.694400
     76     79     85     1   111.0400475 529.694400
     79     85     87     1   123.2000528 564.003200
     79     85    214     1   115.1800491 558.982400
     82     86     88     1   123.2000528 564.003200
     82     86    239     1   115.1800491 558.982400
     85    214    194     1   120.6900519 530.531200
     86    239    219     1   120.6900519 530.531200
     87     85    214     1   123.0500530 620.905600
     88     86    239     1   123.0500530 620.905600
     91     94    114     1   111.6100477 551.451200
     91     97     98     1   112.3500484 533.878400
     91     97    101     1   112.3500484 533.878400
     94     91     97     1   111.0400475 552.288000
     97     98    107     1   111.0400475 552.288000
     97    101    104     1   111.0400475 552.288000
     98     97    101     1   112.3500484 533.878400
     98    107    111     1   111.0400475 529.694400
    101    104    110     1   111.0400475 529.694400
    104    110    112     1   123.2000528 564.003200
    104    110    264     1   115.1800491 558.982400
    107    111    113     1   123.2000528 564.003200
    107    111    289     1   115.1800491 558.982400
    110    264    244     1   120.6900519 530.531200
    111    289    269     1   120.6900519 530.531200
    112    110    264     1   123.0500530 620.905600
    113    111    289     1   123.0500530 620.905600
    116    119    139     1   111.6100477 551.451200
    116    122    123     1   112.3500484 533.878400
    116    122    126     1   112.3500484 533.878400
    119    116    122     1   111.0400475 552.288000
    122    123    132     1   111.0400475 552.288000
    122    126    129     1   111.0400475 552.288000
    123    122    126     1   112.3500484 533.878400
    123    132    136     1   111.0400475 529.694400
    126    129    135     1   111.0400475 529.694400
    129    135    137     1   123.2000528 564.003200
    129    135    314     1   115.1800491 558.982400
    132    136    138     1   123.2000528 564.003200
    132    136    339     1   115.1800491 558.982400
    135    314    294     1   120.6900519 530.531200
    136    339    319     1   120.6900519 530.531200
    137    135    314     1   123.0500530 620.905600
    138    136    339     1   123.0500530 620.905600
    141    144    164     1   111.6100477 551.451200
    141    147    148     1   112.3500484 533.878400
    141    147    151     1   112.3500484 533.878400
    144    141    147     1   111.0400475 552.288000
    147    148    157     1   111.0400475 552.288000
    147    151    154     1   111.0400475 552.288000
    148    147    151     1   112.3500484 533.878400
    148    157    161     1   111.0400475 529.694400
    151    154    160     1   111.0400475 529.694400
    154    160    162     1   123.2000528 564.003200
    154    160    364     1   115.1800491 558.982400
    157    161    163     1   123.2000528 564.003200
    157    161    389     1   115.1800491 558.982400
    160    364    344     1   120.6900519 530.531200
    161    389    369     1   120.6900519 530.531200
    162    160    364     1   123.0500530 620.905600
    163    161    389     1   123.0500530 620.905600
    166    169    189     1   111.6100477 551.451200
    166    172    173     1   112.3500484 533.878400
    166    172    176     1   112.3500484 533.878400
    169    166    172     1   111.0400475 552.288000
    172    173    182     1   111.0400475 552.288000
    172    176    179     1   111.0400475 552.288000
    173    172    176     1   112.3500484 533.878400
    173    182    186     1   111.0400475 529.694400
    176    179    185     1   111.0400475 529.694400
    179    185    187     1   123.2000528 564.003200
    179    185    414     1   115.1800491 558.982400
    182    186    188     1   123.2000528 564.003200
    182    186    439     1   115.1800491 558.982400
    185    414    394     1   120.6900519 530.531200
    186    439    419     1   120.6900519 530.531200
    187    185    414     1   123.0500530 620.905600
    188    186    439     1   123.0500530 620.905600
    191    194    214     1   111.6100477 551.451200
    191    197    198     1   112.3500484 533.878400
    191    197    201     1   112.3500484 533.878400
    194    191    197     1   111.0400475 552.288000
    197    198    207     1   111.0400475 552.288000
    197    201    204     1   111.0400475 552.288000
    198    197    201     1   112.3500484 533.878400
    198    207    211     1   111.0400475 529.694400
    201    204    210     1   111.0400475 529.694400
    204    210    212     1   123.2000528 564.003200
    204    210    464     1   115.1800491 558.982400
    207    211    213     1   123.2000528 564.003200
    207    211    489     1   115.1800491 558.982400
    210    464    444     1   120.6900519 530.531200
    211    489    469     1   120.6900519 530.531200
    212    210    464     1   123.0500530 620.905600
    213    211    489     1   123.0500530 620.905600
    216    219    239     1   111.6100477 551.451200
    216    222    223     1   112.3500484 533.878400
    216    222    226     1   112.3500484 533.878400
    219    216    222     1   111.0400475 552.288000
    222    223    232     1   111.0400475 552.288000
    222    226    229     1   111.0400475 552.288000
    223    222    226     1   112.3500484 533.878400
    223    232    236     1   111.0400475 529.694400
    226    229    235     1   111.0400475 529.694400
    229    235    237     1   123.2000528 564.003200
    229    235    514     1   115.1800491 558.982400
    232    236    238     1   123.2000528 564.003200
    232    236    539     1   115.1800491 558.982400
    235    514    494     1   120.6900519 530.531200
    236    539    519     1   120.6900519 530.531200
    237    235    514     1   123.0500530 620.905600
    238    236    539     1   123.0500530 620.905600
    241    244    264     1   111.6100477 551.451200
    241    247    248     1   112.3500484 533.878400
    241    247    251     1   112.3500484 533.878400
    244    241    247     1   111.0400475 552.288000
    247    248    257     1   111.0400475 552.288000
    247    251    254     1   111.0400475 552.288000
    248    247    251     1   112.3500484 533.878400
    248    257    261     1   111.0400475 529.694400
    251    254    260     1   111.0400475 529.694400
    254    260    262     1   123.2000528 564.003200
    254    260    564     1   115.1800491 558.982400
    257    261    263     1   123.2000528 564.003200
    257    261    589     1   115.1800491 558.982400
    260    564    544     1   120.6900519 530.531200
    261    589    569     1   120.6900519 530.531200
    262    260    564     1   123.0500530 620.905600
    263    261    589     1   123.0500530 620.905600
    266    269    289     1   111.6100477 551.451200
    266    272    273     1   112.3500484 533.878400
    266    272    276     1   112.3500484 533.878400
    269    266    272     1   111.0400475 552.288000
    272    273    282     1   111.0400475 552.288000
    272    276    279     1   111.0400475 552.288000
    273    272    276     1   112.3500484 533.878400
    273    282    286     1   111.0400475 529.694400
    276    279    285     1   111.0400475 529.694400
    279    285    287     1   123.2000528 564.003200
    279    285    614     1   115.1800491 558.982400
    282    286    288     1   123.2000528 564.003200
    282    286    639     1   115.1800491 558.982400
    285    614    594     1   120.6900519 530.531200
    286    639    619     1   120.6900519 530.531200
    287    285    614     1   123.0500530 620.905600
    288    286    639     1   123.0500530 620.905600
    291    294    314     1   111.6100477 551.451200
    291    297    298     1   112.3500484 533.878400
    291    297    301     1   112.3500484 533.878400
    294    291    297     1   111.0400475 552.288000
    297    298    307     1   111.0400475 552.288000
    297    301    304     1   111.0400475 552.288000
    298    297    301     1   112.3500484 533.878400
    298    307    311     1   111.0400475 529.694400
    301    304    310     1   111.0400475 529.694400
    304    310    312     1   123.2000528 564.003200
    304    310    664     1   115.1800491 558.982400
    307    311    313     1   123.2000528 564.003200
    307    311    689     1   115.1800491 558.982400
    310    664    644     1   120.6900519 530.531200
    311    689    669     1   120.6900519 530.531200
    312    310    664     1   123.0500530 620.905600
    313    311    689     1   123.0500530 620.905600
    316    319    339     1   111.6100477 551.451200
    316    322    323     1   112.3500484 533.878400
    316    322    326     1   112.3500484 533.878400
    319    316    322     1   111.0400475 552.288000
    322    323    332     1   111.0400475 552.288000
    322    326    329     1   111.0400475 552.288000
    323    322    326     1   112.3500484 533.878400
    323    332    336     1   111.0400475 529.694400
    326    329    335     1   111.0400475 529.694400
    329    335    337     1   123.2000528 564.003200
    329    335    714     1   115.1800491 558.982400
    332    336    338     1   123.2000528 564.003200
    332    336    739     1   115.1800491 558.982400
    335    714    694     1   120.6900519 530.531200
    336    739    719     1   120.6900519 530.531200
    337    335    714     1   123.0500530 620.905600
    338    336    739     1   123.0500530 620.905600
    341    344    364     1   111.6100477 551.451200
    341    347    348     1   112.3500484 533.878400
    341    347    351     1   112.3500484 533.878400
    344    341    347     1   111.0400475 552.288000
    347    348    357     1   111.0400475 552.288000
    347    351    354     1   111.0400475 552.288000
    348    347    351     1   112.3500484 533.878400
    348    357    361     1   111.0400475 529.694400
    351    354    360     1   111.0400475 529.694400
    354    360    362     1   123.2000528 564.003200
    354    360    764     1   115.1800491 558.982400
    357    361    363     1   123.2000528 564.003200
    357    361    789     1   115.1800491 558.982400
    360    764    744     1   120.6900519 530.531200
    361    789    769     1   120.6900519 530.531200
    362    360    764     1   123.0500530 620.905600
    363    361    789     1   123.0500530 620.905600
    366    369    389     1   111.6100477 551.451200
    366    372    373     1   112.3500484 533.878400
    366    372    376     1   112.3500484 533.878400
    369    366    372     1   111.0400475 552.288000
    372    373    382     1   111.0400475 552.288000
    372    376    379     1   111.0400475 552.288000
    373    372    376     1   112.3500484 533.878400
    373    382    386     1   111.0400475 529.694400
    376    379    385     1   111.0400475 529.694400
    379    385    387     1   123.2000528 564.003200
    379    385    814     1   115.1800491 558.982400
    382    386    388     1   123.2000528 564.003200
    382    386    839     1   115.1800491 558.982400
    385    814    794     1   120.6900519 530.531200
    386    839    819     1   120.6900519 530.531200
    387    385    814     1   123.0500530 620.905600
    388    386    839     1   123.0500530 620.905600
    391    394    414     1   111.6100477 551.451200
    391    397    398     1   112.3500484 533.878400
    391    397    401     1   112.3500484 533.878400
    394    391    397     1   111.0400475 552.288000
    397    398    407     1   111.0400475 552.288000
    397    401    404     1   111.0400475 552.288000
    398    397    401     1   112.3500484 533.878400
    398    407    411     1   111.0400475 529.694400
    401    404    410     1   111.0400475 529.694400
    404    410    412     1   123.2000528 564.003200
    404    410    864     1   115.1800491 558.982400
    407    411    413     1   123.2000528 564.003200
    407    411    889     1   115.1800491 558.982400
    410    864    844     1   120.6900519 530.531200
    411    889    869     1   120.6900519 530.531200
    412    410    864     1   123.0500530 620.905600
    413    411    889     1   123.0500530 620.905600
    416    419    439     1   111.6100477 551.451200
    416    422    423     1   112.3500484 533.878400
    416    422    426     1   112.3500484 533.878400
    419    416    422     1   111.0400475 552.288000
    422    423    432     1   111.0400475 552.288000
    422    426    429     1   111.0400475 552.288000
    423    422    426     1   112.3500484 533.878400
    423    432    436     1   111.0400475 529.694400
    426    429    435     1   111.0400475 529.694400
    429    435    437     1   123.2000528 564.003200
    429    435    914     1   115.1800491 558.982400
    432    436    438     1   123.2000528 564.003200
    432    436    939     1   115.1800491 558.982400
    435    914    894     1   120.6900519 530.531200
    436    939    919     1   120.6900519 530.531200
    437    435    914     1   123.0500530 620.905600
    438    436    939     1   123.0500530 620.905600
    441    444    464     1   111.6100477 551.451200
    441    447    448     1   112.3500484 533.878400
    441    447    451     1   112.3500484 533.878400
    444    441    447     1   111.0400475 552.288000
    447    448    457     1   111.0400475 552.288000
    447    451    454     1   111.0400475 552.288000
    448    447    451     1   112.3500484 533.878400
    448    457    461     1   111.0400475 529.694400
    451    454    460     1   111.0400475 529.694400
    454    460    462     1   123.2000528 564.003200
    454    460    964     1   115.1800491 558.982400
    457    461    463     1   123.2000528 564.003200
    457    461    989     1   115.1800491 558.982400
    460    964    944     1   120.6900519 530.531200
    461    989    969     1   120.6900519 530.531200
    462    460    964     1   123.0500530 620.905600
    463    461    989     1   123.0500530 620.905600
    466    469    489     1   111.6100477 551.451200
    466    472    473     1   112.3500484 533.878400
    466    472    476     1   112.3500484 533.878400
    469    466    472     1   111.0400475 552.288000
    472    473    482     1   111.0400475 552.288000
    472    476    479     1   111.0400475 552.288000
    473    472    476     1   112.3500484 533.878400
    473    482    486     1   111.0400475 529.694400
    476    479    485     1   111.0400475 529.694400
    479    485    487     1   123.2000528 564.003200
    479    485   1014     1   115.1800491 558.982400
    482    486    488     1   123.2000528 564.003200
    482    486   1039     1   115.1800491 558.982400
    485   1014    994     1   120.6900519 530.531200
    486   1039   1019     1   120.6900519 530.531200
    487    485   1014     1   123.0500530 620.905600
    488    486   1039     1   123.0500530 620.905600
    491    494    514     1   111.6100477 551.451200
    491    497    498     1   112.3500484 533.878400
    491    497    501     1   112.3500484 533.878400
    494    491    497     1   111.0400475 552.288000
    497    498    507     1   111.0400475 552.288000
    497    501    504     1   111.0400475 552.288000
    498    497    501     1   112.3500484 533.878400
    498    507    511     1   111.0400475 529.694400
    501    504    510     1   111.0400475 529.694400
    504    510    512     1   123.2000528 564.003200
    504    510   1064     1   115.1800491 558.982400
    507    511    513     1   123.2000528 564.003200
    507    511   1089     1   115.1800491 558.982400
    510   1064   1044     1   120.6900519 530.531200
    511   1089   1069     1   120.6900519 530.531200
    512    510   1064     1   123.0500530 620.905600
    513    511   1089     1   123.0500530 620.905600
    516    519    539     1   111.6100477 551.451200
    516    522    523     1   112.3500484 533.878400
    516    522    526     1   112.3500484 533.878400
    519    516    522     1   111.0400475 552.288000
    522    523    532     1   111.0400475 552.288000
    522    526    529     1   111.0400475 552.288000
    523    522    526     1   112.3500484 533.878400
    523    532    536     1   111.0400475 529.694400
    526    529    535     1   111.0400475 529.694400
    529    535    537     1   123.2000528 564.003200
    529    535   1114     1   115.1800491 558.982400
    532    536    538     1   123.2000528 564.003200
    532    536   1139     1   115.1800491 558.982400
    535   1114   1094     1   120.6900519 530.531200
    536   1139   1119     1   120.6900519 530.531200
    537    535   1114     1   123.0500530 620.905600
    538    536   1139     1   123.0500530 620.905600
    541    544    564     1   111.6100477 551.451200
    541    547    548     1   112.3500484 533.878400
    541    547    551     1   112.3500484 533.878400
    544    541    547     1   111.0400475 552.288000
    547    548    557     1   111.0400475 552.288000
    547    551    554     1   111.0400475 552.288000
    548    547    551     1   112.3500484 533.878400
    548    557    561     1   111.0400475 529.694400
    551    554    560     1   111.0400475 529.694400
    554    560    562     1   123.2000528 564.003200
    554    560   1164     1   115.1800491 558.982400
    557    561    563     1   123.2000528 564.003200
    557    561   1189     1   115.1800491 558.982400
    560   1164   1144     1   120.6900519 530.531200
    561   1189   1169     1   120.6900519 530.531200
    562    560   1164     1   123.0500530 620.905600
    563    561   1189     1   123.0500530 620.905600
    566    569    589     1   111.6100477 551.451200
    566    572    573     1   112.3500484 533.878400
    566    572    576     1   112.3500484 533.878400
    569    566    572     1   111.0400475 552.288000
    572    573    582     1   111.0400475 552.288000
    572    576    579     1   111.0400475 552.288000
    573    572    576     1   112.3500484 533.878400
    573    582    586     1   111.0400475 529.694400
    576    579    585     1   111.0400475 529.694400
    579    585    587     1   123.2000528 564.003200
    579    585   1214     1   115.1800491 558.982400
    582    586    588     1   123.2000528 564.003200
    582    586   1239     1   115.1800491 558.982400
    585   1214   1194     1   120.6900519 530.531200
    586   1239   1219     1   120.6900519 530.531200
    587    585   1214     1   123.0500530 620.905600
    588    586   1239     1   123.0500530 620.905600
    591    594    614     1   111.6100477 551.451200
    591    597    598     1   112.3500484 533.878400
    591    597    601     1   112.3500484 533.878400
    594    591    597     1   111.0400475 552.288000
    597    598    607     1   111.0400475 552.288000
    597    601    604     1   111.0400475 552.288000
    598    597    601     1   112.3500484 533.878400
    598    607    611     1   111.0400475 529.694400
    601    604    610     1   111.0400475 529.694400
    604    610    612     1   123.2000528 564.003200
    604    610   1264     1   115.1800491 558.982400
    607    611    613     1   123.2000528 564.003200
    607    611   1289     1   115.1800491 558.982400
    610   1264   1244     1   120.6900519 530.531200
    611   1289   1269     1   120.6900519 530.531200
    612    610   1264     1   123.0500530 620.905600
    613    611   1289     1   123.0500530 620.905600
    616    619    639     1   111.6100477 551.451200
    616    622    623     1   112.3500484 533.878400
    616    622    626     1   112.3500484 533.878400
    619    616    622     1   111.0400475 552.288000
    622    623    632     1   111.0400475 552.288000
    622    626    629     1   111.0400475 552.288000
    623    622    626     1   112.3500484 533.878400
    623    632    636     1   111.0400475 529.694400
    626    629    635     1   111.0400475 529.694400
    629    635    637     1   123.2000528 564.003200
    629    635   1314     1   115.1800491 558.982400
    632    636    638     1   123.2000528 564.003200
    632    636   1339     1   115.1800491 558.982400
    635   1314   1294     1   120.6900519 530.531200
    636   1339   1319     1   120.6900519 530.531200
    637    635   1314     1   123.0500530 620.905600
    638    636   1339     1   123.0500530 620.905600
    641    644    664     1   111.6100477 551.451200
    641    647    648     1   112.3500484 533.878400
    641    647    651     1   112.3500484 533.878400
    644    641    647     1   111.0400475 552.288000
    647    648    657     1   111.0400475 552.288000
    647    651    654     1   111.0400475 552.288000
    648    647    651     1   112.3500484 533.878400
    648    657    661     1   111.0400475 529.694400
    651    654    660     1   111.0400475 529.694400
    654    660    662     1   123.2000528 564.003200
    654    660   1364     1   115.1800491 558.982400
    657    661    663     1   123.2000528 564.003200
    657    661   1389     1   115.1800491 558.982400
    660   1364   1344     1   120.6900519 530.531200
    661   1389   1369     1   120.6900519 530.531200
    662    660   1364     1   123.0500530 620.905600
    663    661   1389     1   123.0500530 620.905600
    666    669    689     1   111.6100477 551.451200
    666    672    673     1   112.3500484 533.878400
    666    672    676     1   112.3500484 533.878400
    669    666    672     1   111.0400475 552.288000
    672    673    682     1   111.0400475 552.288000
    672    676    679     1   111.0400475 552.288000
    673    672    676     1   112.3500484 533.878400
    673    682    686     1   111.0400475 529.694400
    676    679    685     1   111.0400475 529.694400
    679    685    687     1   123.2000528 564.003200
    679    685   1414     1   115.1800491 558.982400
    682    686    688     1   123.2000528 564.003200
    682    686   1439     1   115.1800491 558.982400
    685   1414   1394     1   120.6900519 530.531200
    686   1439   1419     1   120.6900519 530.531200
    687    685   1414     1   123.0500530 620.905600
    688    686   1439     1   123.0500530 620.905600
    691    694    714     1   111.6100477 551.451200
    691    697    698     1   112.3500484 533.878400
    691    697    701     1   112.3500484 533.878400
    694    691    697     1   111.0400475 552.288000
    697    698    707     1   111.0400475 552.288000
    697    701    704     1   111.0400475 552.288000
    698    697    701     1   112.3500484 533.878400
    698    707    711     1   111.0400475 529.694400
    701    704    710     1   111.0400475 529.694400
    704    710    712     1   123.2000528 564.003200
    704    710   1464     1   115.1800491 558.982400
    707    711    713     1   123.2000528 564.003200
    707    711   1489     1   115.1800491 558.982400
    710   1464   1444     1   120.6900519 530.531200
    711   1489   1469     1   120.6900519 530.531200
    712    710   1464     1   123.0500530 620.905600
    713    711   1489     1   123.0500530 620.905600
    716    719    739     1   111.6100477 551.451200
    716    722    723     1   112.3500484 533.878400
    716    722    726     1   112.3500484 533.878400
    719    716    722     1   111.0400475 552.288000
    722    723    732     1   111.0400475 552.288000
    722    726    729     1   111.0400475 552.288000
    723    722    726     1   112.3500484 533.878400
    723    732    736     1   111.0400475 529.694400
    726    729    735     1   111.0400475 529.694400
    729    735    737     1   123.2000528 564.003200
    729    735   1514     1   115.1800491 558.982400
    732    736    738     1   123.2000528 564.003200
    732    736   1539     1   115.1800491 558.982400
    735   1514   1494     1   120.6900519 530.531200
    736   1539   1519     1   120.6900519 530.531200
    737    735   1514     1   123.0500530 620.905600
    738    736   1539     1   123.0500530 620.905600
    741    744    764     1   111.6100477 551.451200
    741    747    748     1   112.3500484 533.878400
    741    747    751     1   112.3500484 533.878400
    744    741    747     1   111.0400475 552.288000
    747    748    757     1   111.0400475 552.288000
    747    751    754     1   111.0400475 552.288000
    748    747    751     1   112.3500484 533.878400
    748    757    761     1   111.0400475 529.694400
    751    754    760     1   111.0400475 529.694400
    754    760   1550     1   115.1800491 558.982400
    754    760    762     1   123.2000528 564.003200
    757    761    763     1   123.2000528 564.003200
    757    761   1561     1   115.1800491 558.982400
    760   1550   1541     1   120.6900519 530.531200
    761   1561   1552     1   120.6900519 530.531200
    762    760   1550     1   123.0500530 620.905600
    763    761   1561     1   123.0500530 620.905600
    766    769    789     1   111.6100477 551.451200
    766    772    773     1   112.3500484 533.878400
    766    772    776     1   112.3500484 533.878400
    769    766    772     1   111.0400475 552.288000
    772    773    782     1   111.0400475 552.288000
    772    776    779     1   111.0400475 552.288000
    773    772    776     1   112.3500484 533.878400
    773    782    786     1   111.0400475 529.694400
    776    779    785     1   111.0400475 529.694400
    779    785   1572     1   115.1800491 558.982400
    779    785    787     1   123.2000528 564.003200
    782    786    788     1   123.2000528 564.003200
    782    786   1583     1   115.1800491 558.982400
    785   1572   1563     1   120.6900519 530.531200
    786   1583   1574     1   120.6900519 530.531200
    787    785   1572     1   123.0500530 620.905600
    788    786   1583     1   123.0500530 620.905600
    791    794    814     1   111.6100477 551.451200
    791    797    798     1   112.3500484 533.878400
    791    797    801     1   112.3500484 533.878400
    794    791    797     1   111.0400475 552.288000
    797    798    807     1   111.0400475 552.288000
    797    801    804     1   111.0400475 552.288000
    798    797    801     1   112.3500484 533.878400
    798    807    811     1   111.0400475 529.694400
    801    804    810     1   111.0400475 529.694400
    804    810   1594     1   115.1800491 558.982400
    804    810    812     1   123.2000528 564.003200
    807    811    813     1   123.2000528 564.003200
    807    811   1605     1   115.1800491 558.982400
    810   1594   1585     1   120.6900519 530.531200
    811   1605   1596     1   120.6900519 530.531200
    812    810   1594     1   123.0500530 620.905600
    813    811   1605     1   123.0500530 620.905600
    816    819    839     1   111.6100477 551.451200
    816    822    823     1   112.3500484 533.878400
    816    822    826     1   112.3500484 533.878400
    819    816    822     1   111.0400475 552.288000
    822    823    832     1   111.0400475 552.288000
    822    826    829     1   111.0400475 552.288000
    823    822    826     1   112.3500484 533.878400
    823    832    836     1   111.0400475 529.694400
    826    829    835     1   111.0400475 529.694400
    829    835   1616     1   115.1800491 558.982400
    829    835    837     1   123.2000528 564.003200
    832    836    838     1   123.2000528 564.003200
    832    836   1627     1   115.1800491 558.982400
    835   1616   1607     1   120.6900519 530.531200
    836   1627   1618     1   120.6900519 530.531200
    837    835   1616     1   123.0500530 620.905600
    838    836   1627     1   123.0500530 620.905600
    841    844    864     1   111.6100477 551.451200
    841    847    848     1   112.3500484 533.878400
    841    847    851     1   112.3500484 533.878400
    844    841    847     1   111.0400475 552.288000
    847    848    857     1   111.0400475 552.288000
    847    851    854     1   111.0400475 552.288000
    848    847    851     1   112.3500484 533.878400
    848    857    861     1   111.0400475 529.694400
    851    854    860     1   111.0400475 529.694400
    854    860   1638     1   115.1800491 558.982400
    854    860    862     1   123.2000528 564.003200
    857    861    863     1   123.2000528 564.003200
    857    861   1649     1   115.1800491 558.982400
    860   1638   1629     1   120.6900519 530.531200
    861   1649   1640     1   120.6900519 530.531200
    862    860   1638     1   123.0500530 620.905600
    863    861   1649     1   123.0500530 620.905600
    866    869    889     1   111.6100477 551.451200
    866    872    873     1   112.3500484 533.878400
    866    872    876     1   112.3500484 533.878400
    869    866    872     1   111.0400475 552.288000
    872    873    882     1   111.0400475 552.288000
    872    876    879     1   111.0400475 552.288000
    873    872    876     1   112.3500484 533.878400
    873    882    886     1   111.0400475 529.694400
    876    879    885     1   111.0400475 529.694400
    879    885   1660     1   115.1800491 558.982400
    879    885    887     1   123.2000528 564.003200
    882    886    888     1   123.2000528 564.003200
    882    886   1671     1   115.1800491 558.982400
    885   1660   1651     1   120.6900519 530.531200
    886   1671   1662     1   120.6900519 530.531200
    887    885   1660     1   123.0500530 620.905600
    888    886   1671     1   123.0500530 620.905600
    891    894    914     1   111.6100477 551.451200
    891    897    898     1   112.3500484 533.878400
    891    897    901     1   112.3500484 533.878400
    894    891    897     1   111.0400475 552.288000
    897    898    907     1   111.0400475 552.288000
    897    901    904     1   111.0400475 552.288000
    898    897    901     1   112.3500484 533.878400
    898    907    911     1   111.0400475 529.694400
    901    904    910     1   111.0400475 529.694400
    904    910   1682     1   115.1800491 558.982400
    904    910    912     1   123.2000528 564.003200
    907    911    913     1   123.2000528 564.003200
    907    911   1693     1   115.1800491 558.982400
    910   1682   1673     1   120.6900519 530.531200
    911   1693   1684     1   120.6900519 530.531200
    912    910   1682     1   123.0500530 620.905600
    913    911   1693     1   123.0500530 620.905600
    916    919    939     1   111.6100477 551.451200
    916    922    923     1   112.3500484 533.878400
    916    922    926     1   112.3500484 533.878400
    919    916    922     1   111.0400475 552.288000
    922    923    932     1   111.0400475 552.288000
    922    926    929     1   111.0400475 552.288000
    923    922    926     1   112.3500484 533.878400
    923    932    936     1   111.0400475 529.694400
    926    929    935     1   111.0400475 529.694400
    929    935   1704     1   115.1800491 558.982400
    929    935    937     1   123.2000528 564.003200
    932    936    938     1   123.2000528 564.003200
    932    936   1715     1   115.1800491 558.982400
    935   1704   1695     1   120.6900519 530.531200
    936   1715   1706     1   120.6900519 530.531200
    937    935   1704     1   123.0500530 620.905600
    938    936   1715     1   123.0500530 620.905600
    941    944    964     1   111.6100477 551.451200
    941    947    948     1   112.3500484 533.878400
    941    947    951     1   112.3500484 533.878400
    944    941    947     1   111.0400475 552.288000
    947    948    957     1   111.0400475 552.288000
    947    951    954     1   111.0400475 552.288000
    948    947    951     1   112.3500484 533.878400
    948    957    961     1   111.0400475 529.694400
    951    954    960     1   111.0400475 529.694400
    954    960   1726     1   115.1800491 558.982400
    954    960    962     1   123.2000528 564.003200
    957    961    963     1   123.2000528 564.003200
    957    961   1737     1   115.1800491 558.982400
    960   1726   1717     1   120.6900519 530.531200
    961   1737   1728     1   120.6900519 530.531200
    962    960   1726     1   123.0500530 620.905600
    963    961   1737     1   123.0500530 620.905600
    966    969    989     1   111.6100477 551.451200
    966    972    973     1   112.3500484 533.878400
    966    972    976     1   112.3500484 533.878400
    969    966    972     1   111.0400475 552.288000
    972    973    982     1   111.0400475 552.288000
    972    976    979     1   111.0400475 552.288000
    973    972    976     1   112.3500484 533.878400
    973    982    986     1   111.0400475 529.694400
    976    979    985     1   111.0400475 529.694400
    979    985   1748     1   115.1800491 558.982400
    979    985    987     1   123.2000528 564.003200
    982    986    988     1   123.2000528 564.003200
    982    986   1759     1   115.1800491 558.982400
    985   1748   1739     1   120.6900519 530.531200
    986   1759   1750     1   120.6900519 530.531200
    987    985   1748     1   123.0500530 620.905600
    988    986   1759     1   123.0500530 620.905600
    991    994   1014     1   111.6100477 551.451200
    991    997    998     1   112.3500484 533.878400
    991    997   1001     1   112.3500484 533.878400
    994    991    997     1   111.0400475 552.288000
    997    998   1007     1   111.0400475 552.288000
    997   1001   1004     1   111.0400475 552.288000
    998    997   1001     1   112.3500484 533.878400
    998   1007   1011     1   111.0400475 529.694400
   1001   1004   1010     1   111.0400475 529.694400
   1004   1010   1770     1   115.1800491 558.982400
   1004   1010   1012     1   123.2000528 564.003200
   1007   1011   1013     1   123.2000528 564.003200
   1007   1011   1781     1   115.1800491 558.982400
   1010   1770   1761     1   120.6900519 530.531200
   1011   1781   1772     1   120.6900519 530.531200
   1012   1010   1770     1   123.0500530 620.905600
   1013   1011   1781     1   123.0500530 620.905600
   1016   1019   1039     1   111.6100477 551.451200
   1016   1022   1023     1   112.3500484 533.878400
   1016   1022   1026     1   112.3500484 533.878400
   1019   1016   1022     1   111.0400475 552.288000
   1022   1023   1032     1   111.0400475 552.288000
   1022   1026   1029     1   111.0400475 552.288000
   1023   1022   1026     1   112.3500484 533.878400
   1023   1032   1036     1   111.0400475 529.694400
   1026   1029   1035     1   111.0400475 529.694400
   1029   1035   1792     1   115.1800491 558.982400
   1029   1035   1037     1   123.2000528 564.003200
   1032   1036   1038     1   123.2000528 564.003200
   1032   1036   1803     1   115.1800491 558.982400
   1035   1792   1783     1   120.6900519 530.531200
   1036   1803   1794     1   120.6900519 530.531200
   1037   1035   1792     1   123.0500530 620.905600
   1038   1036   1803     1   123.0500530 620.905600
   1041   1044   1064     1   111.6100477 551.451200
   1041   1047   1048     1   112.3500484 533.878400
   1041   1047   1051     1   112.3500484 533.878400
   1044   1041   1047     1   111.0400475 552.288000
   1047   1048   1057     1   111.0400475 552.288000
   1047   1051   1054     1   111.0400475 552.288000
   1048   1047   1051     1   112.3500484 533.878400
   1048   1057   1061     1   111.0400475 529.694400
   1051   1054   1060     1   111.0400475 529.694400
   1054   1060   1814     1   115.1800491 558.982400
   1054   1060   1062     1   123.2000528 564.003200
   1057   1061   1063     1   123.2000528 564.003200
   1057   1061   1825     1   115.1800491 558.982400
   1060   1814   1805     1   120.6900519 530.531200
   1061   1825   1816     1   120.6900519 530.531200
   1062   1060   1814     1   123.0500530 620.905600
   1063   1061   1825     1   123.0500530 620.905600
   1066   1069   1089     1   111.6100477 551.451200
   1066   1072   1073     1   112.3500484 533.878400
   1066   1072   1076     1   112.3500484 533.878400
   1069   1066   1072     1   111.0400475 552.288000
   1072   1073   1082     1   111.0400475 552.288000
   1072   1076   1079     1   111.0400475 552.288000
   1073   1072   1076     1   112.3500484 533.878400
   1073   1082   1086     1   111.0400475 529.694400
   1076   1079   1085     1   111.0400475 529.694400
   1079   1085   1836     1   115.1800491 558.982400
   1079   1085   1087     1   123.2000528 564.003200
   1082   1086   1088     1   123.2000528 564.003200
   1082   1086   1847     1   115.1800491 558.982400
   1085   1836   1827     1   120.6900519 530.531200
   1086   1847   1838     1   120.6900519 530.531200
   1087   1085   1836     1   123.0500530 620.905600
   1088   1086   1847     1   123.0500530 620.905600
   1091   1094   1114     1   111.6100477 551.451200
   1091   1097   1098     1   112.3500484 533.878400
   1091   1097   1101     1   112.3500484 533.878400
   1094   1091   1097     1   111.0400475 552.288000
   1097   1098   1107     1   111.0400475 552.288000
   1097   1101   1104     1   111.0400475 552.288000
   1098   1097   1101     1   112.3500484 533.878400
   1098   1107   1111     1   111.0400475 529.694400
   1101   1104   1110     1   111.0400475 529.694400
   1104   1110   1858     1   115.1800491 558.982400
   1104   1110   1112     1   123.2000528 564.003200
   1107   1111   1113     1   123.2000528 564.003200
   1107   1111   1869     1   115.1800491 558.982400
   1110   1858   1849     1   120.6900519 530.531200
   1111   1869   1860     1   120.6900519 530.531200
   1112   1110   1858     1   123.0500530 620.905600
   1113   1111   1869     1   123.0500530 620.905600
   1116   1119   1139     1   111.6100477 551.451200
   1116   1122   1123     1   112.3500484 533.878400
   1116   1122   1126     1   112.3500484 533.878400
   1119   1116   1122     1   111.0400475 552.288000
   1122   1123   1132     1   111.0400475 552.288000
   1122   1126   1129     1   111.0400475 552.288000
   1123   1122   1126     1   112.3500484 533.878400
   1123   1132   1136     1   111.0400475 529.694400
   1126   1129   1135     1   111.0400475 529.694400
   1129   1135   1880     1   115.1800491 558.982400
   1129   1135   1137     1   123.2000528 564.003200
   1132   1136   1138     1   123.2000528 564.003200
   1132   1136   1891     1   115.1800491 558.982400
   1135   1880   1871     1   120.6900519 530.531200
   1136   1891   1882     1   120.6900519 530.531200
   1137   1135   1880     1   123.0500530 620.905600
   1138   1136   1891     1   123.0500530 620.905600
   1141   1144   1164     1   111.6100477 551.451200
   1141   1147   1148     1   112.3500484 533.878400
   1141   1147   1151     1   112.3500484 533.878400
   1144   1141   1147     1   111.0400475 552.288000
   1147   1148   1157     1   111.0400475 552.288000
   1147   1151   1154     1   111.0400475 552.288000
   1148   1147   1151     1   112.3500484 533.878400
   1148   1157   1161     1   111.0400475 529.694400
   1151   1154   1160     1   111.0400475 529.694400
   1154   1160   1902     1   115.1800491 558.982400
   1154   1160   1162     1   123.2000528 564.003200
   1157   1161   1163     1   123.2000528 564.003200
   1157   1161   1913     1   115.1800491 558.982400
   1160   1902   1893     1   120.6900519 530.531200
   1161   1913   1904     1   120.6900519 530.531200
   1162   1160   1902     1   123.0500530 620.905600
   1163   1161   1913     1   123.0500530 620.905600
   1166   1169   1189     1   111.6100477 551.451200
   1166   1172   1173     1   112.3500484 533.878400
   1166   1172   1176     1   112.3500484 533.878400
   1169   1166   1172     1   111.0400475 552.288000
   1172   1173   1182     1   111.0400475 552.288000
   1172   1176   1179     1   111.0400475 552.288000
   1173   1172   1176     1   112.3500484 533.878400
   1173   1182   1186     1   111.0400475 529.694400
   1176   1179   1185     1   111.0400475 529.694400
   1179   1185   1924     1   115.1800491 558.982400
   1179   1185   1187     1   123.2000528 564.003200
   1182   1186   1188     1   123.2000528 564.003200
   1182   1186   1935     1   115.1800491 558.982400
   1185   1924   1915     1   120.6900519 530.531200
   1186   1935   1926     1   120.6900519 530.531200
   1187   1185   1924     1   123.0500530 620.905600
   1188   1186   1935     1   123.0500530 620.905600
   1191   1194   1214     1   111.6100477 551.451200
   1191   1197   1198     1   112.3500484 533.878400
   1191   1197   1201     1   112.3500484 533.878400
   1194   1191   1197     1   111.0400475 552.288000
   1197   1198   1207     1   111.0400475 552.288000
   1197   1201   1204     1   111.0400475 552.288000
   1198   1197   1201     1   112.3500484 533.878400
   1198   1207   1211     1   111.0400475 529.694400
   1201   1204   1210     1   111.0400475 529.694400
   1204   1210   1946     1   115.1800491 558.982400
   1204   1210   1212     1   123.2000528 564.003200
   1207   1211   1213     1   123.2000528 564.003200
   1207   1211   1957     1   115.1800491 558.982400
   1210   1946   1937     1   120.6900519 530.531200
   1211   1957   1948     1   120.6900519 530.531200
   1212   1210   1946     1   123.0500530 620.905600
   1213   1211   1957     1   123.0500530 620.905600
   1216   1219   1239     1   111.6100477 551.451200
   1216   1222   1223     1   112.3500484 533.878400
   1216   1222   1226     1   112.3500484 533.878400
   1219   1216   1222     1   111.0400475 552.288000
   1222   1223   1232     1   111.0400475 552.288000
   1222   1226   1229     1   111.0400475 552.288000
   1223   1222   1226     1   112.3500484 533.878400
   1223   1232   1236     1   111.0400475 529.694400
   1226   1229   1235     1   111.0400475 529.694400
   1229   1235   1968     1   115.1800491 558.982400
   1229   1235   1237     1   123.2000528 564.003200
   1232   1236   1238     1   123.2000528 564.003200
   1232   1236   1979     1   115.1800491 558.982400
   1235   1968   1959     1   120.6900519 530.531200
   1236   1979   1970     1   120.6900519 530.531200
   1237   1235   1968     1   123.0500530 620.905600
   1238   1236   1979     1   123.0500530 620.905600
   1241   1244   1264     1   111.6100477 551.451200
   1241   1247   1248     1   112.3500484 533.878400
   1241   1247   1251     1   112.3500484 533.878400
   1244   1241   1247     1   111.0400475 552.288000
   1247   1248   1257     1   111.0400475 552.288000
   1247   1251   1254     1   111.0400475 552.288000
   1248   1247   1251     1   112.3500484 533.878400
   1248   1257   1261     1   111.0400475 529.694400
   1251   1254   1260     1   111.0400475 529.694400
   1254   1260   1990     1   115.1800491 558.982400
   1254   1260   1262     1   123.2000528 564.003200
   1257   1261   1263     1   123.2000528 564.003200
   1257   1261   2001     1   115.1800491 558.982400
   1260   1990   1981     1   120.6900519 530.531200
   1261   2001   1992     1   120.6900519 530.531200
   1262   1260   1990     1   123.0500530 620.905600
   1263   1261   2001     1   123.0500530 620.905600
   1266   1269   1289     1   111.6100477 551.451200
   1266   1272   1273     1   112.3500484 533.878400
   1266   1272   1276     1   112.3500484 533.878400
   1269   1266   1272     1   111.0400475 552.288000
   1272   1273   1282     1   111.0400475 552.288000
   1272   1276   1279     1   111.0400475 552.288000
   1273   1272   1276     1   112.3500484 533.878400
   1273   1282   1286     1   111.0400475 529.694400
   1276   1279   1285     1   111.0400475 529.694400
   1279   1285   2012     1   115.1800491 558.982400
   1279   1285   1287     1   123.2000528 564.003200
   1282   1286   1288     1   123.2000528 564.003200
   1282   1286   2023     1   115.1800491 558.982400
   1285   2012   2003     1   120.6900519 530.531200
   1286   2023   2014     1   120.6900519 530.531200
   1287   1285   2012     1   123.0500530 620.905600
   1288   1286   2023     1   123.0500530 620.905600
   1291   1294   1314     1   111.6100477 551.451200
   1291   1297   1298     1   112.3500484 533.878400
   1291   1297   1301     1   112.3500484 533.878400
   1294   1291   1297     1   111.0400475 552.288000
   1297   1298   1307     1   111.0400475 552.288000
   1297   1301   1304     1   111.0400475 552.288000
   1298   1297   1301     1   112.3500484 533.878400
   1298   1307   1311     1   111.0400475 529.694400
   1301   1304   1310     1   111.0400475 529.694400
   1304   1310   2034     1   115.1800491 558.982400
   1304   1310   1312     1   123.2000528 564.003200
   1307   1311   1313     1   123.2000528 564.003200
   1307   1311   2045     1   115.1800491 558.982400
   1310   2034   2025     1   120.6900519 530.531200
   1311   2045   2036     1   120.6900519 530.531200
   1312   1310   2034     1   123.0500530 620.905600
   1313   1311   2045     1   123.0500530 620.905600
   1316   1319   1339     1   111.6100477 551.451200
   1316   1322   1323     1   112.3500484 533.878400
   1316   1322   1326     1   112.3500484 533.878400
   1319   1316   1322     1   111.0400475 552.288000
   1322   1323   1332     1   111.0400475 552.288000
   1322   1326   1329     1   111.0400475 552.288000
   1323   1322   1326     1   112.3500484 533.878400
   1323   1332   1336     1   111.0400475 529.694400
   1326   1329   1335     1   111.0400475 529.694400
   1329   1335   2056     1   115.1800491 558.982400
   1329   1335   1337     1   123.2000528 564.003200
   1332   1336   1338     1   123.2000528 564.003200
   1332   1336   2067     1   115.1800491 558.982400
   1335   2056   2047     1   120.6900519 530.531200
   1336   2067   2058     1   120.6900519 530.531200
   1337   1335   2056     1   123.0500530 620.905600
   1338   1336   2067     1   123.0500530 620.905600
   1341   1344   1364     1   111.6100477 551.451200
   1341   1347   1348     1   112.3500484 533.878400
   1341   1347   1351     1   112.3500484 533.878400
   1344   1341   1347     1   111.0400475 552.288000
   1347   1348   1357     1   111.0400475 552.288000
   1347   1351   1354     1   111.0400475 552.288000
   1348   1347   1351     1   112.3500484 533.878400
   1348   1357   1361     1   111.0400475 529.694400
   1351   1354   1360     1   111.0400475 529.694400
   1354   1360   2078     1   115.1800491 558.982400
   1354   1360   1362     1   123.2000528 564.003200
   1357   1361   1363     1   123.2000528 564.003200
   1357   1361   2089     1   115.1800491 558.982400
   1360   2078   2069     1   120.6900519 530.531200
   1361   2089   2080     1   120.6900519 530.531200
   1362   1360   2078     1   123.0500530 620.905600
   1363   1361   2089     1   123.0500530 620.905600
   1366   1369   1389     1   111.6100477 551.451200
   1366   1372   1373     1   112.3500484 533.878400
   1366   1372   1376     1   112.3500484 533.878400
   1369   1366   1372     1   111.0400475 552.288000
   1372   1373   1382     1   111.0400475 552.288000
   1372   1376   1379     1   111.0400475 552.288000
   1373   1372   1376     1   112.3500484 533.878400
   1373   1382   1386     1   111.0400475 529.694400
   1376   1379   1385     1   111.0400475 529.694400
   1379   1385   2100     1   115.1800491 558.982400
   1379   1385   1387     1   123.2000528 564.003200
   1382   1386   1388     1   123.2000528 564.003200
   1382   1386   2111     1   115.1800491 558.982400
   1385   2100   2091     1   120.6900519 530.531200
   1386   2111   2102     1   120.6900519 530.531200
   1387   1385   2100     1   123.0500530 620.905600
   1388   1386   2111     1   123.0500530 620.905600
   1391   1394   1414     1   111.6100477 551.451200
   1391   1397   1398     1   112.3500484 533.878400
   1391   1397   1401     1   112.3500484 533.878400
   1394   1391   1397     1   111.0400475 552.288000
   1397   1398   1407     1   111.0400475 552.288000
   1397   1401   1404     1   111.0400475 552.288000
   1398   1397   1401     1   112.3500484 533.878400
   1398   1407   1411     1   111.0400475 529.694400
   1401   1404   1410     1   111.0400475 529.694400
   1404   1410   2122     1   115.1800491 558.982400
   1404   1410   1412     1   123.2000528 564.003200
   1407   1411   1413     1   123.2000528 564.003200
   1407   1411   2133     1   115.1800491 558.982400
   1410   2122   2113     1   120.6900519 530.531200
   1411   2133   2124     1   120.6900519 530.531200
   1412   1410   2122     1   123.0500530 620.905600
   1413   1411   2133     1   123.0500530 620.905600
   1416   1419   1439     1   111.6100477 551.451200
   1416   1422   1423     1   112.3500484 533.878400
   1416   1422   1426     1   112.3500484 533.878400
   1419   1416   1422     1   111.0400475 552.288000
   1422   1423   1432     1   111.0400475 552.288000
   1422   1426   1429     1   111.0400475 552.288000
   1423   1422   1426     1   112.3500484 533.878400
   1423   1432   1436     1   111.0400475 529.694400
   1426   1429   1435     1   111.0400475 529.694400
   1429   1435   2144     1   115.1800491 558.982400
   1429   1435   1437     1   123.2000528 564.003200
   1432   1436   1438     1   123.2000528 564.003200
   1432   1436   2155     1   115.1800491 558.982400
   1435   2144   2135     1   120.6900519 530.531200
   1436   2155   2146     1   120.6900519 530.531200
   1437   1435   2144     1   123.0500530 620.905600
   1438   1436   2155     1   123.0500530 620.905600
   1441   1444   1464     1   111.6100477 551.451200
   1441   1447   1448     1   112.3500484 533.878400
   1441   1447   1451     1   112.3500484 533.878400
   1444   1441   1447     1   111.0400475 552.288000
   1447   1448   1457     1   111.0400475 552.288000
   1447   1451   1454     1   111.0400475 552.288000
   1448   1447   1451     1   112.3500484 533.878400
   1448   1457   1461     1   111.0400475 529.694400
   1451   1454   1460     1   111.0400475 529.694400
   1454   1460   2166     1   115.1800491 558.982400
   1454   1460   1462     1   123.2000528 564.003200
   1457   1461   1463     1   123.2000528 564.003200
   1457   1461   2177     1   115.1800491 558.982400
   1460   2166   2157     1   120.6900519 530.531200
   1461   2177   2168     1   120.6900519 530.531200
   1462   1460   2166     1   123.0500530 620.905600
   1463   1461   2177     1   123.0500530 620.905600
   1466   1469   1489     1   111.6100477 551.451200
   1466   1472   1473     1   112.3500484 533.878400
   1466   1472   1476     1   112.3500484 533.878400
   1469   1466   1472     1   111.0400475 552.288000
   1472   1473   1482     1   111.0400475 552.288000
   1472   1476   1479     1   111.0400475 552.288000
   1473   1472   1476     1   112.3500484 533.878400
   1473   1482   1486     1   111.0400475 529.694400
   1476   1479   1485     1   111.0400475 529.694400
   1479   1485   2188     1   115.1800491 558.982400
   1479   1485   1487     1   123.2000528 564.003200
   1482   1486   1488     1   123.2000528 564.003200
   1482   1486   2199     1   115.1800491 558.982400
   1485   2188   2179     1   120.6900519 530.531200
   1486   2199   2190     1   120.6900519 530.531200
   1487   1485   2188     1   123.0500530 620.905600
   1488   1486   2199     1   123.0500530 620.905600
   1491   1494   1514     1   111.6100477 551.451200
   1491   1497   1498     1   112.3500484 533.878400
   1491   1497   1501     1   112.3500484 533.878400
   1494   1491   1497     1   111.0400475 552.288000
   1497   1498   1507     1   111.0400475 552.288000
   1497   1501   1504     1   111.0400475 552.288000
   1498   1497   1501     1   112.3500484 533.878400
   1498   1507   1511     1   111.0400475 529.694400
   1501   1504   1510     1   111.0400475 529.694400
   1504   1510   2210     1   115.1800491 558.982400
   1504   1510   1512     1   123.2000528 564.003200
   1507   1511   1513     1   123.2000528 564.003200
   1507   1511   2221     1   115.1800491 558.982400
   1510   2210   2201     1   120.6900519 530.531200
   1511   2221   2212     1   120.6900519 530.531200
   1512   1510   2210     1   123.0500530 620.905600
   1513   1511   2221     1   123.0500530 620.905600
   1516   1519   1539     1   111.6100477 551.451200
   1516   1522   1523     1   112.3500484 533.878400
   1516   1522   1526     1   112.3500484 533.878400
   1519   1516   1522     1   111.0400475 552.288000
   1522   1523   1532     1   111.0400475 552.288000
   1522   1526   1529     1   111.0400475 552.288000
   1523   1522   1526     1   112.3500484 533.878400
   1523   1532   1536     1   111.0400475 529.694400
   1526   1529   1535     1   111.0400475 529.694400
   1529   1535   2232     1   115.1800491 558.982400
   1529   1535   1537     1   123.2000528 564.003200
   1532   1536   2243     1   115.1800491 558.982400
   1532   1536   1538     1   123.2000528 564.003200
   1535   2232   2223     1   120.6900519 530.531200
   1536   2243   2234     1   120.6900519 530.531200
   1537   1535   2232     1   123.0500530 620.905600
   1538   1536   2243     1   123.0500530 620.905600
   1541   1544   1547     1   111.0400475 552.288000
   1544   1541   1550     1   111.6100477 551.451200
   1552   1555   1558     1   111.0400475 552.288000
   1555   1552   1561     1   111.6100477 551.451200
   1563   1566   1569     1   111.0400475 552.288000
   1566   1563   1572     1   111.6100477 551.451200
   1574   1577   1580     1   111.0400475 552.288000
   1577   1574   1583     1   111.6100477 551.451200
   1585   1588   1591     1   111.0400475 552.288000
   1588   1585   1594     1   111.6100477 551.451200
   1596   1599   1602     1   111.0400475 552.288000
   1599   1596   1605     1   111.6100477 551.451200
   1607   1610   1613     1   111.0400475 552.288000
   1610   1607   1616     1   111.6100477 551.451200
   1618   1621   1624     1   111.0400475 552.288000
   1621   1618   1627     1   111.6100477 551.451200
   1629   1632   1635     1   111.0400475 552.288000
   1632   1629   1638     1   111.6100477 551.451200
   1640   1643   1646     1   111.0400475 552.288000
   1643   1640   1649     1   111.6100477 551.451200
   1651   1654   1657     1   111.0400475 552.288000
   1654   1651   1660     1   111.6100477 551.451200
   1662   1665   1668     1   111.0400475 552.288000
   1665   1662   1671     1   111.6100477 551.451200
   1673   1676   1679     1   111.0400475 552.288000
   1676   1673   1682     1   111.6100477 551.451200
   1684   1687   1690     1   111.0400475 552.288000
   1687   1684   1693     1   111.6100477 551.451200
   1695   1698   1701     1   111.0400475 552.288000
   1698   1695   1704     1   111.6100477 551.451200
   1706   1709   1712     1   111.0400475 552.288000
   1709   1706   1715     1   111.6100477 551.451200
   1717   1720   1723     1   111.0400475 552.288000
   1720   1717   1726     1   111.6100477 551.451200
   1728   1731   1734     1   111.0400475 552.288000
   1731   1728   1737     1   111.6100477 551.451200
   1739   1742   1745     1   111.0400475 552.288000
   1742   1739   1748     1   111.6100477 551.451200
   1750   1753   1756     1   111.0400475 552.288000
   1753   1750   1759     1   111.6100477 551.451200
   1761   1764   1767     1   111.0400475 552.288000
   1764   1761   1770     1   111.6100477 551.451200
   1772   1775   1778     1   111.0400475 552.288000
   1775   1772   1781     1   111.6100477 551.451200
   1783   1786   1789     1   111.0400475 552.288000
   1786   1783   1792     1   111.6100477 551.451200
   1794   1797   1800     1   111.0400475 552.288000
   1797   1794   1803     1   111.6100477 551.451200
   1805   1808   1811     1   111.0400475 552.288000
   1808   1805   1814     1   111.6100477 551.451200
   1816   1819   1822     1   111.0400475 552.288000
   1819   1816   1825     1   111.6100477 551.451200
   1827   1830   1833     1   111.0400475 552.288000
   1830   1827   1836     1   111.6100477 551.451200
   1838   1841   1844     1   111.0400475 552.288000
   1841   1838   1847     1   111.6100477 551.451200
   1849   1852   1855     1   111.0400475 552.288000
   1852   1849   1858     1   111.6100477 551.451200
   1860   1863   1866     1   111.0400475 552.288000
   1863   1860   1869     1   111.6100477 551.451200
   1871   1874   1877     1   111.0400475 552.288000
   1874   1871   1880     1   111.6100477 551.451200
   1882   1885   1888     1   111.0400475 552.288000
   1885   1882   1891     1   111.6100477 551.451200
   1893   1896   1899     1   111.0400475 552.288000
   1896   1893   1902     1   111.6100477 551.451200
   1904   1907   1910     1   111.0400475 552.288000
   1907   1904   1913     1   111.6100477 551.451200
   1915   1918   1921     1   111.0400475 552.288000
   1918   1915   1924     1   111.6100477 551.451200
   1926   1929   1932     1   111.0400475 552.288000
   1929   1926   1935     1   111.6100477 551.451200
   1937   1940   1943     1   111.0400475 552.288000
   1940   1937   1946     1   111.6100477 551.451200
   1948   1951   1954     1   111.0400475 552.288000
   1951   1948   1957     1   111.6100477 551.451200
   1959   1962   1965     1   111.0400475 552.288000
   1962   1959   1968     1   111.6100477 551.451200
   1970   1973   1976     1   111.0400475 552.288000
   1973   1970   1979     1   111.6100477 551.451200
   1981   1984   1987     1   111.0400475 552.288000
   1984   1981   1990     1   111.6100477 551.451200
   1992   1995   1998     1   111.0400475 552.288000
   1995   1992   2001     1   111.6100477 551.451200
   2003   2006   2009     1   111.0400475 552.288000
   2006   2003   2012     1   111.6100477 551.451200
   2014   2017   2020     1   111.0400475 552.288000
   2017   2014   2023     1   111.6100477 551.451200
   2025   2028   2031     1   111.0400475 552.288000
   2028   2025   2034     1   111.6100477 551.451200
   2036   2039   2042     1   111.0400475 552.288000
   2039   2036   2045     1   111.6100477 551.451200
   2047   2050   2053     1   111.0400475 552.288000
   2050   2047   2056     1   111.6100477 551.451200
   2058   2061   2064     1   111.0400475 552.288000
   2061   2058   2067     1   111.6100477 551.451200
   2069   2072   2075     1   111.0400475 552.288000
   2072   2069   2078     1   111.6100477 551.451200
   2080   2083   2086     1   111.0400475 552.288000
   2083   2080   2089     1   111.6100477 551.451200
   2091   2094   2097     1   111.0400475 552.288000
   2094   2091   2100     1   111.6100477 551.451200
   2102   2105   2108     1   111.0400475 552.288000
   2105   2102   2111     1   111.6100477 551.451200
   2113   2116   2119     1   111.0400475 552.288000
   2116   2113   2122     1   111.6100477 551.451200
   2124   2127   2130     1   111.0400475 552.288000
   2127   2124   2133     1   111.6100477 551.451200
   2135   2138   2141     1   111.0400475 552.288000
   2138   2135   2144     1   111.6100477 551.451200
   2146   2149   2152     1   111.0400475 552.288000
   2149   2146   2155     1   111.6100477 551.451200
   2157   2160   2163     1   111.0400475 552.288000
   2160   2157   2166     1   111.6100477 551.451200
   2168   2171   2174     1   111.0400475 552.288000
   2171   2168   2177     1   111.6100477 551.451200
   2179   2182   2185     1   111.0400475 552.288000
   2182   2179   2188     1   111.6100477 551.451200
   2190   2193   2196     1   111.0400475 552.288000
   2193   2190   2199     1   111.6100477 551.451200
   2201   2204   2207     1   111.0400475 552.288000
   2204   2201   2210     1   111.6100477 551.451200
   2212   2215   2218     1   111.0400475 552.288000
   2215   2212   2221     1   111.6100477 551.451200
   2223   2226   2229     1   111.0400475 552.288000
   2226   2223   2232     1   111.6100477 551.451200
   2234   2237   2240     1   111.0400475 552.288000
   2237   2234   2243     1   111.6100477 551.451200
      1      4      5     1   109.5600471 388.275200
      1      4      6     1   109.5600471 388.275200
      2      1      4     1   109.5600471 388.275200
      2      1      8     1   109.8800469 414.216000
      2      1      3     1   108.4600466 328.025600
      3      1      4     1   109.5600471 388.275200
      3      1      8     1   109.8800469 414.216000
      5      4      7     1   109.8800469 414.216000
      5      4      6     1   108.4600466 328.025600
      6      4      7     1   109.8800469 414.216000
      7     15     16     1   109.8800469 414.216000
      7     15     17     1   109.8800469 414.216000
      7     18     19     1   109.8800469 414.216000
      7     18     20     1   109.8800469 414.216000
      8      9     10     1   109.8800469 414.216000
      8      9     11     1   109.8800469 414.216000
      8     12     13     1   109.8800469 414.216000
      8     12     14     1   109.8800469 414.216000
      9     30     31     1   109.8000471 387.438400
      9     30     32     1   109.8000471 387.438400
     10      9     30     1   109.5600471 388.275200
     10      9     11     1   108.4600466 328.025600
     11      9     30     1   109.5600471 388.275200
     12     27     28     1   109.8000471 387.438400
     12     27     29     1   109.8000471 387.438400
     13     12     27     1   109.5600471 388.275200
     13     12     14     1   108.4600466 328.025600
     14     12     27     1   109.5600471 388.275200
     15     21     22     1   109.8000471 387.438400
     15     21     23     1   109.8000471 387.438400
     16     15     21     1   109.5600471 388.275200
     16     15     17     1   108.4600466 328.025600
     17     15     21     1   109.5600471 388.275200
     18     24     25     1   109.8000471 387.438400
     18     24     26     1   109.8000471 387.438400
     19     18     24     1   109.5600471 388.275200
     19     18     20     1   108.4600466 328.025600
     20     18     24     1   109.5600471 388.275200
     22     21     35     1   108.7700466 392.459200
     22     21     23     1   107.5800459 329.699200
     23     21     35     1   108.7700466 392.459200
     25     24     36     1   108.7700466 392.459200
     25     24     26     1   107.5800459 329.699200
     26     24     36     1   108.7700466 392.459200
     28     27     33     1   108.7700466 392.459200
     28     27     29     1   107.5800459 329.699200
     29     27     33     1   108.7700466 392.459200
     31     30     34     1   108.7700466 392.459200
     31     30     32     1   107.5800459 329.699200
     32     30     34     1   108.7700466 392.459200
     33     64     65     1   117.5500507 404.174400
     34     89     90     1   117.5500507 404.174400
     35    114    115     1   117.5500507 404.174400
     36    139    140     1   117.5500507 404.174400
     41     44     45     1   109.5600471 388.275200
     41     44     46     1   109.5600471 388.275200
     42     41     44     1   109.5600471 388.275200
     42     41     47     1   109.8800469 414.216000
     42     41     43     1   108.4600466 328.025600
     43     41     44     1   109.5600471 388.275200
     43     41     47     1   109.8800469 414.216000
     44     64     65     1   117.6800502 383.254400
     45     44     64     1   108.8800464 416.726400
     45     44     46     1   108.4600466 328.025600
     46     44     64     1   108.8800464 416.726400
     47     48     49     1   109.8800469 414.216000
     47     48     50     1   109.8800469 414.216000
     47     51     52     1   109.8800469 414.216000
     47     51     53     1   109.8800469 414.216000
     48     57     58     1   109.8000471 387.438400
     48     57     59     1   109.8000471 387.438400
     49     48     57     1   109.5600471 388.275200
     49     48     50     1   108.4600466 328.025600
     50     48     57     1   109.5600471 388.275200
     51     54     55     1   109.8000471 387.438400
     51     54     56     1   109.8000471 387.438400
     52     51     54     1   109.5600471 388.275200
     52     51     53     1   108.4600466 328.025600
     53     51     54     1   109.5600471 388.275200
     55     54     60     1   108.7700466 392.459200
     55     54     56     1   107.5800459 329.699200
     56     54     60     1   108.7700466 392.459200
     58     57     61     1   108.7700466 392.459200
     58     57     59     1   107.5800459 329.699200
     59     57     61     1   108.7700466 392.459200
     60    164    165     1   117.5500507 404.174400
     61    189    190     1   117.5500507 404.174400
     66     69     70     1   109.5600471 388.275200
     66     69     71     1   109.5600471 388.275200
     67     66     69     1   109.5600471 388.275200
     67     66     72     1   109.8800469 414.216000
     67     66     68     1   108.4600466 328.025600
     68     66     69     1   109.5600471 388.275200
     68     66     72     1   109.8800469 414.216000
     69     89     90     1   117.6800502 383.254400
     70     69     89     1   108.8800464 416.726400
     70     69     71     1   108.4600466 328.025600
     71     69     89     1   108.8800464 416.726400
     72     73     74     1   109.8800469 414.216000
     72     73     75     1   109.8800469 414.216000
     72     76     77     1   109.8800469 414.216000
     72     76     78     1   109.8800469 414.216000
     73     82     83     1   109.8000471 387.438400
     73     82     84     1   109.8000471 387.438400
     74     73     82     1   109.5600471 388.275200
     74     73     75     1   108.4600466 328.025600
     75     73     82     1   109.5600471 388.275200
     76     79     80     1   109.8000471 387.438400
     76     79     81     1   109.8000471 387.438400
     77     76     79     1   109.5600471 388.275200
     77     76     78     1   108.4600466 328.025600
     78     76     79     1   109.5600471 388.275200
     80     79     85     1   108.7700466 392.459200
     80     79     81     1   107.5800459 329.699200
     81     79     85     1   108.7700466 392.459200
     83     82     86     1   108.7700466 392.459200
     83     82     84     1   107.5800459 329.699200
     84     82     86     1   108.7700466 392.459200
     85    214    215     1   117.5500507 404.174400
     86    239    240     1   117.5500507 404.174400
     91     94     95     1   109.5600471 388.275200
     91     94     96     1   109.5600471 388.275200
     92     91     94     1   109.5600471 388.275200
     92     91     97     1   109.8800469 414.216000
     92     91     93     1   108.4600466 328.025600
     93     91     94     1   109.5600471 388.275200
     93     91     97     1   109.8800469 414.216000
     94    114    115     1   117.6800502 383.254400
     95     94    114     1   108.8800464 416.726400
     95     94     96     1   108.4600466 328.025600
     96     94    114     1   108.8800464 416.726400
     97     98     99     1   109.8800469 414.216000
     97     98    100     1   109.8800469 414.216000
     97    101    102     1   109.8800469 414.216000
     97    101    103     1   109.8800469 414.216000
     98    107    108     1   109.8000471 387.438400
     98    107    109     1   109.8000471 387.438400
     99     98    107     1   109.5600471 388.275200
     99     98    100     1   108.4600466 328.025600
    100     98    107     1   109.5600471 388.275200
    101    104    105     1   109.8000471 387.438400
    101    104    106     1   109.8000471 387.438400
    102    101    104     1   109.5600471 388.275200
    102    101    103     1   108.4600466 328.025600
    103    101    104     1   109.5600471 388.275200
    105    104    110     1   108.7700466 392.459200
    105    104    106     1   107.5800459 329.699200
    106    104    110     1   108.7700466 392.459200
    108    107    111     1   108.7700466 392.459200
    108    107    109     1   107.5800459 329.699200
    109    107    111     1   108.7700466 392.459200
    110    264    265     1   117.5500507 404.174400
    111    289    290     1   117.5500507 404.174400
    116    119    120     1   109.5600471 388.275200
    116    119    121     1   109.5600471 388.275200
    117    116    119     1   109.5600471 388.275200
    117    116    122     1   109.8800469 414.216000
    117    116    118     1   108.4600466 328.025600
    118    116    119     1   109.5600471 388.275200
    118    116    122     1   109.8800469 414.216000
    119    139    140     1   117.6800502 383.254400
    120    119    139     1   108.8800464 416.726400
    120    119    121     1   108.4600466 328.025600
    121    119    139     1   108.8800464 416.726400
    122    123    124     1   109.8800469 414.216000
    122    123    125     1   109.8800469 414.216000
    122    126    127     1   109.8800469 414.216000
    122    126    128     1   109.8800469 414.216000
    123    132    133     1   109.8000471 387.438400
    123    132    134     1   109.8000471 387.438400
    124    123    132     1   109.5600471 388.275200
    124    123    125     1   108.4600466 328.025600
    125    123    132     1   109.5600471 388.275200
    126    129    130     1   109.8000471 387.438400
    126    129    131     1   109.8000471 387.438400
    127    126    129     1   109.5600471 388.275200
    127    126    128     1   108.4600466 328.025600
    128    126    129     1   109.5600471 388.275200
    130    129    135     1   108.7700466 392.459200
    130    129    131     1   107.5800459 329.699200
    131    129    135     1   108.7700466 392.459200
    133    132    136     1   108.7700466 392.459200
    133    132    134     1   107.5800459 329.699200
    134    132    136     1   108.7700466 392.459200
    135    314    315     1   117.5500507 404.174400
    136    339    340     1   117.5500507 404.174400
    141    144    145     1   109.5600471 388.275200
    141    144    146     1   109.5600471 388.275200
    142    141    144     1   109.5600471 388.275200
    142    141    147     1   109.8800469 414.216000
    142    141    143     1   108.4600466 328.025600
    143    141    144     1   109.5600471 388.275200
    143    141    147     1   109.8800469 414.216000
    144    164    165     1   117.6800502 383.254400
    145    144    164     1   108.8800464 416.726400
    145    144    146     1   108.4600466 328.025600
    146    144    164     1   108.8800464 416.726400
    147    148    149     1   109.8800469 414.216000
    147    148    150     1   109.8800469 414.216000
    147    151    152     1   109.8800469 414.216000
    147    151    153     1   109.8800469 414.216000
    148    157    158     1   109.8000471 387.438400
    148    157    159     1   109.8000471 387.438400
    149    148    157     1   109.5600471 388.275200
    149    148    150     1   108.4600466 328.025600
    150    148    157     1   109.5600471 388.275200
    151    154    155     1   109.8000471 387.438400
    151    154    156     1   109.8000471 387.438400
    152    151    154     1   109.5600471 388.275200
    152    151    153     1   108.4600466 328.025600
    153    151    154     1   109.5600471 388.275200
    155    154    160     1   108.7700466 392.459200
    155    154    156     1   107.5800459 329.699200
    156    154    160     1   108.7700466 392.459200
    158    157    161     1   108.7700466 392.459200
    158    157    159     1   107.5800459 329.699200
    159    157    161     1   108.7700466 392.459200
    160    364    365     1   117.5500507 404.174400
    161    389    390     1   117.5500507 404.174400
    166    169    170     1   109.5600471 388.275200
    166    169    171     1   109.5600471 388.275200
    167    166    169     1   109.5600471 388.275200
    167    166    172     1   109.8800469 414.216000
    167    166    168     1   108.4600466 328.025600
    168    166    169     1   109.5600471 388.275200
    168    166    172     1   109.8800469 414.216000
    169    189    190     1   117.6800502 383.254400
    170    169    189     1   108.8800464 416.726400
    170    169    171     1   108.4600466 328.025600
    171    169    189     1   108.8800464 416.726400
    172    173    174     1   109.8800469 414.216000
    172    173    175     1   109.8800469 414.216000
    172    176    177     1   109.8800469 414.216000
    172    176    178     1   109.8800469 414.216000
    173    182    183     1   109.8000471 387.438400
    173    182    184     1   109.8000471 387.438400
    174    173    182     1   109.5600471 388.275200
    174    173    175     1   108.4600466 328.025600
    175    173    182     1   109.5600471 388.275200
    176    179    180     1   109.8000471 387.438400
    176    179    181     1   109.8000471 387.438400
    177    176    179     1   109.5600471 388.275200
    177    176    178     1   108.4600466 328.025600
    178    176    179     1   109.5600471 388.275200
    180    179    185     1   108.7700466 392.459200
    180    179    181     1   107.5800459 329.699200
    181    179    185     1   108.7700466 392.459200
    183    182    186     1   108.7700466 392.459200
    183    182    184     1   107.5800459 329.699200
    184    182    186     1   108.7700466 392.459200
    185    414    415     1   117.5500507 404.174400
    186    439    440     1   117.5500507 404.174400
    191    194    195     1   109.5600471 388.275200
    191    194    196     1   109.5600471 388.275200
    192    191    194     1   109.5600471 388.275200
    192    191    197     1   109.8800469 414.216000
    192    191    193     1   108.4600466 328.025600
    193    191    194     1   109.5600471 388.275200
    193    191    197     1   109.8800469 414.216000
    194    214    215     1   117.6800502 383.254400
    195    194    214     1   108.8800464 416.726400
    195    194    196     1   108.4600466 328.025600
    196    194    214     1   108.8800464 416.726400
    197    198    199     1   109.8800469 414.216000
    197    198    200     1   109.8800469 414.216000
    197    201    202     1   109.8800469 414.216000
    197    201    203     1   109.8800469 414.216000
    198    207    208     1   109.8000471 387.438400
    198    207    209     1   109.8000471 387.438400
    199    198    207     1   109.5600471 388.275200
    199    198    200     1   108.4600466 328.025600
    200    198    207     1   109.5600471 388.275200
    201    204    205     1   109.8000471 387.438400
    201    204    206     1   109.8000471 387.438400
    202    201    204     1   109.5600471 388.275200
    202    201    203     1   108.4600466 328.025600
    203    201    204     1   109.5600471 388.275200
    205    204    210     1   108.7700466 392.459200
    205    204    206     1   107.5800459 329.699200
    206    204    210     1   108.7700466 392.459200
    208    207    211     1   108.7700466 392.459200
    208    207    209     1   107.5800459 329.699200
    209    207    211     1   108.7700466 392.459200
    210    464    465     1   117.5500507 404.174400
    211    489    490     1   117.5500507 404.174400
    216    219    220     1   109.5600471 388.275200
    216    219    221     1   109.5600471 388.275200
    217    216    219     1   109.5600471 388.275200
    217    216    222     1   109.8800469 414.216000
    217    216    218     1   108.4600466 328.025600
    218    216    219     1   109.5600471 388.275200
    218    216    222     1   109.8800469 414.216000
    219    239    240     1   117.6800502 383.254400
    220    219    239     1   108.8800464 416.726400
    220    219    221     1   108.4600466 328.025600
    221    219    239     1   108.8800464 416.726400
    222    223    224     1   109.8800469 414.216000
    222    223    225     1   109.8800469 414.216000
    222    226    227     1   109.8800469 414.216000
    222    226    228     1   109.8800469 414.216000
    223    232    233     1   109.8000471 387.438400
    223    232    234     1   109.8000471 387.438400
    224    223    232     1   109.5600471 388.275200
    224    223    225     1   108.4600466 328.025600
    225    223    232     1   109.5600471 388.275200
    226    229    230     1   109.8000471 387.438400
    226    229    231     1   109.8000471 387.438400
    227    226    229     1   109.5600471 388.275200
    227    226    228     1   108.4600466 328.025600
    228    226    229     1   109.5600471 388.275200
    230    229    235     1   108.7700466 392.459200
    230    229    231     1   107.5800459 329.699200
    231    229    235     1   108.7700466 392.459200
    233    232    236     1   108.7700466 392.459200
    233    232    234     1   107.5800459 329.699200
    234    232    236     1   108.7700466 392.459200
    235    514    515     1   117.5500507 404.174400
    236    539    540     1   117.5500507 404.174400
    241    244    245     1   109.5600471 388.275200
    241    244    246     1   109.5600471 388.275200
    242    241    244     1   109.5600471 388.275200
    242    241    247     1   109.8800469 414.216000
    242    241    243     1   108.4600466 328.025600
    243    241    244     1   109.5600471 388.275200
    243    241    247     1   109.8800469 414.216000
    244    264    265     1   117.6800502 383.254400
    245    244    264     1   108.8800464 416.726400
    245    244    246     1   108.4600466 328.025600
    246    244    264     1   108.8800464 416.726400
    247    248    249     1   109.8800469 414.216000
    247    248    250     1   109.8800469 414.216000
    247    251    252     1   109.8800469 414.216000
    247    251    253     1   109.8800469 414.216000
    248    257    258     1   109.8000471 387.438400
    248    257    259     1   109.8000471 387.438400
    249    248    257     1   109.5600471 388.275200
    249    248    250     1   108.4600466 328.025600
    250    248    257     1   109.5600471 388.275200
    251    254    255     1   109.8000471 387.438400
    251    254    256     1   109.8000471 387.438400
    252    251    254     1   109.5600471 388.275200
    252    251    253     1   108.4600466 328.025600
    253    251    254     1   109.5600471 388.275200
    255    254    260     1   108.7700466 392.459200
    255    254    256     1   107.5800459 329.699200
    256    254    260     1   108.7700466 392.459200
    258    257    261     1   108.7700466 392.459200
    258    257    259     1   107.5800459 329.699200
    259    257    261     1   108.7700466 392.459200
    260    564    565     1   117.5500507 404.174400
    261    589    590     1   117.5500507 404.174400
    266    269    270     1   109.5600471 388.275200
    266    269    271     1   109.5600471 388.275200
    267    266    269     1   109.5600471 388.275200
    267    266    272     1   109.8800469 414.216000
    267    266    268     1   108.4600466 328.025600
    268    266    269     1   109.5600471 388.275200
    268    266    272     1   109.8800469 414.216000
    269    289    290     1   117.6800502 383.254400
    270    269    289     1   108.8800464 416.726400
    270    269    271     1   108.4600466 328.025600
    271    269    289     1   108.8800464 416.726400
    272    273    274     1   109.8800469 414.216000
    272    273    275     1   109.8800469 414.216000
    272    276    277     1   109.8800469 414.216000
    272    276    278     1   109.8800469 414.216000
    273    282    283     1   109.8000471 387.438400
    273    282    284     1   109.8000471 387.438400
    274    273    282     1   109.5600471 388.275200
    274    273    275     1   108.4600466 328.025600
    275    273    282     1   109.5600471 388.275200
    276    279    280     1   109.8000471 387.438400
    276    279    281     1   109.8000471 387.438400
    277    276    279     1   109.5600471 388.275200
    277    276    278     1   108.4600466 328.025600
    278    276    279     1   109.5600471 388.275200
    280    279    285     1   108.7700466 392.459200
    280    279    281     1   107.5800459 329.699200
    281    279    285     1   108.7700466 392.459200
    283    282    286     1   108.7700466 392.459200
    283    282    284     1   107.5800459 329.699200
    284    282    286     1   108.7700466 392.459200
    285    614    615     1   117.5500507 404.174400
    286    639    640     1   117.5500507 404.174400
    291    294    295     1   109.5600471 388.275200
    291    294    296     1   109.5600471 388.275200
    292    291    294     1   109.5600471 388.275200
    292    291    297     1   109.8800469 414.216000
    292    291    293     1   108.4600466 328.025600
    293    291    294     1   109.5600471 388.275200
    293    291    297     1   109.8800469 414.216000
    294    314    315     1   117.6800502 383.254400
    295    294    314     1   108.8800464 416.726400
    295    294    296     1   108.4600466 328.025600
    296    294    314     1   108.8800464 416.726400
    297    298    299     1   109.8800469 414.216000
    297    298    300     1   109.8800469 414.216000
    297    301    302     1   109.8800469 414.216000
    297    301    303     1   109.8800469 414.216000
    298    307    308     1   109.8000471 387.438400
    298    307    309     1   109.8000471 387.438400
    299    298    307     1   109.5600471 388.275200
    299    298    300     1   108.4600466 328.025600
    300    298    307     1   109.5600471 388.275200
    301    304    305     1   109.8000471 387.438400
    301    304    306     1   109.8000471 387.438400
    302    301    304     1   109.5600471 388.275200
    302    301    303     1   108.4600466 328.025600
    303    301    304     1   109.5600471 388.275200
    305    304    310     1   108.7700466 392.459200
    305    304    306     1   107.5800459 329.699200
    306    304    310     1   108.7700466 392.459200
    308    307    311     1   108.7700466 392.459200
    308    307    309     1   107.5800459 329.699200
    309    307    311     1   108.7700466 392.459200
    310    664    665     1   117.5500507 404.174400
    311    689    690     1   117.5500507 404.174400
    316    319    320     1   109.5600471 388.275200
    316    319    321     1   109.5600471 388.275200
    317    316    319     1   109.5600471 388.275200
    317    316    322     1   109.8800469 414.216000
    317    316    318     1   108.4600466 328.025600
    318    316    319     1   109.5600471 388.275200
    318    316    322     1   109.8800469 414.216000
    319    339    340     1   117.6800502 383.254400
    320    319    339     1   108.8800464 416.726400
    320    319    321     1   108.4600466 328.025600
    321    319    339     1   108.8800464 416.726400
    322    323    324     1   109.8800469 414.216000
    322    323    325     1   109.8800469 414.216000
    322    326    327     1   109.8800469 414.216000
    322    326    328     1   109.8800469 414.216000
    323    332    333     1   109.8000471 387.438400
    323    332    334     1   109.8000471 387.438400
    324    323    332     1   109.5600471 388.275200
    324    323    325     1   108.4600466 328.025600
    325    323    332     1   109.5600471 388.275200
    326    329    330     1   109.8000471 387.438400
    326    329    331     1   109.8000471 387.438400
    327    326    329     1   109.5600471 388.275200
    327    326    328     1   108.4600466 328.025600
    328    326    329     1   109.5600471 388.275200
    330    329    335     1   108.7700466 392.459200
    330    329    331     1   107.5800459 329.699200
    331    329    335     1   108.7700466 392.459200
    333    332    336     1   108.7700466 392.459200
    333    332    334     1   107.5800459 329.699200
    334    332    336     1   108.7700466 392.459200
    335    714    715     1   117.5500507 404.174400
    336    739    740     1   117.5500507 404.174400
    341    344    345     1   109.5600471 388.275200
    341    344    346     1   109.5600471 388.275200
    342    341    344     1   109.5600471 388.275200
    342    341    347     1   109.8800469 414.216000
    342    341    343     1   108.4600466 328.025600
    343    341    344     1   109.5600471 388.275200
    343    341    347     1   109.8800469 414.216000
    344    364    365     1   117.6800502 383.254400
    345    344    364     1   108.8800464 416.726400
    345    344    346     1   108.4600466 328.025600
    346    344    364     1   108.8800464 416.726400
    347    348    349     1   109.8800469 414.216000
    347    348    350     1   109.8800469 414.216000
    347    351    352     1   109.8800469 414.216000
    347    351    353     1   109.8800469 414.216000
    348    357    358     1   109.8000471 387.438400
    348    357    359     1   109.8000471 387.438400
    349    348    357     1   109.5600471 388.275200
    349    348    350     1   108.4600466 328.025600
    350    348    357     1   109.5600471 388.275200
    351    354    355     1   109.8000471 387.438400
    351    354    356     1   109.8000471 387.438400
    352    351    354     1   109.5600471 388.275200
    352    351    353     1   108.4600466 328.025600
    353    351    354     1   109.5600471 388.275200
    355    354    360     1   108.7700466 392.459200
    355    354    356     1   107.5800459 329.699200
    356    354    360     1   108.7700466 392.459200
    358    357    361     1   108.7700466 392.459200
    358    357    359     1   107.5800459 329.699200
    359    357    361     1   108.7700466 392.459200
    360    764    765     1   117.5500507 404.174400
    361    789    790     1   117.5500507 404.174400
    366    369    370     1   109.5600471 388.275200
    366    369    371     1   109.5600471 388.275200
    367    366    369     1   109.5600471 388.275200
    367    366    372     1   109.8800469 414.216000
    367    366    368     1   108.4600466 328.025600
    368    366    369     1   109.5600471 388.275200
    368    366    372     1   109.8800469 414.216000
    369    389    390     1   117.6800502 383.254400
    370    369    389     1   108.8800464 416.726400
    370    369    371     1   108.4600466 328.025600
    371    369    389     1   108.8800464 416.726400
    372    373    374     1   109.8800469 414.216000
    372    373    375     1   109.8800469 414.216000
    372    376    377     1   109.8800469 414.216000
    372    376    378     1   109.8800469 414.216000
    373    382    383     1   109.8000471 387.438400
    373    382    384     1   109.8000471 387.438400
    374    373    382     1   109.5600471 388.275200
    374    373    375     1   108.4600466 328.025600
    375    373    382     1   109.5600471 388.275200
    376    379    380     1   109.8000471 387.438400
    376    379    381     1   109.8000471 387.438400
    377    376    379     1   109.5600471 388.275200
    377    376    378     1   108.4600466 328.025600
    378    376    379     1   109.5600471 388.275200
    380    379    385     1   108.7700466 392.459200
    380    379    381     1   107.5800459 329.699200
    381    379    385     1   108.7700466 392.459200
    383    382    386     1   108.7700466 392.459200
    383    382    384     1   107.5800459 329.699200
    384    382    386     1   108.7700466 392.459200
    385    814    815     1   117.5500507 404.174400
    386    839    840     1   117.5500507 404.174400
    391    394    395     1   109.5600471 388.275200
    391    394    396     1   109.5600471 388.275200
    392    391    394     1   109.5600471 388.275200
    392    391    397     1   109.8800469 414.216000
    392    391    393     1   108.4600466 328.025600
    393    391    394     1   109.5600471 388.275200
    393    391    397     1   109.8800469 414.216000
    394    414    415     1   117.6800502 383.254400
    395    394    414     1   108.8800464 416.726400
    395    394    396     1   108.4600466 328.025600
    396    394    414     1   108.8800464 416.726400
    397    398    399     1   109.8800469 414.216000
    397    398    400     1   109.8800469 414.216000
    397    401    402     1   109.8800469 414.216000
    397    401    403     1   109.8800469 414.216000
    398    407    408     1   109.8000471 387.438400
    398    407    409     1   109.8000471 387.438400
    399    398    407     1   109.5600471 388.275200
    399    398    400     1   108.4600466 328.025600
    400    398    407     1   109.5600471 388.275200
    401    404    405     1   109.8000471 387.438400
    401    404    406     1   109.8000471 387.438400
    402    401    404     1   109.5600471 388.275200
    402    401    403     1   108.4600466 328.025600
    403    401    404     1   109.5600471 388.275200
    405    404    410     1   108.7700466 392.459200
    405    404    406     1   107.5800459 329.699200
    406    404    410     1   108.7700466 392.459200
    408    407    411     1   108.7700466 392.459200
    408    407    409     1   107.5800459 329.699200
    409    407    411     1   108.7700466 392.459200
    410    864    865     1   117.5500507 404.174400
    411    889    890     1   117.5500507 404.174400
    416    419    420     1   109.5600471 388.275200
    416    419    421     1   109.5600471 388.275200
    417    416    419     1   109.5600471 388.275200
    417    416    422     1   109.8800469 414.216000
    417    416    418     1   108.4600466 328.025600
    418    416    419     1   109.5600471 388.275200
    418    416    422     1   109.8800469 414.216000
    419    439    440     1   117.6800502 383.254400
    420    419    439     1   108.8800464 416.726400
    420    419    421     1   108.4600466 328.025600
    421    419    439     1   108.8800464 416.726400
    422    423    424     1   109.8800469 414.216000
    422    423    425     1   109.8800469 414.216000
    422    426    427     1   109.8800469 414.216000
    422    426    428     1   109.8800469 414.216000
    423    432    433     1   109.8000471 387.438400
    423    432    434     1   109.8000471 387.438400
    424    423    432     1   109.5600471 388.275200
    424    423    425     1   108.4600466 328.025600
    425    423    432     1   109.5600471 388.275200
    426    429    430     1   109.8000471 387.438400
    426    429    431     1   109.8000471 387.438400
    427    426    429     1   109.5600471 388.275200
    427    426    428     1   108.4600466 328.025600
    428    426    429     1   109.5600471 388.275200
    430    429    435     1   108.7700466 392.459200
    430    429    431     1   107.5800459 329.699200
    431    429    435     1   108.7700466 392.459200
    433    432    436     1   108.7700466 392.459200
    433    432    434     1   107.5800459 329.699200
    434    432    436     1   108.7700466 392.459200
    435    914    915     1   117.5500507 404.174400
    436    939    940     1   117.5500507 404.174400
    441    444    445     1   109.5600471 388.275200
    441    444    446     1   109.5600471 388.275200
    442    441    444     1   109.5600471 388.275200
    442    441    447     1   109.8800469 414.216000
    442    441    443     1   108.4600466 328.025600
    443    441    444     1   109.5600471 388.275200
    443    441    447     1   109.8800469 414.216000
    444    464    465     1   117.6800502 383.254400
    445    444    464     1   108.8800464 416.726400
    445    444    446     1   108.4600466 328.025600
    446    444    464     1   108.8800464 416.726400
    447    448    449     1   109.8800469 414.216000
    447    448    450     1   109.8800469 414.216000
    447    451    452     1   109.8800469 414.216000
    447    451    453     1   109.8800469 414.216000
    448    457    458     1   109.8000471 387.438400
    448    457    459     1   109.8000471 387.438400
    449    448    457     1   109.5600471 388.275200
    449    448    450     1   108.4600466 328.025600
    450    448    457     1   109.5600471 388.275200
    451    454    455     1   109.8000471 387.438400
    451    454    456     1   109.8000471 387.438400
    452    451    454     1   109.5600471 388.275200
    452    451    453     1   108.4600466 328.025600
    453    451    454     1   109.5600471 388.275200
    455    454    460     1   108.7700466 392.459200
    455    454    456     1   107.5800459 329.699200
    456    454    460     1   108.7700466 392.459200
    458    457    461     1   108.7700466 392.459200
    458    457    459     1   107.5800459 329.699200
    459    457    461     1   108.7700466 392.459200
    460    964    965     1   117.5500507 404.174400
    461    989    990     1   117.5500507 404.174400
    466    469    470     1   109.5600471 388.275200
    466    469    471     1   109.5600471 388.275200
    467    466    469     1   109.5600471 388.275200
    467    466    472     1   109.8800469 414.216000
    467    466    468     1   108.4600466 328.025600
    468    466    469     1   109.5600471 388.275200
    468    466    472     1   109.8800469 414.216000
    469    489    490     1   117.6800502 383.254400
    470    469    489     1   108.8800464 416.726400
    470    469    471     1   108.4600466 328.025600
    471    469    489     1   108.8800464 416.726400
    472    473    474     1   109.8800469 414.216000
    472    473    475     1   109.8800469 414.216000
    472    476    477     1   109.8800469 414.216000
    472    476    478     1   109.8800469 414.216000
    473    482    483     1   109.8000471 387.438400
    473    482    484     1   109.8000471 387.438400
    474    473    482     1   109.5600471 388.275200
    474    473    475     1   108.4600466 328.025600
    475    473    482     1   109.5600471 388.275200
    476    479    480     1   109.8000471 387.438400
    476    479    481     1   109.8000471 387.438400
    477    476    479     1   109.5600471 388.275200
    477    476    478     1   108.4600466 328.025600
    478    476    479     1   109.5600471 388.275200
    480    479    485     1   108.7700466 392.459200
    480    479    481     1   107.5800459 329.699200
    481    479    485     1   108.7700466 392.459200
    483    482    486     1   108.7700466 392.459200
    483    482    484     1   107.5800459 329.699200
    484    482    486     1   108.7700466 392.459200
    485   1014   1015     1   117.5500507 404.174400
    486   1039   1040     1   117.5500507 404.174400
    491    494    495     1   109.5600471 388.275200
    491    494    496     1   109.5600471 388.275200
    492    491    494     1   109.5600471 388.275200
    492    491    497     1   109.8800469 414.216000
    492    491    493     1   108.4600466 328.025600
    493    491    494     1   109.5600471 388.275200
    493    491    497     1   109.8800469 414.216000
    494    514    515     1   117.6800502 383.254400
    495    494    514     1   108.8800464 416.726400
    495    494    496     1   108.4600466 328.025600
    496    494    514     1   108.8800464 416.726400
    497    498    499     1   109.8800469 414.216000
    497    498    500     1   109.8800469 414.216000
    497    501    502     1   109.8800469 414.216000
    497    501    503     1   109.8800469 414.216000
    498    507    508     1   109.8000471 387.438400
    498    507    509     1   109.8000471 387.438400
    499    498    507     1   109.5600471 388.275200
    499    498    500     1   108.4600466 328.025600
    500    498    507     1   109.5600471 388.275200
    501    504    505     1   109.8000471 387.438400
    501    504    506     1   109.8000471 387.438400
    502    501    504     1   109.5600471 388.275200
    502    501    503     1   108.4600466 328.025600
    503    501    504     1   109.5600471 388.275200
    505    504    510     1   108.7700466 392.459200
    505    504    506     1   107.5800459 329.699200
    506    504    510     1   108.7700466 392.459200
    508    507    511     1   108.7700466 392.459200
    508    507    509     1   107.5800459 329.699200
    509    507    511     1   108.7700466 392.459200
    510   1064   1065     1   117.5500507 404.174400
    511   1089   1090     1   117.5500507 404.174400
    516    519    520     1   109.5600471 388.275200
    516    519    521     1   109.5600471 388.275200
    517    516    519     1   109.5600471 388.275200
    517    516    522     1   109.8800469 414.216000
    517    516    518     1   108.4600466 328.025600
    518    516    519     1   109.5600471 388.275200
    518    516    522     1   109.8800469 414.216000
    519    539    540     1   117.6800502 383.254400
    520    519    539     1   108.8800464 416.726400
    520    519    521     1   108.4600466 328.025600
    521    519    539     1   108.8800464 416.726400
    522    523    524     1   109.8800469 414.216000
    522    523    525     1   109.8800469 414.216000
    522    526    527     1   109.8800469 414.216000
    522    526    528     1   109.8800469 414.216000
    523    532    533     1   109.8000471 387.438400
    523    532    534     1   109.8000471 387.438400
    524    523    532     1   109.5600471 388.275200
    524    523    525     1   108.4600466 328.025600
    525    523    532     1   109.5600471 388.275200
    526    529    530     1   109.8000471 387.438400
    526    529    531     1   109.8000471 387.438400
    527    526    529     1   109.5600471 388.275200
    527    526    528     1   108.4600466 328.025600
    528    526    529     1   109.5600471 388.275200
    530    529    535     1   108.7700466 392.459200
    530    529    531     1   107.5800459 329.699200
    531    529    535     1   108.7700466 392.459200
    533    532    536     1   108.7700466 392.459200
    533    532    534     1   107.5800459 329.699200
    534    532    536     1   108.7700466 392.459200
    535   1114   1115     1   117.5500507 404.174400
    536   1139   1140     1   117.5500507 404.174400
    541    544    545     1   109.5600471 388.275200
    541    544    546     1   109.5600471 388.275200
    542    541    544     1   109.5600471 388.275200
    542    541    547     1   109.8800469 414.216000
    542    541    543     1   108.4600466 328.025600
    543    541    544     1   109.5600471 388.275200
    543    541    547     1   109.8800469 414.216000
    544    564    565     1   117.6800502 383.254400
    545    544    564     1   108.8800464 416.726400
    545    544    546     1   108.4600466 328.025600
    546    544    564     1   108.8800464 416.726400
    547    548    549     1   109.8800469 414.216000
    547    548    550     1   109.8800469 414.216000
    547    551    552     1   109.8800469 414.216000
    547    551    553     1   109.8800469 414.216000
    548    557    558     1   109.8000471 387.438400
    548    557    559     1   109.8000471 387.438400
    549    548    557     1   109.5600471 388.275200
    549    548    550     1   108.4600466 328.025600
    550    548    557     1   109.5600471 388.275200
    551    554    555     1   109.8000471 387.438400
    551    554    556     1   109.8000471 387.438400
    552    551    554     1   109.5600471 388.275200
    552    551    553     1   108.4600466 328.025600
    553    551    554     1   109.5600471 388.275200
    555    554    560     1   108.7700466 392.459200
    555    554    556     1   107.5800459 329.699200
    556    554    560     1   108.7700466 392.459200
    558    557    561     1   108.7700466 392.459200
    558    557    559     1   107.5800459 329.699200
    559    557    561     1   108.7700466 392.459200
    560   1164   1165     1   117.5500507 404.174400
    561   1189   1190     1   117.5500507 404.174400
    566    569    570     1   109.5600471 388.275200
    566    569    571     1   109.5600471 388.275200
    567    566    569     1   109.5600471 388.275200
    567    566    572     1   109.8800469 414.216000
    567    566    568     1   108.4600466 328.025600
    568    566    569     1   109.5600471 388.275200
    568    566    572     1   109.8800469 414.216000
    569    589    590     1   117.6800502 383.254400
    570    569    589     1   108.8800464 416.726400
    570    569    571     1   108.4600466 328.025600
    571    569    589     1   108.8800464 416.726400
    572    573    574     1   109.8800469 414.216000
    572    573    575     1   109.8800469 414.216000
    572    576    577     1   109.8800469 414.216000
    572    576    578     1   109.8800469 414.216000
    573    582    583     1   109.8000471 387.438400
    573    582    584     1   109.8000471 387.438400
    574    573    582     1   109.5600471 388.275200
    574    573    575     1   108.4600466 328.025600
    575    573    582     1   109.5600471 388.275200
    576    579    580     1   109.8000471 387.438400
    576    579    581     1   109.8000471 387.438400
    577    576    579     1   109.5600471 388.275200
    577    576    578     1   108.4600466 328.025600
    578    576    579     1   109.5600471 388.275200
    580    579    585     1   108.7700466 392.459200
    580    579    581     1   107.5800459 329.699200
    581    579    585     1   108.7700466 392.459200
    583    582    586     1   108.7700466 392.459200
    583    582    584     1   107.5800459 329.699200
    584    582    586     1   108.7700466 392.459200
    585   1214   1215     1   117.5500507 404.174400
    586   1239   1240     1   117.5500507 404.174400
    591    594    595     1   109.5600471 388.275200
    591    594    596     1   109.5600471 388.275200
    592    591    594     1   109.5600471 388.275200
    592    591    597     1   109.8800469 414.216000
    592    591    593     1   108.4600466 328.025600
    593    591    594     1   109.5600471 388.275200
    593    591    597     1   109.8800469 414.216000
    594    614    615     1   117.6800502 383.254400
    595    594    614     1   108.8800464 416.726400
    595    594    596     1   108.4600466 328.025600
    596    594    614     1   108.8800464 416.726400
    597    598    599     1   109.8800469 414.216000
    597    598    600     1   109.8800469 414.216000
    597    601    602     1   109.8800469 414.216000
    597    601    603     1   109.8800469 414.216000
    598    607    608     1   109.8000471 387.438400
    598    607    609     1   109.8000471 387.438400
    599    598    607     1   109.5600471 388.275200
    599    598    600     1   108.4600466 328.025600
    600    598    607     1   109.5600471 388.275200
    601    604    605     1   109.8000471 387.438400
    601    604    606     1   109.8000471 387.438400
    602    601    604     1   109.5600471 388.275200
    602    601    603     1   108.4600466 328.025600
    603    601    604     1   109.5600471 388.275200
    605    604    610     1   108.7700466 392.459200
    605    604    606     1   107.5800459 329.699200
    606    604    610     1   108.7700466 392.459200
    608    607    611     1   108.7700466 392.459200
    608    607    609     1   107.5800459 329.699200
    609    607    611     1   108.7700466 392.459200
    610   1264   1265     1   117.5500507 404.174400
    611   1289   1290     1   117.5500507 404.174400
    616    619    620     1   109.5600471 388.275200
    616    619    621     1   109.5600471 388.275200
    617    616    619     1   109.5600471 388.275200
    617    616    622     1   109.8800469 414.216000
    617    616    618     1   108.4600466 328.025600
    618    616    619     1   109.5600471 388.275200
    618    616    622     1   109.8800469 414.216000
    619    639    640     1   117.6800502 383.254400
    620    619    639     1   108.8800464 416.726400
    620    619    621     1   108.4600466 328.025600
    621    619    639     1   108.8800464 416.726400
    622    623    624     1   109.8800469 414.216000
    622    623    625     1   109.8800469 414.216000
    622    626    627     1   109.8800469 414.216000
    622    626    628     1   109.8800469 414.216000
    623    632    633     1   109.8000471 387.438400
    623    632    634     1   109.8000471 387.438400
    624    623    632     1   109.5600471 388.275200
    624    623    625     1   108.4600466 328.025600
    625    623    632     1   109.5600471 388.275200
    626    629    630     1   109.8000471 387.438400
    626    629    631     1   109.8000471 387.438400
    627    626    629     1   109.5600471 388.275200
    627    626    628     1   108.4600466 328.025600
    628    626    629     1   109.5600471 388.275200
    630    629    635     1   108.7700466 392.459200
    630    629    631     1   107.5800459 329.699200
    631    629    635     1   108.7700466 392.459200
    633    632    636     1   108.7700466 392.459200
    633    632    634     1   107.5800459 329.699200
    634    632    636     1   108.7700466 392.459200
    635   1314   1315     1   117.5500507 404.174400
    636   1339   1340     1   117.5500507 404.174400
    641    644    645     1   109.5600471 388.275200
    641    644    646     1   109.5600471 388.275200
    642    641    644     1   109.5600471 388.275200
    642    641    647     1   109.8800469 414.216000
    642    641    643     1   108.4600466 328.025600
    643    641    644     1   109.5600471 388.275200
    643    641    647     1   109.8800469 414.216000
    644    664    665     1   117.6800502 383.254400
    645    644    664     1   108.8800464 416.726400
    645    644    646     1   108.4600466 328.025600
    646    644    664     1   108.8800464 416.726400
    647    648    649     1   109.8800469 414.216000
    647    648    650     1   109.8800469 414.216000
    647    651    652     1   109.8800469 414.216000
    647    651    653     1   109.8800469 414.216000
    648    657    658     1   109.8000471 387.438400
    648    657    659     1   109.8000471 387.438400
    649    648    657     1   109.5600471 388.275200
    649    648    650     1   108.4600466 328.025600
    650    648    657     1   109.5600471 388.275200
    651    654    655     1   109.8000471 387.438400
    651    654    656     1   109.8000471 387.438400
    652    651    654     1   109.5600471 388.275200
    652    651    653     1   108.4600466 328.025600
    653    651    654     1   109.5600471 388.275200
    655    654    660     1   108.7700466 392.459200
    655    654    656     1   107.5800459 329.699200
    656    654    660     1   108.7700466 392.459200
    658    657    661     1   108.7700466 392.459200
    658    657    659     1   107.5800459 329.699200
    659    657    661     1   108.7700466 392.459200
    660   1364   1365     1   117.5500507 404.174400
    661   1389   1390     1   117.5500507 404.174400
    666    669    670     1   109.5600471 388.275200
    666    669    671     1   109.5600471 388.275200
    667    666    669     1   109.5600471 388.275200
    667    666    672     1   109.8800469 414.216000
    667    666    668     1   108.4600466 328.025600
    668    666    669     1   109.5600471 388.275200
    668    666    672     1   109.8800469 414.216000
    669    689    690     1   117.6800502 383.254400
    670    669    689     1   108.8800464 416.726400
    670    669    671     1   108.4600466 328.025600
    671    669    689     1   108.8800464 416.726400
    672    673    674     1   109.8800469 414.216000
    672    673    675     1   109.8800469 414.216000
    672    676    677     1   109.8800469 414.216000
    672    676    678     1   109.8800469 414.216000
    673    682    683     1   109.8000471 387.438400
    673    682    684     1   109.8000471 387.438400
    674    673    682     1   109.5600471 388.275200
    674    673    675     1   108.4600466 328.025600
    675    673    682     1   109.5600471 388.275200
    676    679    680     1   109.8000471 387.438400
    676    679    681     1   109.8000471 387.438400
    677    676    679     1   109.5600471 388.275200
    677    676    678     1   108.4600466 328.025600
    678    676    679     1   109.5600471 388.275200
    680    679    685     1   108.7700466 392.459200
    680    679    681     1   107.5800459 329.699200
    681    679    685     1   108.7700466 392.459200
    683    682    686     1   108.7700466 392.459200
    683    682    684     1   107.5800459 329.699200
    684    682    686     1   108.7700466 392.459200
    685   1414   1415     1   117.5500507 404.174400
    686   1439   1440     1   117.5500507 404.174400
    691    694    695     1   109.5600471 388.275200
    691    694    696     1   109.5600471 388.275200
    692    691    694     1   109.5600471 388.275200
    692    691    697     1   109.8800469 414.216000
    692    691    693     1   108.4600466 328.025600
    693    691    694     1   109.5600471 388.275200
    693    691    697     1   109.8800469 414.216000
    694    714    715     1   117.6800502 383.254400
    695    694    714     1   108.8800464 416.726400
    695    694    696     1   108.4600466 328.025600
    696    694    714     1   108.8800464 416.726400
    697    698    699     1   109.8800469 414.216000
    697    698    700     1   109.8800469 414.216000
    697    701    702     1   109.8800469 414.216000
    697    701    703     1   109.8800469 414.216000
    698    707    708     1   109.8000471 387.438400
    698    707    709     1   109.8000471 387.438400
    699    698    707     1   109.5600471 388.275200
    699    698    700     1   108.4600466 328.025600
    700    698    707     1   109.5600471 388.275200
    701    704    705     1   109.8000471 387.438400
    701    704    706     1   109.8000471 387.438400
    702    701    704     1   109.5600471 388.275200
    702    701    703     1   108.4600466 328.025600
    703    701    704     1   109.5600471 388.275200
    705    704    710     1   108.7700466 392.459200
    705    704    706     1   107.5800459 329.699200
    706    704    710     1   108.7700466 392.459200
    708    707    711     1   108.7700466 392.459200
    708    707    709     1   107.5800459 329.699200
    709    707    711     1   108.7700466 392.459200
    710   1464   1465     1   117.5500507 404.174400
    711   1489   1490     1   117.5500507 404.174400
    716    719    720     1   109.5600471 388.275200
    716    719    721     1   109.5600471 388.275200
    717    716    719     1   109.5600471 388.275200
    717    716    722     1   109.8800469 414.216000
    717    716    718     1   108.4600466 328.025600
    718    716    719     1   109.5600471 388.275200
    718    716    722     1   109.8800469 414.216000
    719    739    740     1   117.6800502 383.254400
    720    719    739     1   108.8800464 416.726400
    720    719    721     1   108.4600466 328.025600
    721    719    739     1   108.8800464 416.726400
    722    723    724     1   109.8800469 414.216000
    722    723    725     1   109.8800469 414.216000
    722    726    727     1   109.8800469 414.216000
    722    726    728     1   109.8800469 414.216000
    723    732    733     1   109.8000471 387.438400
    723    732    734     1   109.8000471 387.438400
    724    723    732     1   109.5600471 388.275200
    724    723    725     1   108.4600466 328.025600
    725    723    732     1   109.5600471 388.275200
    726    729    730     1   109.8000471 387.438400
    726    729    731     1   109.8000471 387.438400
    727    726    729     1   109.5600471 388.275200
    727    726    728     1   108.4600466 328.025600
    728    726    729     1   109.5600471 388.275200
    730    729    735     1   108.7700466 392.459200
    730    729    731     1   107.5800459 329.699200
    731    729    735     1   108.7700466 392.459200
    733    732    736     1   108.7700466 392.459200
    733    732    734     1   107.5800459 329.699200
    734    732    736     1   108.7700466 392.459200
    735   1514   1515     1   117.5500507 404.174400
    736   1539   1540     1   117.5500507 404.174400
    741    744    745     1   109.5600471 388.275200
    741    744    746     1   109.5600471 388.275200
    742    741    744     1   109.5600471 388.275200
    742    741    747     1   109.8800469 414.216000
    742    741    743     1   108.4600466 328.025600
    743    741    744     1   109.5600471 388.275200
    743    741    747     1   109.8800469 414.216000
    744    764    765     1   117.6800502 383.254400
    745    744    764     1   108.8800464 416.726400
    745    744    746     1   108.4600466 328.025600
    746    744    764     1   108.8800464 416.726400
    747    748    749     1   109.8800469 414.216000
    747    748    750     1   109.8800469 414.216000
    747    751    752     1   109.8800469 414.216000
    747    751    753     1   109.8800469 414.216000
    748    757    758     1   109.8000471 387.438400
    748    757    759     1   109.8000471 387.438400
    749    748    757     1   109.5600471 388.275200
    749    748    750     1   108.4600466 328.025600
    750    748    757     1   109.5600471 388.275200
    751    754    755     1   109.8000471 387.438400
    751    754    756     1   109.8000471 387.438400
    752    751    754     1   109.5600471 388.275200
    752    751    753     1   108.4600466 328.025600
    753    751    754     1   109.5600471 388.275200
    755    754    760     1   108.7700466 392.459200
    755    754    756     1   107.5800459 329.699200
    756    754    760     1   108.7700466 392.459200
    758    757    761     1   108.7700466 392.459200
    758    757    759     1   107.5800459 329.699200
    759    757    761     1   108.7700466 392.459200
    760   1550   1551     1   117.5500507 404.174400
    761   1561   1562     1   117.5500507 404.174400
    766    769    770     1   109.5600471 388.275200
    766    769    771     1   109.5600471 388.275200
    767    766    769     1   109.5600471 388.275200
    767    766    772     1   109.8800469 414.216000
    767    766    768     1   108.4600466 328.025600
    768    766    769     1   109.5600471 388.275200
    768    766    772     1   109.8800469 414.216000
    769    789    790     1   117.6800502 383.254400
    770    769    789     1   108.8800464 416.726400
    770    769    771     1   108.4600466 328.025600
    771    769    789     1   108.8800464 416.726400
    772    773    774     1   109.8800469 414.216000
    772    773    775     1   109.8800469 414.216000
    772    776    777     1   109.8800469 414.216000
    772    776    778     1   109.8800469 414.216000
    773    782    783     1   109.8000471 387.438400
    773    782    784     1   109.8000471 387.438400
    774    773    782     1   109.5600471 388.275200
    774    773    775     1   108.4600466 328.025600
    775    773    782     1   109.5600471 388.275200
    776    779    780     1   109.8000471 387.438400
    776    779    781     1   109.8000471 387.438400
    777    776    779     1   109.5600471 388.275200
    777    776    778     1   108.4600466 328.025600
    778    776    779     1   109.5600471 388.275200
    780    779    785     1   108.7700466 392.459200
    780    779    781     1   107.5800459 329.699200
    781    779    785     1   108.7700466 392.459200
    783    782    786     1   108.7700466 392.459200
    783    782    784     1   107.5800459 329.699200
    784    782    786     1   108.7700466 392.459200
    785   1572   1573     1   117.5500507 404.174400
    786   1583   1584     1   117.5500507 404.174400
    791    794    795     1   109.5600471 388.275200
    791    794    796     1   109.5600471 388.275200
    792    791    794     1   109.5600471 388.275200
    792    791    797     1   109.8800469 414.216000
    792    791    793     1   108.4600466 328.025600
    793    791    794     1   109.5600471 388.275200
    793    791    797     1   109.8800469 414.216000
    794    814    815     1   117.6800502 383.254400
    795    794    814     1   108.8800464 416.726400
    795    794    796     1   108.4600466 328.025600
    796    794    814     1   108.8800464 416.726400
    797    798    799     1   109.8800469 414.216000
    797    798    800     1   109.8800469 414.216000
    797    801    802     1   109.8800469 414.216000
    797    801    803     1   109.8800469 414.216000
    798    807    808     1   109.8000471 387.438400
    798    807    809     1   109.8000471 387.438400
    799    798    807     1   109.5600471 388.275200
    799    798    800     1   108.4600466 328.025600
    800    798    807     1   109.5600471 388.275200
    801    804    805     1   109.8000471 387.438400
    801    804    806     1   109.8000471 387.438400
    802    801    804     1   109.5600471 388.275200
    802    801    803     1   108.4600466 328.025600
    803    801    804     1   109.5600471 388.275200
    805    804    810     1   108.7700466 392.459200
    805    804    806     1   107.5800459 329.699200
    806    804    810     1   108.7700466 392.459200
    808    807    811     1   108.7700466 392.459200
    808    807    809     1   107.5800459 329.699200
    809    807    811     1   108.7700466 392.459200
    810   1594   1595     1   117.5500507 404.174400
    811   1605   1606     1   117.5500507 404.174400
    816    819    820     1   109.5600471 388.275200
    816    819    821     1   109.5600471 388.275200
    817    816    819     1   109.5600471 388.275200
    817    816    822     1   109.8800469 414.216000
    817    816    818     1   108.4600466 328.025600
    818    816    819     1   109.5600471 388.275200
    818    816    822     1   109.8800469 414.216000
    819    839    840     1   117.6800502 383.254400
    820    819    839     1   108.8800464 416.726400
    820    819    821     1   108.4600466 328.025600
    821    819    839     1   108.8800464 416.726400
    822    823    824     1   109.8800469 414.216000
    822    823    825     1   109.8800469 414.216000
    822    826    827     1   109.8800469 414.216000
    822    826    828     1   109.8800469 414.216000
    823    832    833     1   109.8000471 387.438400
    823    832    834     1   109.8000471 387.438400
    824    823    832     1   109.5600471 388.275200
    824    823    825     1   108.4600466 328.025600
    825    823    832     1   109.5600471 388.275200
    826    829    830     1   109.8000471 387.438400
    826    829    831     1   109.8000471 387.438400
    827    826    829     1   109.5600471 388.275200
    827    826    828     1   108.4600466 328.025600
    828    826    829     1   109.5600471 388.275200
    830    829    835     1   108.7700466 392.459200
    830    829    831     1   107.5800459 329.699200
    831    829    835     1   108.7700466 392.459200
    833    832    836     1   108.7700466 392.459200
    833    832    834     1   107.5800459 329.699200
    834    832    836     1   108.7700466 392.459200
    835   1616   1617     1   117.5500507 404.174400
    836   1627   1628     1   117.5500507 404.174400
    841    844    845     1   109.5600471 388.275200
    841    844    846     1   109.5600471 388.275200
    842    841    844     1   109.5600471 388.275200
    842    841    847     1   109.8800469 414.216000
    842    841    843     1   108.4600466 328.025600
    843    841    844     1   109.5600471 388.275200
    843    841    847     1   109.8800469 414.216000
    844    864    865     1   117.6800502 383.254400
    845    844    864     1   108.8800464 416.726400
    845    844    846     1   108.4600466 328.025600
    846    844    864     1   108.8800464 416.726400
    847    848    849     1   109.8800469 414.216000
    847    848    850     1   109.8800469 414.216000
    847    851    852     1   109.8800469 414.216000
    847    851    853     1   109.8800469 414.216000
    848    857    858     1   109.8000471 387.438400
    848    857    859     1   109.8000471 387.438400
    849    848    857     1   109.5600471 388.275200
    849    848    850     1   108.4600466 328.025600
    850    848    857     1   109.5600471 388.275200
    851    854    855     1   109.8000471 387.438400
    851    854    856     1   109.8000471 387.438400
    852    851    854     1   109.5600471 388.275200
    852    851    853     1   108.4600466 328.025600
    853    851    854     1   109.5600471 388.275200
    855    854    860     1   108.7700466 392.459200
    855    854    856     1   107.5800459 329.699200
    856    854    860     1   108.7700466 392.459200
    858    857    861     1   108.7700466 392.459200
    858    857    859     1   107.5800459 329.699200
    859    857    861     1   108.7700466 392.459200
    860   1638   1639     1   117.5500507 404.174400
    861   1649   1650     1   117.5500507 404.174400
    866    869    870     1   109.5600471 388.275200
    866    869    871     1   109.5600471 388.275200
    867    866    869     1   109.5600471 388.275200
    867    866    872     1   109.8800469 414.216000
    867    866    868     1   108.4600466 328.025600
    868    866    869     1   109.5600471 388.275200
    868    866    872     1   109.8800469 414.216000
    869    889    890     1   117.6800502 383.254400
    870    869    889     1   108.8800464 416.726400
    870    869    871     1   108.4600466 328.025600
    871    869    889     1   108.8800464 416.726400
    872    873    874     1   109.8800469 414.216000
    872    873    875     1   109.8800469 414.216000
    872    876    877     1   109.8800469 414.216000
    872    876    878     1   109.8800469 414.216000
    873    882    883     1   109.8000471 387.438400
    873    882    884     1   109.8000471 387.438400
    874    873    882     1   109.5600471 388.275200
    874    873    875     1   108.4600466 328.025600
    875    873    882     1   109.5600471 388.275200
    876    879    880     1   109.8000471 387.438400
    876    879    881     1   109.8000471 387.438400
    877    876    879     1   109.5600471 388.275200
    877    876    878     1   108.4600466 328.025600
    878    876    879     1   109.5600471 388.275200
    880    879    885     1   108.7700466 392.459200
    880    879    881     1   107.5800459 329.699200
    881    879    885     1   108.7700466 392.459200
    883    882    886     1   108.7700466 392.459200
    883    882    884     1   107.5800459 329.699200
    884    882    886     1   108.7700466 392.459200
    885   1660   1661     1   117.5500507 404.174400
    886   1671   1672     1   117.5500507 404.174400
    891    894    895     1   109.5600471 388.275200
    891    894    896     1   109.5600471 388.275200
    892    891    894     1   109.5600471 388.275200
    892    891    897     1   109.8800469 414.216000
    892    891    893     1   108.4600466 328.025600
    893    891    894     1   109.5600471 388.275200
    893    891    897     1   109.8800469 414.216000
    894    914    915     1   117.6800502 383.254400
    895    894    914     1   108.8800464 416.726400
    895    894    896     1   108.4600466 328.025600
    896    894    914     1   108.8800464 416.726400
    897    898    899     1   109.8800469 414.216000
    897    898    900     1   109.8800469 414.216000
    897    901    902     1   109.8800469 414.216000
    897    901    903     1   109.8800469 414.216000
    898    907    908     1   109.8000471 387.438400
    898    907    909     1   109.8000471 387.438400
    899    898    907     1   109.5600471 388.275200
    899    898    900     1   108.4600466 328.025600
    900    898    907     1   109.5600471 388.275200
    901    904    905     1   109.8000471 387.438400
    901    904    906     1   109.8000471 387.438400
    902    901    904     1   109.5600471 388.275200
    902    901    903     1   108.4600466 328.025600
    903    901    904     1   109.5600471 388.275200
    905    904    910     1   108.7700466 392.459200
    905    904    906     1   107.5800459 329.699200
    906    904    910     1   108.7700466 392.459200
    908    907    911     1   108.7700466 392.459200
    908    907    909     1   107.5800459 329.699200
    909    907    911     1   108.7700466 392.459200
    910   1682   1683     1   117.5500507 404.174400
    911   1693   1694     1   117.5500507 404.174400
    916    919    920     1   109.5600471 388.275200
    916    919    921     1   109.5600471 388.275200
    917    916    919     1   109.5600471 388.275200
    917    916    922     1   109.8800469 414.216000
    917    916    918     1   108.4600466 328.025600
    918    916    919     1   109.5600471 388.275200
    918    916    922     1   109.8800469 414.216000
    919    939    940     1   117.6800502 383.254400
    920    919    939     1   108.8800464 416.726400
    920    919    921     1   108.4600466 328.025600
    921    919    939     1   108.8800464 416.726400
    922    923    924     1   109.8800469 414.216000
    922    923    925     1   109.8800469 414.216000
    922    926    927     1   109.8800469 414.216000
    922    926    928     1   109.8800469 414.216000
    923    932    933     1   109.8000471 387.438400
    923    932    934     1   109.8000471 387.438400
    924    923    932     1   109.5600471 388.275200
    924    923    925     1   108.4600466 328.025600
    925    923    932     1   109.5600471 388.275200
    926    929    930     1   109.8000471 387.438400
    926    929    931     1   109.8000471 387.438400
    927    926    929     1   109.5600471 388.275200
    927    926    928     1   108.4600466 328.025600
    928    926    929     1   109.5600471 388.275200
    930    929    935     1   108.7700466 392.459200
    930    929    931     1   107.5800459 329.699200
    931    929    935     1   108.7700466 392.459200
    933    932    936     1   108.7700466 392.459200
    933    932    934     1   107.5800459 329.699200
    934    932    936     1   108.7700466 392.459200
    935   1704   1705     1   117.5500507 404.174400
    936   1715   1716     1   117.5500507 404.174400
    941    944    945     1   109.5600471 388.275200
    941    944    946     1   109.5600471 388.275200
    942    941    944     1   109.5600471 388.275200
    942    941    947     1   109.8800469 414.216000
    942    941    943     1   108.4600466 328.025600
    943    941    944     1   109.5600471 388.275200
    943    941    947     1   109.8800469 414.216000
    944    964    965     1   117.6800502 383.254400
    945    944    964     1   108.8800464 416.726400
    945    944    946     1   108.4600466 328.025600
    946    944    964     1   108.8800464 416.726400
    947    948    949     1   109.8800469 414.216000
    947    948    950     1   109.8800469 414.216000
    947    951    952     1   109.8800469 414.216000
    947    951    953     1   109.8800469 414.216000
    948    957    958     1   109.8000471 387.438400
    948    957    959     1   109.8000471 387.438400
    949    948    957     1   109.5600471 388.275200
    949    948    950     1   108.4600466 328.025600
    950    948    957     1   109.5600471 388.275200
    951    954    955     1   109.8000471 387.438400
    951    954    956     1   109.8000471 387.438400
    952    951    954     1   109.5600471 388.275200
    952    951    953     1   108.4600466 328.025600
    953    951    954     1   109.5600471 388.275200
    955    954    960     1   108.7700466 392.459200
    955    954    956     1   107.5800459 329.699200
    956    954    960     1   108.7700466 392.459200
    958    957    961     1   108.7700466 392.459200
    958    957    959     1   107.5800459 329.699200
    959    957    961     1   108.7700466 392.459200
    960   1726   1727     1   117.5500507 404.174400
    961   1737   1738     1   117.5500507 404.174400
    966    969    970     1   109.5600471 388.275200
    966    969    971     1   109.5600471 388.275200
    967    966    969     1   109.5600471 388.275200
    967    966    972     1   109.8800469 414.216000
    967    966    968     1   108.4600466 328.025600
    968    966    969     1   109.5600471 388.275200
    968    966    972     1   109.8800469 414.216000
    969    989    990     1   117.6800502 383.254400
    970    969    989     1   108.8800464 416.726400
    970    969    971     1   108.4600466 328.025600
    971    969    989     1   108.8800464 416.726400
    972    973    974     1   109.8800469 414.216000
    972    973    975     1   109.8800469 414.216000
    972    976    977     1   109.8800469 414.216000
    972    976    978     1   109.8800469 414.216000
    973    982    983     1   109.8000471 387.438400
    973    982    984     1   109.8000471 387.438400
    974    973    982     1   109.5600471 388.275200
    974    973    975     1   108.4600466 328.025600
    975    973    982     1   109.5600471 388.275200
    976    979    980     1   109.8000471 387.438400
    976    979    981     1   109.8000471 387.438400
    977    976    979     1   109.5600471 388.275200
    977    976    978     1   108.4600466 328.025600
    978    976    979     1   109.5600471 388.275200
    980    979    985     1   108.7700466 392.459200
    980    979    981     1   107.5800459 329.699200
    981    979    985     1   108.7700466 392.459200
    983    982    986     1   108.7700466 392.459200
    983    982    984     1   107.5800459 329.699200
    984    982    986     1   108.7700466 392.459200
    985   1748   1749     1   117.5500507 404.174400
    986   1759   1760     1   117.5500507 404.174400
    991    994    995     1   109.5600471 388.275200
    991    994    996     1   109.5600471 388.275200
    992    991    994     1   109.5600471 388.275200
    992    991    997     1   109.8800469 414.216000
    992    991    993     1   108.4600466 328.025600
    993    991    994     1   109.5600471 388.275200
    993    991    997     1   109.8800469 414.216000
    994   1014   1015     1   117.6800502 383.254400
    995    994   1014     1   108.8800464 416.726400
    995    994    996     1   108.4600466 328.025600
    996    994   1014     1   108.8800464 416.726400
    997    998    999     1   109.8800469 414.216000
    997    998   1000     1   109.8800469 414.216000
    997   1001   1002     1   109.8800469 414.216000
    997   1001   1003     1   109.8800469 414.216000
    998   1007   1008     1   109.8000471 387.438400
    998   1007   1009     1   109.8000471 387.438400
    999    998   1007     1   109.5600471 388.275200
    999    998   1000     1   108.4600466 328.025600
   1000    998   1007     1   109.5600471 388.275200
   1001   1004   1005     1   109.8000471 387.438400
   1001   1004   1006     1   109.8000471 387.438400
   1002   1001   1004     1   109.5600471 388.275200
   1002   1001   1003     1   108.4600466 328.025600
   1003   1001   1004     1   109.5600471 388.275200
   1005   1004   1010     1   108.7700466 392.459200
   1005   1004   1006     1   107.5800459 329.699200
   1006   1004   1010     1   108.7700466 392.459200
   1008   1007   1011     1   108.7700466 392.459200
   1008   1007   1009     1   107.5800459 329.699200
   1009   1007   1011     1   108.7700466 392.459200
   1010   1770   1771     1   117.5500507 404.174400
   1011   1781   1782     1   117.5500507 404.174400
   1016   1019   1020     1   109.5600471 388.275200
   1016   1019   1021     1   109.5600471 388.275200
   1017   1016   1019     1   109.5600471 388.275200
   1017   1016   1022     1   109.8800469 414.216000
   1017   1016   1018     1   108.4600466 328.025600
   1018   1016   1019     1   109.5600471 388.275200
   1018   1016   1022     1   109.8800469 414.216000
   1019   1039   1040     1   117.6800502 383.254400
   1020   1019   1039     1   108.8800464 416.726400
   1020   1019   1021     1   108.4600466 328.025600
   1021   1019   1039     1   108.8800464 416.726400
   1022   1023   1024     1   109.8800469 414.216000
   1022   1023   1025     1   109.8800469 414.216000
   1022   1026   1027     1   109.8800469 414.216000
   1022   1026   1028     1   109.8800469 414.216000
   1023   1032   1033     1   109.8000471 387.438400
   1023   1032   1034     1   109.8000471 387.438400
   1024   1023   1032     1   109.5600471 388.275200
   1024   1023   1025     1   108.4600466 328.025600
   1025   1023   1032     1   109.5600471 388.275200
   1026   1029   1030     1   109.8000471 387.438400
   1026   1029   1031     1   109.8000471 387.438400
   1027   1026   1029     1   109.5600471 388.275200
   1027   1026   1028     1   108.4600466 328.025600
   1028   1026   1029     1   109.5600471 388.275200
   1030   1029   1035     1   108.7700466 392.459200
   1030   1029   1031     1   107.5800459 329.699200
   1031   1029   1035     1   108.7700466 392.459200
   1033   1032   1036     1   108.7700466 392.459200
   1033   1032   1034     1   107.5800459 329.699200
   1034   1032   1036     1   108.7700466 392.459200
   1035   1792   1793     1   117.5500507 404.174400
   1036   1803   1804     1   117.5500507 404.174400
   1041   1044   1045     1   109.5600471 388.275200
   1041   1044   1046     1   109.5600471 388.275200
   1042   1041   1044     1   109.5600471 388.275200
   1042   1041   1047     1   109.8800469 414.216000
   1042   1041   1043     1   108.4600466 328.025600
   1043   1041   1044     1   109.5600471 388.275200
   1043   1041   1047     1   109.8800469 414.216000
   1044   1064   1065     1   117.6800502 383.254400
   1045   1044   1064     1   108.8800464 416.726400
   1045   1044   1046     1   108.4600466 328.025600
   1046   1044   1064     1   108.8800464 416.726400
   1047   1048   1049     1   109.8800469 414.216000
   1047   1048   1050     1   109.8800469 414.216000
   1047   1051   1052     1   109.8800469 414.216000
   1047   1051   1053     1   109.8800469 414.216000
   1048   1057   1058     1   109.8000471 387.438400
   1048   1057   1059     1   109.8000471 387.438400
   1049   1048   1057     1   109.5600471 388.275200
   1049   1048   1050     1   108.4600466 328.025600
   1050   1048   1057     1   109.5600471 388.275200
   1051   1054   1055     1   109.8000471 387.438400
   1051   1054   1056     1   109.8000471 387.438400
   1052   1051   1054     1   109.5600471 388.275200
   1052   1051   1053     1   108.4600466 328.025600
   1053   1051   1054     1   109.5600471 388.275200
   1055   1054   1060     1   108.7700466 392.459200
   1055   1054   1056     1   107.5800459 329.699200
   1056   1054   1060     1   108.7700466 392.459200
   1058   1057   1061     1   108.7700466 392.459200
   1058   1057   1059     1   107.5800459 329.699200
   1059   1057   1061     1   108.7700466 392.459200
   1060   1814   1815     1   117.5500507 404.174400
   1061   1825   1826     1   117.5500507 404.174400
   1066   1069   1070     1   109.5600471 388.275200
   1066   1069   1071     1   109.5600471 388.275200
   1067   1066   1069     1   109.5600471 388.275200
   1067   1066   1072     1   109.8800469 414.216000
   1067   1066   1068     1   108.4600466 328.025600
   1068   1066   1069     1   109.5600471 388.275200
   1068   1066   1072     1   109.8800469 414.216000
   1069   1089   1090     1   117.6800502 383.254400
   1070   1069   1089     1   108.8800464 416.726400
   1070   1069   1071     1   108.4600466 328.025600
   1071   1069   1089     1   108.8800464 416.726400
   1072   1073   1074     1   109.8800469 414.216000
   1072   1073   1075     1   109.8800469 414.216000
   1072   1076   1077     1   109.8800469 414.216000
   1072   1076   1078     1   109.8800469 414.216000
   1073   1082   1083     1   109.8000471 387.438400
   1073   1082   1084     1   109.8000471 387.438400
   1074   1073   1082     1   109.5600471 388.275200
   1074   1073   1075     1   108.4600466 328.025600
   1075   1073   1082     1   109.5600471 388.275200
   1076   1079   1080     1   109.8000471 387.438400
   1076   1079   1081     1   109.8000471 387.438400
   1077   1076   1079     1   109.5600471 388.275200
   1077   1076   1078     1   108.4600466 328.025600
   1078   1076   1079     1   109.5600471 388.275200
   1080   1079   1085     1   108.7700466 392.459200
   1080   1079   1081     1   107.5800459 329.699200
   1081   1079   1085     1   108.7700466 392.459200
   1083   1082   1086     1   108.7700466 392.459200
   1083   1082   1084     1   107.5800459 329.699200
   1084   1082   1086     1   108.7700466 392.459200
   1085   1836   1837     1   117.5500507 404.174400
   1086   1847   1848     1   117.5500507 404.174400
   1091   1094   1095     1   109.5600471 388.275200
   1091   1094   1096     1   109.5600471 388.275200
   1092   1091   1094     1   109.5600471 388.275200
   1092   1091   1097     1   109.8800469 414.216000
   1092   1091   1093     1   108.4600466 328.025600
   1093   1091   1094     1   109.5600471 388.275200
   1093   1091   1097     1   109.8800469 414.216000
   1094   1114   1115     1   117.6800502 383.254400
   1095   1094   1114     1   108.8800464 416.726400
   1095   1094   1096     1   108.4600466 328.025600
   1096   1094   1114     1   108.8800464 416.726400
   1097   1098   1099     1   109.8800469 414.216000
   1097   1098   1100     1   109.8800469 414.216000
   1097   1101   1102     1   109.8800469 414.216000
   1097   1101   1103     1   109.8800469 414.216000
   1098   1107   1108     1   109.8000471 387.438400
   1098   1107   1109     1   109.8000471 387.438400
   1099   1098   1107     1   109.5600471 388.275200
   1099   1098   1100     1   108.4600466 328.025600
   1100   1098   1107     1   109.5600471 388.275200
   1101   1104   1105     1   109.8000471 387.438400
   1101   1104   1106     1   109.8000471 387.438400
   1102   1101   1104     1   109.5600471 388.275200
   1102   1101   1103     1   108.4600466 328.025600
   1103   1101   1104     1   109.5600471 388.275200
   1105   1104   1110     1   108.7700466 392.459200
   1105   1104   1106     1   107.5800459 329.699200
   1106   1104   1110     1   108.7700466 392.459200
   1108   1107   1111     1   108.7700466 392.459200
   1108   1107   1109     1   107.5800459 329.699200
   1109   1107   1111     1   108.7700466 392.459200
   1110   1858   1859     1   117.5500507 404.174400
   1111   1869   1870     1   117.5500507 404.174400
   1116   1119   1120     1   109.5600471 388.275200
   1116   1119   1121     1   109.5600471 388.275200
   1117   1116   1119     1   109.5600471 388.275200
   1117   1116   1122     1   109.8800469 414.216000
   1117   1116   1118     1   108.4600466 328.025600
   1118   1116   1119     1   109.5600471 388.275200
   1118   1116   1122     1   109.8800469 414.216000
   1119   1139   1140     1   117.6800502 383.254400
   1120   1119   1139     1   108.8800464 416.726400
   1120   1119   1121     1   108.4600466 328.025600
   1121   1119   1139     1   108.8800464 416.726400
   1122   1123   1124     1   109.8800469 414.216000
   1122   1123   1125     1   109.8800469 414.216000
   1122   1126   1127     1   109.8800469 414.216000
   1122   1126   1128     1   109.8800469 414.216000
   1123   1132   1133     1   109.8000471 387.438400
   1123   1132   1134     1   109.8000471 387.438400
   1124   1123   1132     1   109.5600471 388.275200
   1124   1123   1125     1   108.4600466 328.025600
   1125   1123   1132     1   109.5600471 388.275200
   1126   1129   1130     1   109.8000471 387.438400
   1126   1129   1131     1   109.8000471 387.438400
   1127   1126   1129     1   109.5600471 388.275200
   1127   1126   1128     1   108.4600466 328.025600
   1128   1126   1129     1   109.5600471 388.275200
   1130   1129   1135     1   108.7700466 392.459200
   1130   1129   1131     1   107.5800459 329.699200
   1131   1129   1135     1   108.7700466 392.459200
   1133   1132   1136     1   108.7700466 392.459200
   1133   1132   1134     1   107.5800459 329.699200
   1134   1132   1136     1   108.7700466 392.459200
   1135   1880   1881     1   117.5500507 404.174400
   1136   1891   1892     1   117.5500507 404.174400
   1141   1144   1145     1   109.5600471 388.275200
   1141   1144   1146     1   109.5600471 388.275200
   1142   1141   1144     1   109.5600471 388.275200
   1142   1141   1147     1   109.8800469 414.216000
   1142   1141   1143     1   108.4600466 328.025600
   1143   1141   1144     1   109.5600471 388.275200
   1143   1141   1147     1   109.8800469 414.216000
   1144   1164   1165     1   117.6800502 383.254400
   1145   1144   1164     1   108.8800464 416.726400
   1145   1144   1146     1   108.4600466 328.025600
   1146   1144   1164     1   108.8800464 416.726400
   1147   1148   1149     1   109.8800469 414.216000
   1147   1148   1150     1   109.8800469 414.216000
   1147   1151   1152     1   109.8800469 414.216000
   1147   1151   1153     1   109.8800469 414.216000
   1148   1157   1158     1   109.8000471 387.438400
   1148   1157   1159     1   109.8000471 387.438400
   1149   1148   1157     1   109.5600471 388.275200
   1149   1148   1150     1   108.4600466 328.025600
   1150   1148   1157     1   109.5600471 388.275200
   1151   1154   1155     1   109.8000471 387.438400
   1151   1154   1156     1   109.8000471 387.438400
   1152   1151   1154     1   109.5600471 388.275200
   1152   1151   1153     1   108.4600466 328.025600
   1153   1151   1154     1   109.5600471 388.275200
   1155   1154   1160     1   108.7700466 392.459200
   1155   1154   1156     1   107.5800459 329.699200
   1156   1154   1160     1   108.7700466 392.459200
   1158   1157   1161     1   108.7700466 392.459200
   1158   1157   1159     1   107.5800459 329.699200
   1159   1157   1161     1   108.7700466 392.459200
   1160   1902   1903     1   117.5500507 404.174400
   1161   1913   1914     1   117.5500507 404.174400
   1166   1169   1170     1   109.5600471 388.275200
   1166   1169   1171     1   109.5600471 388.275200
   1167   1166   1169     1   109.5600471 388.275200
   1167   1166   1172     1   109.8800469 414.216000
   1167   1166   1168     1   108.4600466 328.025600
   1168   1166   1169     1   109.5600471 388.275200
   1168   1166   1172     1   109.8800469 414.216000
   1169   1189   1190     1   117.6800502 383.254400
   1170   1169   1189     1   108.8800464 416.726400
   1170   1169   1171     1   108.4600466 328.025600
   1171   1169   1189     1   108.8800464 416.726400
   1172   1173   1174     1   109.8800469 414.216000
   1172   1173   1175     1   109.8800469 414.216000
   1172   1176   1177     1   109.8800469 414.216000
   1172   1176   1178     1   109.8800469 414.216000
   1173   1182   1183     1   109.8000471 387.438400
   1173   1182   1184     1   109.8000471 387.438400
   1174   1173   1182     1   109.5600471 388.275200
   1174   1173   1175     1   108.4600466 328.025600
   1175   1173   1182     1   109.5600471 388.275200
   1176   1179   1180     1   109.8000471 387.438400
   1176   1179   1181     1   109.8000471 387.438400
   1177   1176   1179     1   109.5600471 388.275200
   1177   1176   1178     1   108.4600466 328.025600
   1178   1176   1179     1   109.5600471 388.275200
   1180   1179   1185     1   108.7700466 392.459200
   1180   1179   1181     1   107.5800459 329.699200
   1181   1179   1185     1   108.7700466 392.459200
   1183   1182   1186     1   108.7700466 392.459200
   1183   1182   1184     1   107.5800459 329.699200
   1184   1182   1186     1   108.7700466 392.459200
   1185   1924   1925     1   117.5500507 404.174400
   1186   1935   1936     1   117.5500507 404.174400
   1191   1194   1195     1   109.5600471 388.275200
   1191   1194   1196     1   109.5600471 388.275200
   1192   1191   1194     1   109.5600471 388.275200
   1192   1191   1197     1   109.8800469 414.216000
   1192   1191   1193     1   108.4600466 328.025600
   1193   1191   1194     1   109.5600471 388.275200
   1193   1191   1197     1   109.8800469 414.216000
   1194   1214   1215     1   117.6800502 383.254400
   1195   1194   1214     1   108.8800464 416.726400
   1195   1194   1196     1   108.4600466 328.025600
   1196   1194   1214     1   108.8800464 416.726400
   1197   1198   1199     1   109.8800469 414.216000
   1197   1198   1200     1   109.8800469 414.216000
   1197   1201   1202     1   109.8800469 414.216000
   1197   1201   1203     1   109.8800469 414.216000
   1198   1207   1208     1   109.8000471 387.438400
   1198   1207   1209     1   109.8000471 387.438400
   1199   1198   1207     1   109.5600471 388.275200
   1199   1198   1200     1   108.4600466 328.025600
   1200   1198   1207     1   109.5600471 388.275200
   1201   1204   1205     1   109.8000471 387.438400
   1201   1204   1206     1   109.8000471 387.438400
   1202   1201   1204     1   109.5600471 388.275200
   1202   1201   1203     1   108.4600466 328.025600
   1203   1201   1204     1   109.5600471 388.275200
   1205   1204   1210     1   108.7700466 392.459200
   1205   1204   1206     1   107.5800459 329.699200
   1206   1204   1210     1   108.7700466 392.459200
   1208   1207   1211     1   108.7700466 392.459200
   1208   1207   1209     1   107.5800459 329.699200
   1209   1207   1211     1   108.7700466 392.459200
   1210   1946   1947     1   117.5500507 404.174400
   1211   1957   1958     1   117.5500507 404.174400
   1216   1219   1220     1   109.5600471 388.275200
   1216   1219   1221     1   109.5600471 388.275200
   1217   1216   1219     1   109.5600471 388.275200
   1217   1216   1222     1   109.8800469 414.216000
   1217   1216   1218     1   108.4600466 328.025600
   1218   1216   1219     1   109.5600471 388.275200
   1218   1216   1222     1   109.8800469 414.216000
   1219   1239   1240     1   117.6800502 383.254400
   1220   1219   1239     1   108.8800464 416.726400
   1220   1219   1221     1   108.4600466 328.025600
   1221   1219   1239     1   108.8800464 416.726400
   1222   1223   1224     1   109.8800469 414.216000
   1222   1223   1225     1   109.8800469 414.216000
   1222   1226   1227     1   109.8800469 414.216000
   1222   1226   1228     1   109.8800469 414.216000
   1223   1232   1233     1   109.8000471 387.438400
   1223   1232   1234     1   109.8000471 387.438400
   1224   1223   1232     1   109.5600471 388.275200
   1224   1223   1225     1   108.4600466 328.025600
   1225   1223   1232     1   109.5600471 388.275200
   1226   1229   1230     1   109.8000471 387.438400
   1226   1229   1231     1   109.8000471 387.438400
   1227   1226   1229     1   109.5600471 388.275200
   1227   1226   1228     1   108.4600466 328.025600
   1228   1226   1229     1   109.5600471 388.275200
   1230   1229   1235     1   108.7700466 392.459200
   1230   1229   1231     1   107.5800459 329.699200
   1231   1229   1235     1   108.7700466 392.459200
   1233   1232   1236     1   108.7700466 392.459200
   1233   1232   1234     1   107.5800459 329.699200
   1234   1232   1236     1   108.7700466 392.459200
   1235   1968   1969     1   117.5500507 404.174400
   1236   1979   1980     1   117.5500507 404.174400
   1241   1244   1245     1   109.5600471 388.275200
   1241   1244   1246     1   109.5600471 388.275200
   1242   1241   1244     1   109.5600471 388.275200
   1242   1241   1247     1   109.8800469 414.216000
   1242   1241   1243     1   108.4600466 328.025600
   1243   1241   1244     1   109.5600471 388.275200
   1243   1241   1247     1   109.8800469 414.216000
   1244   1264   1265     1   117.6800502 383.254400
   1245   1244   1264     1   108.8800464 416.726400
   1245   1244   1246     1   108.4600466 328.025600
   1246   1244   1264     1   108.8800464 416.726400
   1247   1248   1249     1   109.8800469 414.216000
   1247   1248   1250     1   109.8800469 414.216000
   1247   1251   1252     1   109.8800469 414.216000
   1247   1251   1253     1   109.8800469 414.216000
   1248   1257   1258     1   109.8000471 387.438400
   1248   1257   1259     1   109.8000471 387.438400
   1249   1248   1257     1   109.5600471 388.275200
   1249   1248   1250     1   108.4600466 328.025600
   1250   1248   1257     1   109.5600471 388.275200
   1251   1254   1255     1   109.8000471 387.438400
   1251   1254   1256     1   109.8000471 387.438400
   1252   1251   1254     1   109.5600471 388.275200
   1252   1251   1253     1   108.4600466 328.025600
   1253   1251   1254     1   109.5600471 388.275200
   1255   1254   1260     1   108.7700466 392.459200
   1255   1254   1256     1   107.5800459 329.699200
   1256   1254   1260     1   108.7700466 392.459200
   1258   1257   1261     1   108.7700466 392.459200
   1258   1257   1259     1   107.5800459 329.699200
   1259   1257   1261     1   108.7700466 392.459200
   1260   1990   1991     1   117.5500507 404.174400
   1261   2001   2002     1   117.5500507 404.174400
   1266   1269   1270     1   109.5600471 388.275200
   1266   1269   1271     1   109.5600471 388.275200
   1267   1266   1269     1   109.5600471 388.275200
   1267   1266   1272     1   109.8800469 414.216000
   1267   1266   1268     1   108.4600466 328.025600
   1268   1266   1269     1   109.5600471 388.275200
   1268   1266   1272     1   109.8800469 414.216000
   1269   1289   1290     1   117.6800502 383.254400
   1270   1269   1289     1   108.8800464 416.726400
   1270   1269   1271     1   108.4600466 328.025600
   1271   1269   1289     1   108.8800464 416.726400
   1272   1273   1274     1   109.8800469 414.216000
   1272   1273   1275     1   109.8800469 414.216000
   1272   1276   1277     1   109.8800469 414.216000
   1272   1276   1278     1   109.8800469 414.216000
   1273   1282   1283     1   109.8000471 387.438400
   1273   1282   1284     1   109.8000471 387.438400
   1274   1273   1282     1   109.5600471 388.275200
   1274   1273   1275     1   108.4600466 328.025600
   1275   1273   1282     1   109.5600471 388.275200
   1276   1279   1280     1   109.8000471 387.438400
   1276   1279   1281     1   109.8000471 387.438400
   1277   1276   1279     1   109.5600471 388.275200
   1277   1276   1278     1   108.4600466 328.025600
   1278   1276   1279     1   109.5600471 388.275200
   1280   1279   1285     1   108.7700466 392.459200
   1280   1279   1281     1   107.5800459 329.699200
   1281   1279   1285     1   108.7700466 392.459200
   1283   1282   1286     1   108.7700466 392.459200
   1283   1282   1284     1   107.5800459 329.699200
   1284   1282   1286     1   108.7700466 392.459200
   1285   2012   2013     1   117.5500507 404.174400
   1286   2023   2024     1   117.5500507 404.174400
   1291   1294   1295     1   109.5600471 388.275200
   1291   1294   1296     1   109.5600471 388.275200
   1292   1291   1294     1   109.5600471 388.275200
   1292   1291   1297     1   109.8800469 414.216000
   1292   1291   1293     1   108.4600466 328.025600
   1293   1291   1294     1   109.5600471 388.275200
   1293   1291   1297     1   109.8800469 414.216000
   1294   1314   1315     1   117.6800502 383.254400
   1295   1294   1314     1   108.8800464 416.726400
   1295   1294   1296     1   108.4600466 328.025600
   1296   1294   1314     1   108.8800464 416.726400
   1297   1298   1299     1   109.8800469 414.216000
   1297   1298   1300     1   109.8800469 414.216000
   1297   1301   1302     1   109.8800469 414.216000
   1297   1301   1303     1   109.8800469 414.216000
   1298   1307   1308     1   109.8000471 387.438400
   1298   1307   1309     1   109.8000471 387.438400
   1299   1298   1307     1   109.5600471 388.275200
   1299   1298   1300     1   108.4600466 328.025600
   1300   1298   1307     1   109.5600471 388.275200
   1301   1304   1305     1   109.8000471 387.438400
   1301   1304   1306     1   109.8000471 387.438400
   1302   1301   1304     1   109.5600471 388.275200
   1302   1301   1303     1   108.4600466 328.025600
   1303   1301   1304     1   109.5600471 388.275200
   1305   1304   1310     1   108.7700466 392.459200
   1305   1304   1306     1   107.5800459 329.699200
   1306   1304   1310     1   108.7700466 392.459200
   1308   1307   1311     1   108.7700466 392.459200
   1308   1307   1309     1   107.5800459 329.699200
   1309   1307   1311     1   108.7700466 392.459200
   1310   2034   2035     1   117.5500507 404.174400
   1311   2045   2046     1   117.5500507 404.174400
   1316   1319   1320     1   109.5600471 388.275200
   1316   1319   1321     1   109.5600471 388.275200
   1317   1316   1319     1   109.5600471 388.275200
   1317   1316   1322     1   109.8800469 414.216000
   1317   1316   1318     1   108.4600466 328.025600
   1318   1316   1319     1   109.5600471 388.275200
   1318   1316   1322     1   109.8800469 414.216000
   1319   1339   1340     1   117.6800502 383.254400
   1320   1319   1339     1   108.8800464 416.726400
   1320   1319   1321     1   108.4600466 328.025600
   1321   1319   1339     1   108.8800464 416.726400
   1322   1323   1324     1   109.8800469 414.216000
   1322   1323   1325     1   109.8800469 414.216000
   1322   1326   1327     1   109.8800469 414.216000
   1322   1326   1328     1   109.8800469 414.216000
   1323   1332   1333     1   109.8000471 387.438400
   1323   1332   1334     1   109.8000471 387.438400
   1324   1323   1332     1   109.5600471 388.275200
   1324   1323   1325     1   108.4600466 328.025600
   1325   1323   1332     1   109.5600471 388.275200
   1326   1329   1330     1   109.8000471 387.438400
   1326   1329   1331     1   109.8000471 387.438400
   1327   1326   1329     1   109.5600471 388.275200
   1327   1326   1328     1   108.4600466 328.025600
   1328   1326   1329     1   109.5600471 388.275200
   1330   1329   1335     1   108.7700466 392.459200
   1330   1329   1331     1   107.5800459 329.699200
   1331   1329   1335     1   108.7700466 392.459200
   1333   1332   1336     1   108.7700466 392.459200
   1333   1332   1334     1   107.5800459 329.699200
   1334   1332   1336     1   108.7700466 392.459200
   1335   2056   2057     1   117.5500507 404.174400
   1336   2067   2068     1   117.5500507 404.174400
   1341   1344   1345     1   109.5600471 388.275200
   1341   1344   1346     1   109.5600471 388.275200
   1342   1341   1344     1   109.5600471 388.275200
   1342   1341   1347     1   109.8800469 414.216000
   1342   1341   1343     1   108.4600466 328.025600
   1343   1341   1344     1   109.5600471 388.275200
   1343   1341   1347     1   109.8800469 414.216000
   1344   1364   1365     1   117.6800502 383.254400
   1345   1344   1364     1   108.8800464 416.726400
   1345   1344   1346     1   108.4600466 328.025600
   1346   1344   1364     1   108.8800464 416.726400
   1347   1348   1349     1   109.8800469 414.216000
   1347   1348   1350     1   109.8800469 414.216000
   1347   1351   1352     1   109.8800469 414.216000
   1347   1351   1353     1   109.8800469 414.216000
   1348   1357   1358     1   109.8000471 387.438400
   1348   1357   1359     1   109.8000471 387.438400
   1349   1348   1357     1   109.5600471 388.275200
   1349   1348   1350     1   108.4600466 328.025600
   1350   1348   1357     1   109.5600471 388.275200
   1351   1354   1355     1   109.8000471 387.438400
   1351   1354   1356     1   109.8000471 387.438400
   1352   1351   1354     1   109.5600471 388.275200
   1352   1351   1353     1   108.4600466 328.025600
   1353   1351   1354     1   109.5600471 388.275200
   1355   1354   1360     1   108.7700466 392.459200
   1355   1354   1356     1   107.5800459 329.699200
   1356   1354   1360     1   108.7700466 392.459200
   1358   1357   1361     1   108.7700466 392.459200
   1358   1357   1359     1   107.5800459 329.699200
   1359   1357   1361     1   108.7700466 392.459200
   1360   2078   2079     1   117.5500507 404.174400
   1361   2089   2090     1   117.5500507 404.174400
   1366   1369   1370     1   109.5600471 388.275200
   1366   1369   1371     1   109.5600471 388.275200
   1367   1366   1369     1   109.5600471 388.275200
   1367   1366   1372     1   109.8800469 414.216000
   1367   1366   1368     1   108.4600466 328.025600
   1368   1366   1369     1   109.5600471 388.275200
   1368   1366   1372     1   109.8800469 414.216000
   1369   1389   1390     1   117.6800502 383.254400
   1370   1369   1389     1   108.8800464 416.726400
   1370   1369   1371     1   108.4600466 328.025600
   1371   1369   1389     1   108.8800464 416.726400
   1372   1373   1374     1   109.8800469 414.216000
   1372   1373   1375     1   109.8800469 414.216000
   1372   1376   1377     1   109.8800469 414.216000
   1372   1376   1378     1   109.8800469 414.216000
   1373   1382   1383     1   109.8000471 387.438400
   1373   1382   1384     1   109.8000471 387.438400
   1374   1373   1382     1   109.5600471 388.275200
   1374   1373   1375     1   108.4600466 328.025600
   1375   1373   1382     1   109.5600471 388.275200
   1376   1379   1380     1   109.8000471 387.438400
   1376   1379   1381     1   109.8000471 387.438400
   1377   1376   1379     1   109.5600471 388.275200
   1377   1376   1378     1   108.4600466 328.025600
   1378   1376   1379     1   109.5600471 388.275200
   1380   1379   1385     1   108.7700466 392.459200
   1380   1379   1381     1   107.5800459 329.699200
   1381   1379   1385     1   108.7700466 392.459200
   1383   1382   1386     1   108.7700466 392.459200
   1383   1382   1384     1   107.5800459 329.699200
   1384   1382   1386     1   108.7700466 392.459200
   1385   2100   2101     1   117.5500507 404.174400
   1386   2111   2112     1   117.5500507 404.174400
   1391   1394   1395     1   109.5600471 388.275200
   1391   1394   1396     1   109.5600471 388.275200
   1392   1391   1394     1   109.5600471 388.275200
   1392   1391   1397     1   109.8800469 414.216000
   1392   1391   1393     1   108.4600466 328.025600
   1393   1391   1394     1   109.5600471 388.275200
   1393   1391   1397     1   109.8800469 414.216000
   1394   1414   1415     1   117.6800502 383.254400
   1395   1394   1414     1   108.8800464 416.726400
   1395   1394   1396     1   108.4600466 328.025600
   1396   1394   1414     1   108.8800464 416.726400
   1397   1398   1399     1   109.8800469 414.216000
   1397   1398   1400     1   109.8800469 414.216000
   1397   1401   1402     1   109.8800469 414.216000
   1397   1401   1403     1   109.8800469 414.216000
   1398   1407   1408     1   109.8000471 387.438400
   1398   1407   1409     1   109.8000471 387.438400
   1399   1398   1407     1   109.5600471 388.275200
   1399   1398   1400     1   108.4600466 328.025600
   1400   1398   1407     1   109.5600471 388.275200
   1401   1404   1405     1   109.8000471 387.438400
   1401   1404   1406     1   109.8000471 387.438400
   1402   1401   1404     1   109.5600471 388.275200
   1402   1401   1403     1   108.4600466 328.025600
   1403   1401   1404     1   109.5600471 388.275200
   1405   1404   1410     1   108.7700466 392.459200
   1405   1404   1406     1   107.5800459 329.699200
   1406   1404   1410     1   108.7700466 392.459200
   1408   1407   1411     1   108.7700466 392.459200
   1408   1407   1409     1   107.5800459 329.699200
   1409   1407   1411     1   108.7700466 392.459200
   1410   2122   2123     1   117.5500507 404.174400
   1411   2133   2134     1   117.5500507 404.174400
   1416   1419   1420     1   109.5600471 388.275200
   1416   1419   1421     1   109.5600471 388.275200
   1417   1416   1419     1   109.5600471 388.275200
   1417   1416   1422     1   109.8800469 414.216000
   1417   1416   1418     1   108.4600466 328.025600
   1418   1416   1419     1   109.5600471 388.275200
   1418   1416   1422     1   109.8800469 414.216000
   1419   1439   1440     1   117.6800502 383.254400
   1420   1419   1439     1   108.8800464 416.726400
   1420   1419   1421     1   108.4600466 328.025600
   1421   1419   1439     1   108.8800464 416.726400
   1422   1423   1424     1   109.8800469 414.216000
   1422   1423   1425     1   109.8800469 414.216000
   1422   1426   1427     1   109.8800469 414.216000
   1422   1426   1428     1   109.8800469 414.216000
   1423   1432   1433     1   109.8000471 387.438400
   1423   1432   1434     1   109.8000471 387.438400
   1424   1423   1432     1   109.5600471 388.275200
   1424   1423   1425     1   108.4600466 328.025600
   1425   1423   1432     1   109.5600471 388.275200
   1426   1429   1430     1   109.8000471 387.438400
   1426   1429   1431     1   109.8000471 387.438400
   1427   1426   1429     1   109.5600471 388.275200
   1427   1426   1428     1   108.4600466 328.025600
   1428   1426   1429     1   109.5600471 388.275200
   1430   1429   1435     1   108.7700466 392.459200
   1430   1429   1431     1   107.5800459 329.699200
   1431   1429   1435     1   108.7700466 392.459200
   1433   1432   1436     1   108.7700466 392.459200
   1433   1432   1434     1   107.5800459 329.699200
   1434   1432   1436     1   108.7700466 392.459200
   1435   2144   2145     1   117.5500507 404.174400
   1436   2155   2156     1   117.5500507 404.174400
   1441   1444   1445     1   109.5600471 388.275200
   1441   1444   1446     1   109.5600471 388.275200
   1442   1441   1444     1   109.5600471 388.275200
   1442   1441   1447     1   109.8800469 414.216000
   1442   1441   1443     1   108.4600466 328.025600
   1443   1441   1444     1   109.5600471 388.275200
   1443   1441   1447     1   109.8800469 414.216000
   1444   1464   1465     1   117.6800502 383.254400
   1445   1444   1464     1   108.8800464 416.726400
   1445   1444   1446     1   108.4600466 328.025600
   1446   1444   1464     1   108.8800464 416.726400
   1447   1448   1449     1   109.8800469 414.216000
   1447   1448   1450     1   109.8800469 414.216000
   1447   1451   1452     1   109.8800469 414.216000
   1447   1451   1453     1   109.8800469 414.216000
   1448   1457   1458     1   109.8000471 387.438400
   1448   1457   1459     1   109.8000471 387.438400
   1449   1448   1457     1   109.5600471 388.275200
   1449   1448   1450     1   108.4600466 328.025600
   1450   1448   1457     1   109.5600471 388.275200
   1451   1454   1455     1   109.8000471 387.438400
   1451   1454   1456     1   109.8000471 387.438400
   1452   1451   1454     1   109.5600471 388.275200
   1452   1451   1453     1   108.4600466 328.025600
   1453   1451   1454     1   109.5600471 388.275200
   1455   1454   1460     1   108.7700466 392.459200
   1455   1454   1456     1   107.5800459 329.699200
   1456   1454   1460     1   108.7700466 392.459200
   1458   1457   1461     1   108.7700466 392.459200
   1458   1457   1459     1   107.5800459 329.699200
   1459   1457   1461     1   108.7700466 392.459200
   1460   2166   2167     1   117.5500507 404.174400
   1461   2177   2178     1   117.5500507 404.174400
   1466   1469   1470     1   109.5600471 388.275200
   1466   1469   1471     1   109.5600471 388.275200
   1467   1466   1469     1   109.5600471 388.275200
   1467   1466   1472     1   109.8800469 414.216000
   1467   1466   1468     1   108.4600466 328.025600
   1468   1466   1469     1   109.5600471 388.275200
   1468   1466   1472     1   109.8800469 414.216000
   1469   1489   1490     1   117.6800502 383.254400
   1470   1469   1489     1   108.8800464 416.726400
   1470   1469   1471     1   108.4600466 328.025600
   1471   1469   1489     1   108.8800464 416.726400
   1472   1473   1474     1   109.8800469 414.216000
   1472   1473   1475     1   109.8800469 414.216000
   1472   1476   1477     1   109.8800469 414.216000
   1472   1476   1478     1   109.8800469 414.216000
   1473   1482   1483     1   109.8000471 387.438400
   1473   1482   1484     1   109.8000471 387.438400
   1474   1473   1482     1   109.5600471 388.275200
   1474   1473   1475     1   108.4600466 328.025600
   1475   1473   1482     1   109.5600471 388.275200
   1476   1479   1480     1   109.8000471 387.438400
   1476   1479   1481     1   109.8000471 387.438400
   1477   1476   1479     1   109.5600471 388.275200
   1477   1476   1478     1   108.4600466 328.025600
   1478   1476   1479     1   109.5600471 388.275200
   1480   1479   1485     1   108.7700466 392.459200
   1480   1479   1481     1   107.5800459 329.699200
   1481   1479   1485     1   108.7700466 392.459200
   1483   1482   1486     1   108.7700466 392.459200
   1483   1482   1484     1   107.5800459 329.699200
   1484   1482   1486     1   108.7700466 392.459200
   1485   2188   2189     1   117.5500507 404.174400
   1486   2199   2200     1   117.5500507 404.174400
   1491   1494   1495     1   109.5600471 388.275200
   1491   1494   1496     1   109.5600471 388.275200
   1492   1491   1494     1   109.5600471 388.275200
   1492   1491   1497     1   109.8800469 414.216000
   1492   1491   1493     1   108.4600466 328.025600
   1493   1491   1494     1   109.5600471 388.275200
   1493   1491   1497     1   109.8800469 414.216000
   1494   1514   1515     1   117.6800502 383.254400
   1495   1494   1514     1   108.8800464 416.726400
   1495   1494   1496     1   108.4600466 328.025600
   1496   1494   1514     1   108.8800464 416.726400
   1497   1498   1499     1   109.8800469 414.216000
   1497   1498   1500     1   109.8800469 414.216000
   1497   1501   1502     1   109.8800469 414.216000
   1497   1501   1503     1   109.8800469 414.216000
   1498   1507   1508     1   109.8000471 387.438400
   1498   1507   1509     1   109.8000471 387.438400
   1499   1498   1507     1   109.5600471 388.275200
   1499   1498   1500     1   108.4600466 328.025600
   1500   1498   1507     1   109.5600471 388.275200
   1501   1504   1505     1   109.8000471 387.438400
   1501   1504   1506     1   109.8000471 387.438400
   1502   1501   1504     1   109.5600471 388.275200
   1502   1501   1503     1   108.4600466 328.025600
   1503   1501   1504     1   109.5600471 388.275200
   1505   1504   1510     1   108.7700466 392.459200
   1505   1504   1506     1   107.5800459 329.699200
   1506   1504   1510     1   108.7700466 392.459200
   1508   1507   1511     1   108.7700466 392.459200
   1508   1507   1509     1   107.5800459 329.699200
   1509   1507   1511     1   108.7700466 392.459200
   1510   2210   2211     1   117.5500507 404.174400
   1511   2221   2222     1   117.5500507 404.174400
   1516   1519   1520     1   109.5600471 388.275200
   1516   1519   1521     1   109.5600471 388.275200
   1517   1516   1519     1   109.5600471 388.275200
   1517   1516   1522     1   109.8800469 414.216000
   1517   1516   1518     1   108.4600466 328.025600
   1518   1516   1519     1   109.5600471 388.275200
   1518   1516   1522     1   109.8800469 414.216000
   1519   1539   1540     1   117.6800502 383.254400
   1520   1519   1539     1   108.8800464 416.726400
   1520   1519   1521     1   108.4600466 328.025600
   1521   1519   1539     1   108.8800464 416.726400
   1522   1523   1524     1   109.8800469 414.216000
   1522   1523   1525     1   109.8800469 414.216000
   1522   1526   1527     1   109.8800469 414.216000
   1522   1526   1528     1   109.8800469 414.216000
   1523   1532   1533     1   109.8000471 387.438400
   1523   1532   1534     1   109.8000471 387.438400
   1524   1523   1532     1   109.5600471 388.275200
   1524   1523   1525     1   108.4600466 328.025600
   1525   1523   1532     1   109.5600471 388.275200
   1526   1529   1530     1   109.8000471 387.438400
   1526   1529   1531     1   109.8000471 387.438400
   1527   1526   1529     1   109.5600471 388.275200
   1527   1526   1528     1   108.4600466 328.025600
   1528   1526   1529     1   109.5600471 388.275200
   1530   1529   1535     1   108.7700466 392.459200
   1530   1529   1531     1   107.5800459 329.699200
   1531   1529   1535     1   108.7700466 392.459200
   1533   1532   1536     1   108.7700466 392.459200
   1533   1532   1534     1   107.5800459 329.699200
   1534   1532   1536     1   108.7700466 392.459200
   1535   2232   2233     1   117.5500507 404.174400
   1536   2243   2244     1   117.5500507 404.174400
   1541   1544   1545     1   109.5600471 388.275200
   1541   1544   1546     1   109.5600471 388.275200
   1541   1550   1551     1   117.6800502 383.254400
   1542   1541   1544     1   109.5600471 388.275200
   1542   1541   1550     1   108.8800464 416.726400
   1542   1541   1543     1   108.4600466 328.025600
   1543   1541   1544     1   109.5600471 388.275200
   1543   1541   1550     1   108.8800464 416.726400
   1544   1547   1548     1   109.2900470 396.643200
   1544   1547   1549     1   109.2900470 396.643200
   1545   1544   1547     1   109.8800469 414.216000
   1545   1544   1546     1   108.4600466 328.025600
   1546   1544   1547     1   109.8800469 414.216000
   1548   1547   1549     1   106.4000456 346.435200
   1552   1555   1556     1   109.5600471 388.275200
   1552   1555   1557     1   109.5600471 388.275200
   1552   1561   1562     1   117.6800502 383.254400
   1553   1552   1555     1   109.5600471 388.275200
   1553   1552   1561     1   108.8800464 416.726400
   1553   1552   1554     1   108.4600466 328.025600
   1554   1552   1555     1   109.5600471 388.275200
   1554   1552   1561     1   108.8800464 416.726400
   1555   1558   1559     1   109.2900470 396.643200
   1555   1558   1560     1   109.2900470 396.643200
   1556   1555   1558     1   109.8800469 414.216000
   1556   1555   1557     1   108.4600466 328.025600
   1557   1555   1558     1   109.8800469 414.216000
   1559   1558   1560     1   106.4000456 346.435200
   1563   1566   1567     1   109.5600471 388.275200
   1563   1566   1568     1   109.5600471 388.275200
   1563   1572   1573     1   117.6800502 383.254400
   1564   1563   1566     1   109.5600471 388.275200
   1564   1563   1572     1   108.8800464 416.726400
   1564   1563   1565     1   108.4600466 328.025600
   1565   1563   1566     1   109.5600471 388.275200
   1565   1563   1572     1   108.8800464 416.726400
   1566   1569   1570     1   109.2900470 396.643200
   1566   1569   1571     1   109.2900470 396.643200
   1567   1566   1569     1   109.8800469 414.216000
   1567   1566   1568     1   108.4600466 328.025600
   1568   1566   1569     1   109.8800469 414.216000
   1570   1569   1571     1   106.4000456 346.435200
   1574   1577   1578     1   109.5600471 388.275200
   1574   1577   1579     1   109.5600471 388.275200
   1574   1583   1584     1   117.6800502 383.254400
   1575   1574   1577     1   109.5600471 388.275200
   1575   1574   1583     1   108.8800464 416.726400
   1575   1574   1576     1   108.4600466 328.025600
   1576   1574   1577     1   109.5600471 388.275200
   1576   1574   1583     1   108.8800464 416.726400
   1577   1580   1581     1   109.2900470 396.643200
   1577   1580   1582     1   109.2900470 396.643200
   1578   1577   1580     1   109.8800469 414.216000
   1578   1577   1579     1   108.4600466 328.025600
   1579   1577   1580     1   109.8800469 414.216000
   1581   1580   1582     1   106.4000456 346.435200
   1585   1588   1589     1   109.5600471 388.275200
   1585   1588   1590     1   109.5600471 388.275200
   1585   1594   1595     1   117.6800502 383.254400
   1586   1585   1588     1   109.5600471 388.275200
   1586   1585   1594     1   108.8800464 416.726400
   1586   1585   1587     1   108.4600466 328.025600
   1587   1585   1588     1   109.5600471 388.275200
   1587   1585   1594     1   108.8800464 416.726400
   1588   1591   1592     1   109.2900470 396.643200
   1588   1591   1593     1   109.2900470 396.643200
   1589   1588   1591     1   109.8800469 414.216000
   1589   1588   1590     1   108.4600466 328.025600
   1590   1588   1591     1   109.8800469 414.216000
   1592   1591   1593     1   106.4000456 346.435200
   1596   1599   1600     1   109.5600471 388.275200
   1596   1599   1601     1   109.5600471 388.275200
   1596   1605   1606     1   117.6800502 383.254400
   1597   1596   1599     1   109.5600471 388.275200
   1597   1596   1605     1   108.8800464 416.726400
   1597   1596   1598     1   108.4600466 328.025600
   1598   1596   1599     1   109.5600471 388.275200
   1598   1596   1605     1   108.8800464 416.726400
   1599   1602   1603     1   109.2900470 396.643200
   1599   1602   1604     1   109.2900470 396.643200
   1600   1599   1602     1   109.8800469 414.216000
   1600   1599   1601     1   108.4600466 328.025600
   1601   1599   1602     1   109.8800469 414.216000
   1603   1602   1604     1   106.4000456 346.435200
   1607   1610   1611     1   109.5600471 388.275200
   1607   1610   1612     1   109.5600471 388.275200
   1607   1616   1617     1   117.6800502 383.254400
   1608   1607   1610     1   109.5600471 388.275200
   1608   1607   1616     1   108.8800464 416.726400
   1608   1607   1609     1   108.4600466 328.025600
   1609   1607   1610     1   109.5600471 388.275200
   1609   1607   1616     1   108.8800464 416.726400
   1610   1613   1614     1   109.2900470 396.643200
   1610   1613   1615     1   109.2900470 396.643200
   1611   1610   1613     1   109.8800469 414.216000
   1611   1610   1612     1   108.4600466 328.025600
   1612   1610   1613     1   109.8800469 414.216000
   1614   1613   1615     1   106.4000456 346.435200
   1618   1621   1622     1   109.5600471 388.275200
   1618   1621   1623     1   109.5600471 388.275200
   1618   1627   1628     1   117.6800502 383.254400
   1619   1618   1621     1   109.5600471 388.275200
   1619   1618   1627     1   108.8800464 416.726400
   1619   1618   1620     1   108.4600466 328.025600
   1620   1618   1621     1   109.5600471 388.275200
   1620   1618   1627     1   108.8800464 416.726400
   1621   1624   1625     1   109.2900470 396.643200
   1621   1624   1626     1   109.2900470 396.643200
   1622   1621   1624     1   109.8800469 414.216000
   1622   1621   1623     1   108.4600466 328.025600
   1623   1621   1624     1   109.8800469 414.216000
   1625   1624   1626     1   106.4000456 346.435200
   1629   1632   1633     1   109.5600471 388.275200
   1629   1632   1634     1   109.5600471 388.275200
   1629   1638   1639     1   117.6800502 383.254400
   1630   1629   1632     1   109.5600471 388.275200
   1630   1629   1638     1   108.8800464 416.726400
   1630   1629   1631     1   108.4600466 328.025600
   1631   1629   1632     1   109.5600471 388.275200
   1631   1629   1638     1   108.8800464 416.726400
   1632   1635   1636     1   109.2900470 396.643200
   1632   1635   1637     1   109.2900470 396.643200
   1633   1632   1635     1   109.8800469 414.216000
   1633   1632   1634     1   108.4600466 328.025600
   1634   1632   1635     1   109.8800469 414.216000
   1636   1635   1637     1   106.4000456 346.435200
   1640   1643   1644     1   109.5600471 388.275200
   1640   1643   1645     1   109.5600471 388.275200
   1640   1649   1650     1   117.6800502 383.254400
   1641   1640   1643     1   109.5600471 388.275200
   1641   1640   1649     1   108.8800464 416.726400
   1641   1640   1642     1   108.4600466 328.025600
   1642   1640   1643     1   109.5600471 388.275200
   1642   1640   1649     1   108.8800464 416.726400
   1643   1646   1647     1   109.2900470 396.643200
   1643   1646   1648     1   109.2900470 396.643200
   1644   1643   1646     1   109.8800469 414.216000
   1644   1643   1645     1   108.4600466 328.025600
   1645   1643   1646     1   109.8800469 414.216000
   1647   1646   1648     1   106.4000456 346.435200
   1651   1654   1655     1   109.5600471 388.275200
   1651   1654   1656     1   109.5600471 388.275200
   1651   1660   1661     1   117.6800502 383.254400
   1652   1651   1654     1   109.5600471 388.275200
   1652   1651   1660     1   108.8800464 416.726400
   1652   1651   1653     1   108.4600466 328.025600
   1653   1651   1654     1   109.5600471 388.275200
   1653   1651   1660     1   108.8800464 416.726400
   1654   1657   1658     1   109.2900470 396.643200
   1654   1657   1659     1   109.2900470 396.643200
   1655   1654   1657     1   109.8800469 414.216000
   1655   1654   1656     1   108.4600466 328.025600
   1656   1654   1657     1   109.8800469 414.216000
   1658   1657   1659     1   106.4000456 346.435200
   1662   1665   1666     1   109.5600471 388.275200
   1662   1665   1667     1   109.5600471 388.275200
   1662   1671   1672     1   117.6800502 383.254400
   1663   1662   1665     1   109.5600471 388.275200
   1663   1662   1671     1   108.8800464 416.726400
   1663   1662   1664     1   108.4600466 328.025600
   1664   1662   1665     1   109.5600471 388.275200
   1664   1662   1671     1   108.8800464 416.726400
   1665   1668   1669     1   109.2900470 396.643200
   1665   1668   1670     1   109.2900470 396.643200
   1666   1665   1668     1   109.8800469 414.216000
   1666   1665   1667     1   108.4600466 328.025600
   1667   1665   1668     1   109.8800469 414.216000
   1669   1668   1670     1   106.4000456 346.435200
   1673   1676   1677     1   109.5600471 388.275200
   1673   1676   1678     1   109.5600471 388.275200
   1673   1682   1683     1   117.6800502 383.254400
   1674   1673   1676     1   109.5600471 388.275200
   1674   1673   1682     1   108.8800464 416.726400
   1674   1673   1675     1   108.4600466 328.025600
   1675   1673   1676     1   109.5600471 388.275200
   1675   1673   1682     1   108.8800464 416.726400
   1676   1679   1680     1   109.2900470 396.643200
   1676   1679   1681     1   109.2900470 396.643200
   1677   1676   1679     1   109.8800469 414.216000
   1677   1676   1678     1   108.4600466 328.025600
   1678   1676   1679     1   109.8800469 414.216000
   1680   1679   1681     1   106.4000456 346.435200
   1684   1687   1688     1   109.5600471 388.275200
   1684   1687   1689     1   109.5600471 388.275200
   1684   1693   1694     1   117.6800502 383.254400
   1685   1684   1687     1   109.5600471 388.275200
   1685   1684   1693     1   108.8800464 416.726400
   1685   1684   1686     1   108.4600466 328.025600
   1686   1684   1687     1   109.5600471 388.275200
   1686   1684   1693     1   108.8800464 416.726400
   1687   1690   1691     1   109.2900470 396.643200
   1687   1690   1692     1   109.2900470 396.643200
   1688   1687   1690     1   109.8800469 414.216000
   1688   1687   1689     1   108.4600466 328.025600
   1689   1687   1690     1   109.8800469 414.216000
   1691   1690   1692     1   106.4000456 346.435200
   1695   1698   1699     1   109.5600471 388.275200
   1695   1698   1700     1   109.5600471 388.275200
   1695   1704   1705     1   117.6800502 383.254400
   1696   1695   1698     1   109.5600471 388.275200
   1696   1695   1704     1   108.8800464 416.726400
   1696   1695   1697     1   108.4600466 328.025600
   1697   1695   1698     1   109.5600471 388.275200
   1697   1695   1704     1   108.8800464 416.726400
   1698   1701   1702     1   109.2900470 396.643200
   1698   1701   1703     1   109.2900470 396.643200
   1699   1698   1701     1   109.8800469 414.216000
   1699   1698   1700     1   108.4600466 328.025600
   1700   1698   1701     1   109.8800469 414.216000
   1702   1701   1703     1   106.4000456 346.435200
   1706   1709   1710     1   109.5600471 388.275200
   1706   1709   1711     1   109.5600471 388.275200
   1706   1715   1716     1   117.6800502 383.254400
   1707   1706   1709     1   109.5600471 388.275200
   1707   1706   1715     1   108.8800464 416.726400
   1707   1706   1708     1   108.4600466 328.025600
   1708   1706   1709     1   109.5600471 388.275200
   1708   1706   1715     1   108.8800464 416.726400
   1709   1712   1713     1   109.2900470 396.643200
   1709   1712   1714     1   109.2900470 396.643200
   1710   1709   1712     1   109.8800469 414.216000
   1710   1709   1711     1   108.4600466 328.025600
   1711   1709   1712     1   109.8800469 414.216000
   1713   1712   1714     1   106.4000456 346.435200
   1717   1720   1721     1   109.5600471 388.275200
   1717   1720   1722     1   109.5600471 388.275200
   1717   1726   1727     1   117.6800502 383.254400
   1718   1717   1720     1   109.5600471 388.275200
   1718   1717   1726     1   108.8800464 416.726400
   1718   1717   1719     1   108.4600466 328.025600
   1719   1717   1720     1   109.5600471 388.275200
   1719   1717   1726     1   108.8800464 416.726400
   1720   1723   1724     1   109.2900470 396.643200
   1720   1723   1725     1   109.2900470 396.643200
   1721   1720   1723     1   109.8800469 414.216000
   1721   1720   1722     1   108.4600466 328.025600
   1722   1720   1723     1   109.8800469 414.216000
   1724   1723   1725     1   106.4000456 346.435200
   1728   1731   1732     1   109.5600471 388.275200
   1728   1731   1733     1   109.5600471 388.275200
   1728   1737   1738     1   117.6800502 383.254400
   1729   1728   1731     1   109.5600471 388.275200
   1729   1728   1737     1   108.8800464 416.726400
   1729   1728   1730     1   108.4600466 328.025600
   1730   1728   1731     1   109.5600471 388.275200
   1730   1728   1737     1   108.8800464 416.726400
   1731   1734   1735     1   109.2900470 396.643200
   1731   1734   1736     1   109.2900470 396.643200
   1732   1731   1734     1   109.8800469 414.216000
   1732   1731   1733     1   108.4600466 328.025600
   1733   1731   1734     1   109.8800469 414.216000
   1735   1734   1736     1   106.4000456 346.435200
   1739   1742   1743     1   109.5600471 388.275200
   1739   1742   1744     1   109.5600471 388.275200
   1739   1748   1749     1   117.6800502 383.254400
   1740   1739   1742     1   109.5600471 388.275200
   1740   1739   1748     1   108.8800464 416.726400
   1740   1739   1741     1   108.4600466 328.025600
   1741   1739   1742     1   109.5600471 388.275200
   1741   1739   1748     1   108.8800464 416.726400
   1742   1745   1746     1   109.2900470 396.643200
   1742   1745   1747     1   109.2900470 396.643200
   1743   1742   1745     1   109.8800469 414.216000
   1743   1742   1744     1   108.4600466 328.025600
   1744   1742   1745     1   109.8800469 414.216000
   1746   1745   1747     1   106.4000456 346.435200
   1750   1753   1754     1   109.5600471 388.275200
   1750   1753   1755     1   109.5600471 388.275200
   1750   1759   1760     1   117.6800502 383.254400
   1751   1750   1753     1   109.5600471 388.275200
   1751   1750   1759     1   108.8800464 416.726400
   1751   1750   1752     1   108.4600466 328.025600
   1752   1750   1753     1   109.5600471 388.275200
   1752   1750   1759     1   108.8800464 416.726400
   1753   1756   1757     1   109.2900470 396.643200
   1753   1756   1758     1   109.2900470 396.643200
   1754   1753   1756     1   109.8800469 414.216000
   1754   1753   1755     1   108.4600466 328.025600
   1755   1753   1756     1   109.8800469 414.216000
   1757   1756   1758     1   106.4000456 346.435200
   1761   1764   1765     1   109.5600471 388.275200
   1761   1764   1766     1   109.5600471 388.275200
   1761   1770   1771     1   117.6800502 383.254400
   1762   1761   1764     1   109.5600471 388.275200
   1762   1761   1770     1   108.8800464 416.726400
   1762   1761   1763     1   108.4600466 328.025600
   1763   1761   1764     1   109.5600471 388.275200
   1763   1761   1770     1   108.8800464 416.726400
   1764   1767   1768     1   109.2900470 396.643200
   1764   1767   1769     1   109.2900470 396.643200
   1765   1764   1767     1   109.8800469 414.216000
   1765   1764   1766     1   108.4600466 328.025600
   1766   1764   1767     1   109.8800469 414.216000
   1768   1767   1769     1   106.4000456 346.435200
   1772   1775   1776     1   109.5600471 388.275200
   1772   1775   1777     1   109.5600471 388.275200
   1772   1781   1782     1   117.6800502 383.254400
   1773   1772   1775     1   109.5600471 388.275200
   1773   1772   1781     1   108.8800464 416.726400
   1773   1772   1774     1   108.4600466 328.025600
   1774   1772   1775     1   109.5600471 388.275200
   1774   1772   1781     1   108.8800464 416.726400
   1775   1778   1779     1   109.2900470 396.643200
   1775   1778   1780     1   109.2900470 396.643200
   1776   1775   1778     1   109.8800469 414.216000
   1776   1775   1777     1   108.4600466 328.025600
   1777   1775   1778     1   109.8800469 414.216000
   1779   1778   1780     1   106.4000456 346.435200
   1783   1786   1787     1   109.5600471 388.275200
   1783   1786   1788     1   109.5600471 388.275200
   1783   1792   1793     1   117.6800502 383.254400
   1784   1783   1786     1   109.5600471 388.275200
   1784   1783   1792     1   108.8800464 416.726400
   1784   1783   1785     1   108.4600466 328.025600
   1785   1783   1786     1   109.5600471 388.275200
   1785   1783   1792     1   108.8800464 416.726400
   1786   1789   1790     1   109.2900470 396.643200
   1786   1789   1791     1   109.2900470 396.643200
   1787   1786   1789     1   109.8800469 414.216000
   1787   1786   1788     1   108.4600466 328.025600
   1788   1786   1789     1   109.8800469 414.216000
   1790   1789   1791     1   106.4000456 346.435200
   1794   1797   1798     1   109.5600471 388.275200
   1794   1797   1799     1   109.5600471 388.275200
   1794   1803   1804     1   117.6800502 383.254400
   1795   1794   1797     1   109.5600471 388.275200
   1795   1794   1803     1   108.8800464 416.726400
   1795   1794   1796     1   108.4600466 328.025600
   1796   1794   1797     1   109.5600471 388.275200
   1796   1794   1803     1   108.8800464 416.726400
   1797   1800   1801     1   109.2900470 396.643200
   1797   1800   1802     1   109.2900470 396.643200
   1798   1797   1800     1   109.8800469 414.216000
   1798   1797   1799     1   108.4600466 328.025600
   1799   1797   1800     1   109.8800469 414.216000
   1801   1800   1802     1   106.4000456 346.435200
   1805   1808   1809     1   109.5600471 388.275200
   1805   1808   1810     1   109.5600471 388.275200
   1805   1814   1815     1   117.6800502 383.254400
   1806   1805   1808     1   109.5600471 388.275200
   1806   1805   1814     1   108.8800464 416.726400
   1806   1805   1807     1   108.4600466 328.025600
   1807   1805   1808     1   109.5600471 388.275200
   1807   1805   1814     1   108.8800464 416.726400
   1808   1811   1812     1   109.2900470 396.643200
   1808   1811   1813     1   109.2900470 396.643200
   1809   1808   1811     1   109.8800469 414.216000
   1809   1808   1810     1   108.4600466 328.025600
   1810   1808   1811     1   109.8800469 414.216000
   1812   1811   1813     1   106.4000456 346.435200
   1816   1819   1820     1   109.5600471 388.275200
   1816   1819   1821     1   109.5600471 388.275200
   1816   1825   1826     1   117.6800502 383.254400
   1817   1816   1819     1   109.5600471 388.275200
   1817   1816   1825     1   108.8800464 416.726400
   1817   1816   1818     1   108.4600466 328.025600
   1818   1816   1819     1   109.5600471 388.275200
   1818   1816   1825     1   108.8800464 416.726400
   1819   1822   1823     1   109.2900470 396.643200
   1819   1822   1824     1   109.2900470 396.643200
   1820   1819   1822     1   109.8800469 414.216000
   1820   1819   1821     1   108.4600466 328.025600
   1821   1819   1822     1   109.8800469 414.216000
   1823   1822   1824     1   106.4000456 346.435200
   1827   1830   1831     1   109.5600471 388.275200
   1827   1830   1832     1   109.5600471 388.275200
   1827   1836   1837     1   117.6800502 383.254400
   1828   1827   1830     1   109.5600471 388.275200
   1828   1827   1836     1   108.8800464 416.726400
   1828   1827   1829     1   108.4600466 328.025600
   1829   1827   1830     1   109.5600471 388.275200
   1829   1827   1836     1   108.8800464 416.726400
   1830   1833   1834     1   109.2900470 396.643200
   1830   1833   1835     1   109.2900470 396.643200
   1831   1830   1833     1   109.8800469 414.216000
   1831   1830   1832     1   108.4600466 328.025600
   1832   1830   1833     1   109.8800469 414.216000
   1834   1833   1835     1   106.4000456 346.435200
   1838   1841   1842     1   109.5600471 388.275200
   1838   1841   1843     1   109.5600471 388.275200
   1838   1847   1848     1   117.6800502 383.254400
   1839   1838   1841     1   109.5600471 388.275200
   1839   1838   1847     1   108.8800464 416.726400
   1839   1838   1840     1   108.4600466 328.025600
   1840   1838   1841     1   109.5600471 388.275200
   1840   1838   1847     1   108.8800464 416.726400
   1841   1844   1845     1   109.2900470 396.643200
   1841   1844   1846     1   109.2900470 396.643200
   1842   1841   1844     1   109.8800469 414.216000
   1842   1841   1843     1   108.4600466 328.025600
   1843   1841   1844     1   109.8800469 414.216000
   1845   1844   1846     1   106.4000456 346.435200
   1849   1852   1853     1   109.5600471 388.275200
   1849   1852   1854     1   109.5600471 388.275200
   1849   1858   1859     1   117.6800502 383.254400
   1850   1849   1852     1   109.5600471 388.275200
   1850   1849   1858     1   108.8800464 416.726400
   1850   1849   1851     1   108.4600466 328.025600
   1851   1849   1852     1   109.5600471 388.275200
   1851   1849   1858     1   108.8800464 416.726400
   1852   1855   1856     1   109.2900470 396.643200
   1852   1855   1857     1   109.2900470 396.643200
   1853   1852   1855     1   109.8800469 414.216000
   1853   1852   1854     1   108.4600466 328.025600
   1854   1852   1855     1   109.8800469 414.216000
   1856   1855   1857     1   106.4000456 346.435200
   1860   1863   1864     1   109.5600471 388.275200
   1860   1863   1865     1   109.5600471 388.275200
   1860   1869   1870     1   117.6800502 383.254400
   1861   1860   1863     1   109.5600471 388.275200
   1861   1860   1869     1   108.8800464 416.726400
   1861   1860   1862     1   108.4600466 328.025600
   1862   1860   1863     1   109.5600471 388.275200
   1862   1860   1869     1   108.8800464 416.726400
   1863   1866   1867     1   109.2900470 396.643200
   1863   1866   1868     1   109.2900470 396.643200
   1864   1863   1866     1   109.8800469 414.216000
   1864   1863   1865     1   108.4600466 328.025600
   1865   1863   1866     1   109.8800469 414.216000
   1867   1866   1868     1   106.4000456 346.435200
   1871   1874   1875     1   109.5600471 388.275200
   1871   1874   1876     1   109.5600471 388.275200
   1871   1880   1881     1   117.6800502 383.254400
   1872   1871   1874     1   109.5600471 388.275200
   1872   1871   1880     1   108.8800464 416.726400
   1872   1871   1873     1   108.4600466 328.025600
   1873   1871   1874     1   109.5600471 388.275200
   1873   1871   1880     1   108.8800464 416.726400
   1874   1877   1878     1   109.2900470 396.643200
   1874   1877   1879     1   109.2900470 396.643200
   1875   1874   1877     1   109.8800469 414.216000
   1875   1874   1876     1   108.4600466 328.025600
   1876   1874   1877     1   109.8800469 414.216000
   1878   1877   1879     1   106.4000456 346.435200
   1882   1885   1886     1   109.5600471 388.275200
   1882   1885   1887     1   109.5600471 388.275200
   1882   1891   1892     1   117.6800502 383.254400
   1883   1882   1885     1   109.5600471 388.275200
   1883   1882   1891     1   108.8800464 416.726400
   1883   1882   1884     1   108.4600466 328.025600
   1884   1882   1885     1   109.5600471 388.275200
   1884   1882   1891     1   108.8800464 416.726400
   1885   1888   1889     1   109.2900470 396.643200
   1885   1888   1890     1   109.2900470 396.643200
   1886   1885   1888     1   109.8800469 414.216000
   1886   1885   1887     1   108.4600466 328.025600
   1887   1885   1888     1   109.8800469 414.216000
   1889   1888   1890     1   106.4000456 346.435200
   1893   1896   1897     1   109.5600471 388.275200
   1893   1896   1898     1   109.5600471 388.275200
   1893   1902   1903     1   117.6800502 383.254400
   1894   1893   1896     1   109.5600471 388.275200
   1894   1893   1902     1   108.8800464 416.726400
   1894   1893   1895     1   108.4600466 328.025600
   1895   1893   1896     1   109.5600471 388.275200
   1895   1893   1902     1   108.8800464 416.726400
   1896   1899   1900     1   109.2900470 396.643200
   1896   1899   1901     1   109.2900470 396.643200
   1897   1896   1899     1   109.8800469 414.216000
   1897   1896   1898     1   108.4600466 328.025600
   1898   1896   1899     1   109.8800469 414.216000
   1900   1899   1901     1   106.4000456 346.435200
   1904   1907   1908     1   109.5600471 388.275200
   1904   1907   1909     1   109.5600471 388.275200
   1904   1913   1914     1   117.6800502 383.254400
   1905   1904   1907     1   109.5600471 388.275200
   1905   1904   1913     1   108.8800464 416.726400
   1905   1904   1906     1   108.4600466 328.025600
   1906   1904   1907     1   109.5600471 388.275200
   1906   1904   1913     1   108.8800464 416.726400
   1907   1910   1911     1   109.2900470 396.643200
   1907   1910   1912     1   109.2900470 396.643200
   1908   1907   1910     1   109.8800469 414.216000
   1908   1907   1909     1   108.4600466 328.025600
   1909   1907   1910     1   109.8800469 414.216000
   1911   1910   1912     1   106.4000456 346.435200
   1915   1918   1919     1   109.5600471 388.275200
   1915   1918   1920     1   109.5600471 388.275200
   1915   1924   1925     1   117.6800502 383.254400
   1916   1915   1918     1   109.5600471 388.275200
   1916   1915   1924     1   108.8800464 416.726400
   1916   1915   1917     1   108.4600466 328.025600
   1917   1915   1918     1   109.5600471 388.275200
   1917   1915   1924     1   108.8800464 416.726400
   1918   1921   1922     1   109.2900470 396.643200
   1918   1921   1923     1   109.2900470 396.643200
   1919   1918   1921     1   109.8800469 414.216000
   1919   1918   1920     1   108.4600466 328.025600
   1920   1918   1921     1   109.8800469 414.216000
   1922   1921   1923     1   106.4000456 346.435200
   1926   1929   1930     1   109.5600471 388.275200
   1926   1929   1931     1   109.5600471 388.275200
   1926   1935   1936     1   117.6800502 383.254400
   1927   1926   1929     1   109.5600471 388.275200
   1927   1926   1935     1   108.8800464 416.726400
   1927   1926   1928     1   108.4600466 328.025600
   1928   1926   1929     1   109.5600471 388.275200
   1928   1926   1935     1   108.8800464 416.726400
   1929   1932   1933     1   109.2900470 396.643200
   1929   1932   1934     1   109.2900470 396.643200
   1930   1929   1932     1   109.8800469 414.216000
   1930   1929   1931     1   108.4600466 328.025600
   1931   1929   1932     1   109.8800469 414.216000
   1933   1932   1934     1   106.4000456 346.435200
   1937   1940   1941     1   109.5600471 388.275200
   1937   1940   1942     1   109.5600471 388.275200
   1937   1946   1947     1   117.6800502 383.254400
   1938   1937   1940     1   109.5600471 388.275200
   1938   1937   1946     1   108.8800464 416.726400
   1938   1937   1939     1   108.4600466 328.025600
   1939   1937   1940     1   109.5600471 388.275200
   1939   1937   1946     1   108.8800464 416.726400
   1940   1943   1944     1   109.2900470 396.643200
   1940   1943   1945     1   109.2900470 396.643200
   1941   1940   1943     1   109.8800469 414.216000
   1941   1940   1942     1   108.4600466 328.025600
   1942   1940   1943     1   109.8800469 414.216000
   1944   1943   1945     1   106.4000456 346.435200
   1948   1951   1952     1   109.5600471 388.275200
   1948   1951   1953     1   109.5600471 388.275200
   1948   1957   1958     1   117.6800502 383.254400
   1949   1948   1951     1   109.5600471 388.275200
   1949   1948   1957     1   108.8800464 416.726400
   1949   1948   1950     1   108.4600466 328.025600
   1950   1948   1951     1   109.5600471 388.275200
   1950   1948   1957     1   108.8800464 416.726400
   1951   1954   1955     1   109.2900470 396.643200
   1951   1954   1956     1   109.2900470 396.643200
   1952   1951   1954     1   109.8800469 414.216000
   1952   1951   1953     1   108.4600466 328.025600
   1953   1951   1954     1   109.8800469 414.216000
   1955   1954   1956     1   106.4000456 346.435200
   1959   1962   1963     1   109.5600471 388.275200
   1959   1962   1964     1   109.5600471 388.275200
   1959   1968   1969     1   117.6800502 383.254400
   1960   1959   1962     1   109.5600471 388.275200
   1960   1959   1968     1   108.8800464 416.726400
   1960   1959   1961     1   108.4600466 328.025600
   1961   1959   1962     1   109.5600471 388.275200
   1961   1959   1968     1   108.8800464 416.726400
   1962   1965   1966     1   109.2900470 396.643200
   1962   1965   1967     1   109.2900470 396.643200
   1963   1962   1965     1   109.8800469 414.216000
   1963   1962   1964     1   108.4600466 328.025600
   1964   1962   1965     1   109.8800469 414.216000
   1966   1965   1967     1   106.4000456 346.435200
   1970   1973   1974     1   109.5600471 388.275200
   1970   1973   1975     1   109.5600471 388.275200
   1970   1979   1980     1   117.6800502 383.254400
   1971   1970   1973     1   109.5600471 388.275200
   1971   1970   1979     1   108.8800464 416.726400
   1971   1970   1972     1   108.4600466 328.025600
   1972   1970   1973     1   109.5600471 388.275200
   1972   1970   1979     1   108.8800464 416.726400
   1973   1976   1977     1   109.2900470 396.643200
   1973   1976   1978     1   109.2900470 396.643200
   1974   1973   1976     1   109.8800469 414.216000
   1974   1973   1975     1   108.4600466 328.025600
   1975   1973   1976     1   109.8800469 414.216000
   1977   1976   1978     1   106.4000456 346.435200
   1981   1984   1985     1   109.5600471 388.275200
   1981   1984   1986     1   109.5600471 388.275200
   1981   1990   1991     1   117.6800502 383.254400
   1982   1981   1984     1   109.5600471 388.275200
   1982   1981   1990     1   108.8800464 416.726400
   1982   1981   1983     1   108.4600466 328.025600
   1983   1981   1984     1   109.5600471 388.275200
   1983   1981   1990     1   108.8800464 416.726400
   1984   1987   1988     1   109.2900470 396.643200
   1984   1987   1989     1   109.2900470 396.643200
   1985   1984   1987     1   109.8800469 414.216000
   1985   1984   1986     1   108.4600466 328.025600
   1986   1984   1987     1   109.8800469 414.216000
   1988   1987   1989     1   106.4000456 346.435200
   1992   1995   1996     1   109.5600471 388.275200
   1992   1995   1997     1   109.5600471 388.275200
   1992   2001   2002     1   117.6800502 383.254400
   1993   1992   1995     1   109.5600471 388.275200
   1993   1992   2001     1   108.8800464 416.726400
   1993   1992   1994     1   108.4600466 328.025600
   1994   1992   1995     1   109.5600471 388.275200
   1994   1992   2001     1   108.8800464 416.726400
   1995   1998   1999     1   109.2900470 396.643200
   1995   1998   2000     1   109.2900470 396.643200
   1996   1995   1998     1   109.8800469 414.216000
   1996   1995   1997     1   108.4600466 328.025600
   1997   1995   1998     1   109.8800469 414.216000
   1999   1998   2000     1   106.4000456 346.435200
   2003   2006   2007     1   109.5600471 388.275200
   2003   2006   2008     1   109.5600471 388.275200
   2003   2012   2013     1   117.6800502 383.254400
   2004   2003   2006     1   109.5600471 388.275200
   2004   2003   2012     1   108.8800464 416.726400
   2004   2003   2005     1   108.4600466 328.025600
   2005   2003   2006     1   109.5600471 388.275200
   2005   2003   2012     1   108.8800464 416.726400
   2006   2009   2010     1   109.2900470 396.643200
   2006   2009   2011     1   109.2900470 396.643200
   2007   2006   2009     1   109.8800469 414.216000
   2007   2006   2008     1   108.4600466 328.025600
   2008   2006   2009     1   109.8800469 414.216000
   2010   2009   2011     1   106.4000456 346.435200
   2014   2017   2018     1   109.5600471 388.275200
   2014   2017   2019     1   109.5600471 388.275200
   2014   2023   2024     1   117.6800502 383.254400
   2015   2014   2017     1   109.5600471 388.275200
   2015   2014   2023     1   108.8800464 416.726400
   2015   2014   2016     1   108.4600466 328.025600
   2016   2014   2017     1   109.5600471 388.275200
   2016   2014   2023     1   108.8800464 416.726400
   2017   2020   2021     1   109.2900470 396.643200
   2017   2020   2022     1   109.2900470 396.643200
   2018   2017   2020     1   109.8800469 414.216000
   2018   2017   2019     1   108.4600466 328.025600
   2019   2017   2020     1   109.8800469 414.216000
   2021   2020   2022     1   106.4000456 346.435200
   2025   2028   2029     1   109.5600471 388.275200
   2025   2028   2030     1   109.5600471 388.275200
   2025   2034   2035     1   117.6800502 383.254400
   2026   2025   2028     1   109.5600471 388.275200
   2026   2025   2034     1   108.8800464 416.726400
   2026   2025   2027     1   108.4600466 328.025600
   2027   2025   2028     1   109.5600471 388.275200
   2027   2025   2034     1   108.8800464 416.726400
   2028   2031   2032     1   109.2900470 396.643200
   2028   2031   2033     1   109.2900470 396.643200
   2029   2028   2031     1   109.8800469 414.216000
   2029   2028   2030     1   108.4600466 328.025600
   2030   2028   2031     1   109.8800469 414.216000
   2032   2031   2033     1   106.4000456 346.435200
   2036   2039   2040     1   109.5600471 388.275200
   2036   2039   2041     1   109.5600471 388.275200
   2036   2045   2046     1   117.6800502 383.254400
   2037   2036   2039     1   109.5600471 388.275200
   2037   2036   2045     1   108.8800464 416.726400
   2037   2036   2038     1   108.4600466 328.025600
   2038   2036   2039     1   109.5600471 388.275200
   2038   2036   2045     1   108.8800464 416.726400
   2039   2042   2043     1   109.2900470 396.643200
   2039   2042   2044     1   109.2900470 396.643200
   2040   2039   2042     1   109.8800469 414.216000
   2040   2039   2041     1   108.4600466 328.025600
   2041   2039   2042     1   109.8800469 414.216000
   2043   2042   2044     1   106.4000456 346.435200
   2047   2050   2051     1   109.5600471 388.275200
   2047   2050   2052     1   109.5600471 388.275200
   2047   2056   2057     1   117.6800502 383.254400
   2048   2047   2050     1   109.5600471 388.275200
   2048   2047   2056     1   108.8800464 416.726400
   2048   2047   2049     1   108.4600466 328.025600
   2049   2047   2050     1   109.5600471 388.275200
   2049   2047   2056     1   108.8800464 416.726400
   2050   2053   2054     1   109.2900470 396.643200
   2050   2053   2055     1   109.2900470 396.643200
   2051   2050   2053     1   109.8800469 414.216000
   2051   2050   2052     1   108.4600466 328.025600
   2052   2050   2053     1   109.8800469 414.216000
   2054   2053   2055     1   106.4000456 346.435200
   2058   2061   2062     1   109.5600471 388.275200
   2058   2061   2063     1   109.5600471 388.275200
   2058   2067   2068     1   117.6800502 383.254400
   2059   2058   2061     1   109.5600471 388.275200
   2059   2058   2067     1   108.8800464 416.726400
   2059   2058   2060     1   108.4600466 328.025600
   2060   2058   2061     1   109.5600471 388.275200
   2060   2058   2067     1   108.8800464 416.726400
   2061   2064   2065     1   109.2900470 396.643200
   2061   2064   2066     1   109.2900470 396.643200
   2062   2061   2064     1   109.8800469 414.216000
   2062   2061   2063     1   108.4600466 328.025600
   2063   2061   2064     1   109.8800469 414.216000
   2065   2064   2066     1   106.4000456 346.435200
   2069   2072   2073     1   109.5600471 388.275200
   2069   2072   2074     1   109.5600471 388.275200
   2069   2078   2079     1   117.6800502 383.254400
   2070   2069   2072     1   109.5600471 388.275200
   2070   2069   2078     1   108.8800464 416.726400
   2070   2069   2071     1   108.4600466 328.025600
   2071   2069   2072     1   109.5600471 388.275200
   2071   2069   2078     1   108.8800464 416.726400
   2072   2075   2076     1   109.2900470 396.643200
   2072   2075   2077     1   109.2900470 396.643200
   2073   2072   2075     1   109.8800469 414.216000
   2073   2072   2074     1   108.4600466 328.025600
   2074   2072   2075     1   109.8800469 414.216000
   2076   2075   2077     1   106.4000456 346.435200
   2080   2083   2084     1   109.5600471 388.275200
   2080   2083   2085     1   109.5600471 388.275200
   2080   2089   2090     1   117.6800502 383.254400
   2081   2080   2083     1   109.5600471 388.275200
   2081   2080   2089     1   108.8800464 416.726400
   2081   2080   2082     1   108.4600466 328.025600
   2082   2080   2083     1   109.5600471 388.275200
   2082   2080   2089     1   108.8800464 416.726400
   2083   2086   2087     1   109.2900470 396.643200
   2083   2086   2088     1   109.2900470 396.643200
   2084   2083   2086     1   109.8800469 414.216000
   2084   2083   2085     1   108.4600466 328.025600
   2085   2083   2086     1   109.8800469 414.216000
   2087   2086   2088     1   106.4000456 346.435200
   2091   2094   2095     1   109.5600471 388.275200
   2091   2094   2096     1   109.5600471 388.275200
   2091   2100   2101     1   117.6800502 383.254400
   2092   2091   2094     1   109.5600471 388.275200
   2092   2091   2100     1   108.8800464 416.726400
   2092   2091   2093     1   108.4600466 328.025600
   2093   2091   2094     1   109.5600471 388.275200
   2093   2091   2100     1   108.8800464 416.726400
   2094   2097   2098     1   109.2900470 396.643200
   2094   2097   2099     1   109.2900470 396.643200
   2095   2094   2097     1   109.8800469 414.216000
   2095   2094   2096     1   108.4600466 328.025600
   2096   2094   2097     1   109.8800469 414.216000
   2098   2097   2099     1   106.4000456 346.435200
   2102   2105   2106     1   109.5600471 388.275200
   2102   2105   2107     1   109.5600471 388.275200
   2102   2111   2112     1   117.6800502 383.254400
   2103   2102   2105     1   109.5600471 388.275200
   2103   2102   2111     1   108.8800464 416.726400
   2103   2102   2104     1   108.4600466 328.025600
   2104   2102   2105     1   109.5600471 388.275200
   2104   2102   2111     1   108.8800464 416.726400
   2105   2108   2109     1   109.2900470 396.643200
   2105   2108   2110     1   109.2900470 396.643200
   2106   2105   2108     1   109.8800469 414.216000
   2106   2105   2107     1   108.4600466 328.025600
   2107   2105   2108     1   109.8800469 414.216000
   2109   2108   2110     1   106.4000456 346.435200
   2113   2116   2117     1   109.5600471 388.275200
   2113   2116   2118     1   109.5600471 388.275200
   2113   2122   2123     1   117.6800502 383.254400
   2114   2113   2116     1   109.5600471 388.275200
   2114   2113   2122     1   108.8800464 416.726400
   2114   2113   2115     1   108.4600466 328.025600
   2115   2113   2116     1   109.5600471 388.275200
   2115   2113   2122     1   108.8800464 416.726400
   2116   2119   2120     1   109.2900470 396.643200
   2116   2119   2121     1   109.2900470 396.643200
   2117   2116   2119     1   109.8800469 414.216000
   2117   2116   2118     1   108.4600466 328.025600
   2118   2116   2119     1   109.8800469 414.216000
   2120   2119   2121     1   106.4000456 346.435200
   2124   2127   2128     1   109.5600471 388.275200
   2124   2127   2129     1   109.5600471 388.275200
   2124   2133   2134     1   117.6800502 383.254400
   2125   2124   2127     1   109.5600471 388.275200
   2125   2124   2133     1   108.8800464 416.726400
   2125   2124   2126     1   108.4600466 328.025600
   2126   2124   2127     1   109.5600471 388.275200
   2126   2124   2133     1   108.8800464 416.726400
   2127   2130   2131     1   109.2900470 396.643200
   2127   2130   2132     1   109.2900470 396.643200
   2128   2127   2130     1   109.8800469 414.216000
   2128   2127   2129     1   108.4600466 328.025600
   2129   2127   2130     1   109.8800469 414.216000
   2131   2130   2132     1   106.4000456 346.435200
   2135   2138   2139     1   109.5600471 388.275200
   2135   2138   2140     1   109.5600471 388.275200
   2135   2144   2145     1   117.6800502 383.254400
   2136   2135   2138     1   109.5600471 388.275200
   2136   2135   2144     1   108.8800464 416.726400
   2136   2135   2137     1   108.4600466 328.025600
   2137   2135   2138     1   109.5600471 388.275200
   2137   2135   2144     1   108.8800464 416.726400
   2138   2141   2142     1   109.2900470 396.643200
   2138   2141   2143     1   109.2900470 396.643200
   2139   2138   2141     1   109.8800469 414.216000
   2139   2138   2140     1   108.4600466 328.025600
   2140   2138   2141     1   109.8800469 414.216000
   2142   2141   2143     1   106.4000456 346.435200
   2146   2149   2150     1   109.5600471 388.275200
   2146   2149   2151     1   109.5600471 388.275200
   2146   2155   2156     1   117.6800502 383.254400
   2147   2146   2149     1   109.5600471 388.275200
   2147   2146   2155     1   108.8800464 416.726400
   2147   2146   2148     1   108.4600466 328.025600
   2148   2146   2149     1   109.5600471 388.275200
   2148   2146   2155     1   108.8800464 416.726400
   2149   2152   2153     1   109.2900470 396.643200
   2149   2152   2154     1   109.2900470 396.643200
   2150   2149   2152     1   109.8800469 414.216000
   2150   2149   2151     1   108.4600466 328.025600
   2151   2149   2152     1   109.8800469 414.216000
   2153   2152   2154     1   106.4000456 346.435200
   2157   2160   2161     1   109.5600471 388.275200
   2157   2160   2162     1   109.5600471 388.275200
   2157   2166   2167     1   117.6800502 383.254400
   2158   2157   2160     1   109.5600471 388.275200
   2158   2157   2166     1   108.8800464 416.726400
   2158   2157   2159     1   108.4600466 328.025600
   2159   2157   2160     1   109.5600471 388.275200
   2159   2157   2166     1   108.8800464 416.726400
   2160   2163   2164     1   109.2900470 396.643200
   2160   2163   2165     1   109.2900470 396.643200
   2161   2160   2163     1   109.8800469 414.216000
   2161   2160   2162     1   108.4600466 328.025600
   2162   2160   2163     1   109.8800469 414.216000
   2164   2163   2165     1   106.4000456 346.435200
   2168   2171   2172     1   109.5600471 388.275200
   2168   2171   2173     1   109.5600471 388.275200
   2168   2177   2178     1   117.6800502 383.254400
   2169   2168   2171     1   109.5600471 388.275200
   2169   2168   2177     1   108.8800464 416.726400
   2169   2168   2170     1   108.4600466 328.025600
   2170   2168   2171     1   109.5600471 388.275200
   2170   2168   2177     1   108.8800464 416.726400
   2171   2174   2175     1   109.2900470 396.643200
   2171   2174   2176     1   109.2900470 396.643200
   2172   2171   2174     1   109.8800469 414.216000
   2172   2171   2173     1   108.4600466 328.025600
   2173   2171   2174     1   109.8800469 414.216000
   2175   2174   2176     1   106.4000456 346.435200
   2179   2182   2183     1   109.5600471 388.275200
   2179   2182   2184     1   109.5600471 388.275200
   2179   2188   2189     1   117.6800502 383.254400
   2180   2179   2182     1   109.5600471 388.275200
   2180   2179   2188     1   108.8800464 416.726400
   2180   2179   2181     1   108.4600466 328.025600
   2181   2179   2182     1   109.5600471 388.275200
   2181   2179   2188     1   108.8800464 416.726400
   2182   2185   2186     1   109.2900470 396.643200
   2182   2185   2187     1   109.2900470 396.643200
   2183   2182   2185     1   109.8800469 414.216000
   2183   2182   2184     1   108.4600466 328.025600
   2184   2182   2185     1   109.8800469 414.216000
   2186   2185   2187     1   106.4000456 346.435200
   2190   2193   2194     1   109.5600471 388.275200
   2190   2193   2195     1   109.5600471 388.275200
   2190   2199   2200     1   117.6800502 383.254400
   2191   2190   2193     1   109.5600471 388.275200
   2191   2190   2199     1   108.8800464 416.726400
   2191   2190   2192     1   108.4600466 328.025600
   2192   2190   2193     1   109.5600471 388.275200
   2192   2190   2199     1   108.8800464 416.726400
   2193   2196   2197     1   109.2900470 396.643200
   2193   2196   2198     1   109.2900470 396.643200
   2194   2193   2196     1   109.8800469 414.216000
   2194   2193   2195     1   108.4600466 328.025600
   2195   2193   2196     1   109.8800469 414.216000
   2197   2196   2198     1   106.4000456 346.435200
   2201   2204   2205     1   109.5600471 388.275200
   2201   2204   2206     1   109.5600471 388.275200
   2201   2210   2211     1   117.6800502 383.254400
   2202   2201   2204     1   109.5600471 388.275200
   2202   2201   2210     1   108.8800464 416.726400
   2202   2201   2203     1   108.4600466 328.025600
   2203   2201   2204     1   109.5600471 388.275200
   2203   2201   2210     1   108.8800464 416.726400
   2204   2207   2208     1   109.2900470 396.643200
   2204   2207   2209     1   109.2900470 396.643200
   2205   2204   2207     1   109.8800469 414.216000
   2205   2204   2206     1   108.4600466 328.025600
   2206   2204   2207     1   109.8800469 414.216000
   2208   2207   2209     1   106.4000456 346.435200
   2212   2215   2216     1   109.5600471 388.275200
   2212   2215   2217     1   109.5600471 388.275200
   2212   2221   2222     1   117.6800502 383.254400
   2213   2212   2215     1   109.5600471 388.275200
   2213   2212   2221     1   108.8800464 416.726400
   2213   2212   2214     1   108.4600466 328.025600
   2214   2212   2215     1   109.5600471 388.275200
   2214   2212   2221     1   108.8800464 416.726400
   2215   2218   2219     1   109.2900470 396.643200
   2215   2218   2220     1   109.2900470 396.643200
   2216   2215   2218     1   109.8800469 414.216000
   2216   2215   2217     1   108.4600466 328.025600
   2217   2215   2218     1   109.8800469 414.216000
   2219   2218   2220     1   106.4000456 346.435200
   2223   2226   2227     1   109.5600471 388.275200
   2223   2226   2228     1   109.5600471 388.275200
   2223   2232   2233     1   117.6800502 383.254400
   2224   2223   2226     1   109.5600471 388.275200
   2224   2223   2232     1   108.8800464 416.726400
   2224   2223   2225     1   108.4600466 328.025600
   2225   2223   2226     1   109.5600471 388.275200
   2225   2223   2232     1   108.8800464 416.726400
   2226   2229   2230     1   109.2900470 396.643200
   2226   2229   2231     1   109.2900470 396.643200
   2227   2226   2229     1   109.8800469 414.216000
   2227   2226   2228     1   108.4600466 328.025600
   2228   2226   2229     1   109.8800469 414.216000
   2230   2229   2231     1   106.4000456 346.435200
   2234   2237   2238     1   109.5600471 388.275200
   2234   2237   2239     1   109.5600471 388.275200
   2234   2243   2244     1   117.6800502 383.254400
   2235   2234   2237     1   109.5600471 388.275200
   2235   2234   2243     1   108.8800464 416.726400
   2235   2234   2236     1   108.4600466 328.025600
   2236   2234   2237     1   109.5600471 388.275200
   2236   2234   2243     1   108.8800464 416.726400
   2237   2240   2241     1   109.2900470 396.643200
   2237   2240   2242     1   109.2900470 396.643200
   2238   2237   2240     1   109.8800469 414.216000
   2238   2237   2239     1   108.4600466 328.025600
   2239   2237   2240     1   109.8800469 414.216000
   2241   2240   2242     1   106.4000456 346.435200

[ dihedrals ]
;    ai     aj     ak     al funct         c0         c1         c2         c3         c4         c5
      1      4      7     15     1  180.0000771  2.0083200  2
      1      4      7     15     1  0.0000000  1.2552000  3
      1      4      7     18     1  180.0000771  2.0083200  2
      1      4      7     18     1  0.0000000  1.2552000  3
      1      8      9     30     1  180.0000771  2.0083200  2
      1      8      9     30     1  0.0000000  1.2552000  3
      1      8     12     27     1  180.0000771  2.0083200  2
      1      8     12     27     1  0.0000000  1.2552000  3
      4      1      8      9     1  180.0000771  2.0083200  2
      4      1      8      9     1  0.0000000  1.2552000  3
      4      1      8     12     1  180.0000771  2.0083200  2
      4      1      8     12     1  0.0000000  1.2552000  3
      4      7     15     21     1  180.0000771  2.0083200  2
      4      7     15     21     1  0.0000000  1.2552000  3
      4      7     18     24     1  180.0000771  2.0083200  2
      4      7     18     24     1  0.0000000  1.2552000  3
      8      1      4      7     1  0.0000000  0.6508444  3
      7     15     21     35     1  0.0000000  0.6508444  3
      7     18     24     36     1  0.0000000  0.6508444  3
      8      9     30     34     1  0.0000000  0.6508444  3
      8     12     27     33     1  0.0000000  0.6508444  3
      9      8     12     27     1  180.0000771  2.0083200  2
      9      8     12     27     1  0.0000000  1.2552000  3
      9     30     34     40     1  180.0000771  0.0000000  2
      9     30     34     89     1  0.0000000  0.2928800  2
      9     30     34     89     1  0.0000000  0.4184000  4
     12      8      9     30     1  180.0000771  2.0083200  2
     12      8      9     30     1  0.0000000  1.2552000  3
     12     27     33     37     1  180.0000771  0.0000000  2
     12     27     33     64     1  0.0000000  0.2928800  2
     12     27     33     64     1  0.0000000  0.4184000  4
     15      7     18     24     1  180.0000771  2.0083200  2
     15      7     18     24     1  0.0000000  1.2552000  3
     15     21     35     38     1  180.0000771  0.0000000  2
     15     21     35    114     1  0.0000000  0.2928800  2
     15     21     35    114     1  0.0000000  0.4184000  4
     18      7     15     21     1  180.0000771  2.0083200  2
     18      7     15     21     1  0.0000000  1.2552000  3
     18     24     36     39     1  180.0000771  0.0000000  2
     18     24     36    139     1  0.0000000  0.2928800  2
     18     24     36    139     1  0.0000000  0.4184000  4
     21     35    114     94     1  180.0000771  6.2760000  1
     21     35    114     94     1  0.0000000  0.0000000  2
     24     36    139    119     1  180.0000771  6.2760000  1
     24     36    139    119     1  0.0000000  0.0000000  2
     27     33     64     44     1  180.0000771  6.2760000  1
     27     33     64     44     1  0.0000000  0.0000000  2
     30     34     89     69     1  180.0000771  6.2760000  1
     30     34     89     69     1  0.0000000  0.0000000  2
     33     64     44     41     1  0.0000000  2.2175200  1
     33     64     44     41     1  0.0000000  0.0000000  2
     33     64     44     41     1  180.0000771  0.6276000  3
     33     64     44     41     1  180.0000771  2.0920000  4
     34     89     69     66     1  0.0000000  2.2175200  1
     34     89     69     66     1  0.0000000  0.0000000  2
     34     89     69     66     1  180.0000771  0.6276000  3
     34     89     69     66     1  180.0000771  2.0920000  4
     35    114     94     91     1  0.0000000  2.2175200  1
     35    114     94     91     1  0.0000000  0.0000000  2
     35    114     94     91     1  180.0000771  0.6276000  3
     35    114     94     91     1  180.0000771  2.0920000  4
     36    139    119    116     1  0.0000000  2.2175200  1
     36    139    119    116     1  0.0000000  0.0000000  2
     36    139    119    116     1  180.0000771  0.6276000  3
     36    139    119    116     1  180.0000771  2.0920000  4
     37     33     64     44     1  180.0000771  10.4600000  2
     38     35    114     94     1  180.0000771  10.4600000  2
     39     36    139    119     1  180.0000771  10.4600000  2
     40     34     89     69     1  180.0000771  10.4600000  2
     41     47     48     57     1  180.0000771  2.0083200  2
     41     47     48     57     1  0.0000000  1.2552000  3
     41     47     51     54     1  180.0000771  2.0083200  2
     41     47     51     54     1  0.0000000  1.2552000  3
     44     41     47     48     1  180.0000771  2.0083200  2
     44     41     47     48     1  0.0000000  1.2552000  3
     44     41     47     51     1  180.0000771  2.0083200  2
     44     41     47     51     1  0.0000000  1.2552000  3
     47     41     44     64     1  0.0000000  0.6508444  3
     47     48     57     61     1  0.0000000  0.6508444  3
     47     51     54     60     1  0.0000000  0.6508444  3
     48     47     51     54     1  180.0000771  2.0083200  2
     48     47     51     54     1  0.0000000  1.2552000  3
     48     57     61     63     1  180.0000771  0.0000000  2
     48     57     61    189     1  0.0000000  0.2928800  2
     48     57     61    189     1  0.0000000  0.4184000  4
     51     47     48     57     1  180.0000771  2.0083200  2
     51     47     48     57     1  0.0000000  1.2552000  3
     51     54     60     62     1  180.0000771  0.0000000  2
     51     54     60    164     1  0.0000000  0.2928800  2
     51     54     60    164     1  0.0000000  0.4184000  4
     54     60    164    144     1  180.0000771  6.2760000  1
     54     60    164    144     1  0.0000000  0.0000000  2
     57     61    189    169     1  180.0000771  6.2760000  1
     57     61    189    169     1  0.0000000  0.0000000  2
     60    164    144    141     1  0.0000000  2.2175200  1
     60    164    144    141     1  0.0000000  0.0000000  2
     60    164    144    141     1  180.0000771  0.6276000  3
     60    164    144    141     1  180.0000771  2.0920000  4
     61    189    169    166     1  0.0000000  2.2175200  1
     61    189    169    166     1  0.0000000  0.0000000  2
     61    189    169    166     1  180.0000771  0.6276000  3
     61    189    169    166     1  180.0000771  2.0920000  4
     62     60    164    144     1  180.0000771  10.4600000  2
     63     61    189    169     1  180.0000771  10.4600000  2
     66     72     73     82     1  180.0000771  2.0083200  2
     66     72     73     82     1  0.0000000  1.2552000  3
     66     72     76     79     1  180.0000771  2.0083200  2
     66     72     76     79     1  0.0000000  1.2552000  3
     69     66     72     73     1  180.0000771  2.0083200  2
     69     66     72     73     1  0.0000000  1.2552000  3
     69     66     72     76     1  180.0000771  2.0083200  2
     69     66     72     76     1  0.0000000  1.2552000  3
     72     66     69     89     1  0.0000000  0.6508444  3
     72     73     82     86     1  0.0000000  0.6508444  3
     72     76     79     85     1  0.0000000  0.6508444  3
     73     72     76     79     1  180.0000771  2.0083200  2
     73     72     76     79     1  0.0000000  1.2552000  3
     73     82     86     88     1  180.0000771  0.0000000  2
     73     82     86    239     1  0.0000000  0.2928800  2
     73     82     86    239     1  0.0000000  0.4184000  4
     76     72     73     82     1  180.0000771  2.0083200  2
     76     72     73     82     1  0.0000000  1.2552000  3
     76     79     85     87     1  180.0000771  0.0000000  2
     76     79     85    214     1  0.0000000  0.2928800  2
     76     79     85    214     1  0.0000000  0.4184000  4
     79     85    214    194     1  180.0000771  6.2760000  1
     79     85    214    194     1  0.0000000  0.0000000  2
     82     86    239    219     1  180.0000771  6.2760000  1
     82     86    239    219     1  0.0000000  0.0000000  2
     85    214    194    191     1  0.0000000  2.2175200  1
     85    214    194    191     1  0.0000000  0.0000000  2
     85    214    194    191     1  180.0000771  0.6276000  3
     85    214    194    191     1  180.0000771  2.0920000  4
     86    239    219    216     1  0.0000000  2.2175200  1
     86    239    219    216     1  0.0000000  0.0000000  2
     86    239    219    216     1  180.0000771  0.6276000  3
     86    239    219    216     1  180.0000771  2.0920000  4
     87     85    214    194     1  180.0000771  10.4600000  2
     88     86    239    219     1  180.0000771  10.4600000  2
     91     97     98    107     1  180.0000771  2.0083200  2
     91     97     98    107     1  0.0000000  1.2552000  3
     91     97    101    104     1  180.0000771  2.0083200  2
     91     97    101    104     1  0.0000000  1.2552000  3
     94     91     97     98     1  180.0000771  2.0083200  2
     94     91     97     98     1  0.0000000  1.2552000  3
     94     91     97    101     1  180.0000771  2.0083200  2
     94     91     97    101     1  0.0000000  1.2552000  3
     97     91     94    114     1  0.0000000  0.6508444  3
     97     98    107    111     1  0.0000000  0.6508444  3
     97    101    104    110     1  0.0000000  0.6508444  3
     98     97    101    104     1  180.0000771  2.0083200  2
     98     97    101    104     1  0.0000000  1.2552000  3
     98    107    111    113     1  180.0000771  0.0000000  2
     98    107    111    289     1  0.0000000  0.2928800  2
     98    107    111    289     1  0.0000000  0.4184000  4
    101     97     98    107     1  180.0000771  2.0083200  2
    101     97     98    107     1  0.0000000  1.2552000  3
    101    104    110    112     1  180.0000771  0.0000000  2
    101    104    110    264     1  0.0000000  0.2928800  2
    101    104    110    264     1  0.0000000  0.4184000  4
    104    110    264    244     1  180.0000771  6.2760000  1
    104    110    264    244     1  0.0000000  0.0000000  2
    107    111    289    269     1  180.0000771  6.2760000  1
    107    111    289    269     1  0.0000000  0.0000000  2
    110    264    244    241     1  0.0000000  2.2175200  1
    110    264    244    241     1  0.0000000  0.0000000  2
    110    264    244    241     1  180.0000771  0.6276000  3
    110    264    244    241     1  180.0000771  2.0920000  4
    111    289    269    266     1  0.0000000  2.2175200  1
    111    289    269    266     1  0.0000000  0.0000000  2
    111    289    269    266     1  180.0000771  0.6276000  3
    111    289    269    266     1  180.0000771  2.0920000  4
    112    110    264    244     1  180.0000771  10.4600000  2
    113    111    289    269     1  180.0000771  10.4600000  2
    116    122    123    132     1  180.0000771  2.0083200  2
    116    122    123    132     1  0.0000000  1.2552000  3
    116    122    126    129     1  180.0000771  2.0083200  2
    116    122    126    129     1  0.0000000  1.2552000  3
    119    116    122    123     1  180.0000771  2.0083200  2
    119    116    122    123     1  0.0000000  1.2552000  3
    119    116    122    126     1  180.0000771  2.0083200  2
    119    116    122    126     1  0.0000000  1.2552000  3
    122    116    119    139     1  0.0000000  0.6508444  3
    122    123    132    136     1  0.0000000  0.6508444  3
    122    126    129    135     1  0.0000000  0.6508444  3
    123    122    126    129     1  180.0000771  2.0083200  2
    123    122    126    129     1  0.0000000  1.2552000  3
    123    132    136    138     1  180.0000771  0.0000000  2
    123    132    136    339     1  0.0000000  0.2928800  2
    123    132    136    339     1  0.0000000  0.4184000  4
    126    122    123    132     1  180.0000771  2.0083200  2
    126    122    123    132     1  0.0000000  1.2552000  3
    126    129    135    137     1  180.0000771  0.0000000  2
    126    129    135    314     1  0.0000000  0.2928800  2
    126    129    135    314     1  0.0000000  0.4184000  4
    129    135    314    294     1  180.0000771  6.2760000  1
    129    135    314    294     1  0.0000000  0.0000000  2
    132    136    339    319     1  180.0000771  6.2760000  1
    132    136    339    319     1  0.0000000  0.0000000  2
    135    314    294    291     1  0.0000000  2.2175200  1
    135    314    294    291     1  0.0000000  0.0000000  2
    135    314    294    291     1  180.0000771  0.6276000  3
    135    314    294    291     1  180.0000771  2.0920000  4
    136    339    319    316     1  0.0000000  2.2175200  1
    136    339    319    316     1  0.0000000  0.0000000  2
    136    339    319    316     1  180.0000771  0.6276000  3
    136    339    319    316     1  180.0000771  2.0920000  4
    137    135    314    294     1  180.0000771  10.4600000  2
    138    136    339    319     1  180.0000771  10.4600000  2
    141    147    148    157     1  180.0000771  2.0083200  2
    141    147    148    157     1  0.0000000  1.2552000  3
    141    147    151    154     1  180.0000771  2.0083200  2
    141    147    151    154     1  0.0000000  1.2552000  3
    144    141    147    148     1  180.0000771  2.0083200  2
    144    141    147    148     1  0.0000000  1.2552000  3
    144    141    147    151     1  180.0000771  2.0083200  2
    144    141    147    151     1  0.0000000  1.2552000  3
    147    141    144    164     1  0.0000000  0.6508444  3
    147    148    157    161     1  0.0000000  0.6508444  3
    147    151    154    160     1  0.0000000  0.6508444  3
    148    147    151    154     1  180.0000771  2.0083200  2
    148    147    151    154     1  0.0000000  1.2552000  3
    148    157    161    163     1  180.0000771  0.0000000  2
    148    157    161    389     1  0.0000000  0.2928800  2
    148    157    161    389     1  0.0000000  0.4184000  4
    151    147    148    157     1  180.0000771  2.0083200  2
    151    147    148    157     1  0.0000000  1.2552000  3
    151    154    160    162     1  180.0000771  0.0000000  2
    151    154    160    364     1  0.0000000  0.2928800  2
    151    154    160    364     1  0.0000000  0.4184000  4
    154    160    364    344     1  180.0000771  6.2760000  1
    154    160    364    344     1  0.0000000  0.0000000  2
    157    161    389    369     1  180.0000771  6.2760000  1
    157    161    389    369     1  0.0000000  0.0000000  2
    160    364    344    341     1  0.0000000  2.2175200  1
    160    364    344    341     1  0.0000000  0.0000000  2
    160    364    344    341     1  180.0000771  0.6276000  3
    160    364    344    341     1  180.0000771  2.0920000  4
    161    389    369    366     1  0.0000000  2.2175200  1
    161    389    369    366     1  0.0000000  0.0000000  2
    161    389    369    366     1  180.0000771  0.6276000  3
    161    389    369    366     1  180.0000771  2.0920000  4
    162    160    364    344     1  180.0000771  10.4600000  2
    163    161    389    369     1  180.0000771  10.4600000  2
    166    172    173    182     1  180.0000771  2.0083200  2
    166    172    173    182     1  0.0000000  1.2552000  3
    166    172    176    179     1  180.0000771  2.0083200  2
    166    172    176    179     1  0.0000000  1.2552000  3
    169    166    172    173     1  180.0000771  2.0083200  2
    169    166    172    173     1  0.0000000  1.2552000  3
    169    166    172    176     1  180.0000771  2.0083200  2
    169    166    172    176     1  0.0000000  1.2552000  3
    172    166    169    189     1  0.0000000  0.6508444  3
    172    173    182    186     1  0.0000000  0.6508444  3
    172    176    179    185     1  0.0000000  0.6508444  3
    173    172    176    179     1  180.0000771  2.0083200  2
    173    172    176    179     1  0.0000000  1.2552000  3
    173    182    186    188     1  180.0000771  0.0000000  2
    173    182    186    439     1  0.0000000  0.2928800  2
    173    182    186    439     1  0.0000000  0.4184000  4
    176    172    173    182     1  180.0000771  2.0083200  2
    176    172    173    182     1  0.0000000  1.2552000  3
    176    179    185    187     1  180.0000771  0.0000000  2
    176    179    185    414     1  0.0000000  0.2928800  2
    176    179    185    414     1  0.0000000  0.4184000  4
    179    185    414    394     1  180.0000771  6.2760000  1
    179    185    414    394     1  0.0000000  0.0000000  2
    182    186    439    419     1  180.0000771  6.2760000  1
    182    186    439    419     1  0.0000000  0.0000000  2
    185    414    394    391     1  0.0000000  2.2175200  1
    185    414    394    391     1  0.0000000  0.0000000  2
    185    414    394    391     1  180.0000771  0.6276000  3
    185    414    394    391     1  180.0000771  2.0920000  4
    186    439    419    416     1  0.0000000  2.2175200  1
    186    439    419    416     1  0.0000000  0.0000000  2
    186    439    419    416     1  180.0000771  0.6276000  3
    186    439    419    416     1  180.0000771  2.0920000  4
    187    185    414    394     1  180.0000771  10.4600000  2
    188    186    439    419     1  180.0000771  10.4600000  2
    191    197    198    207     1  180.0000771  2.0083200  2
    191    197    198    207     1  0.0000000  1.2552000  3
    191    197    201    204     1  180.0000771  2.0083200  2
    191    197    201    204     1  0.0000000  1.2552000  3
    194    191    197    198     1  180.0000771  2.0083200  2
    194    191    197    198     1  0.0000000  1.2552000  3
    194    191    197    201     1  180.0000771  2.0083200  2
    194    191    197    201     1  0.0000000  1.2552000  3
    197    191    194    214     1  0.0000000  0.6508444  3
    197    198    207    211     1  0.0000000  0.6508444  3
    197    201    204    210     1  0.0000000  0.6508444  3
    198    197    201    204     1  180.0000771  2.0083200  2
    198    197    201    204     1  0.0000000  1.2552000  3
    198    207    211    213     1  180.0000771  0.0000000  2
    198    207    211    489     1  0.0000000  0.2928800  2
    198    207    211    489     1  0.0000000  0.4184000  4
    201    197    198    207     1  180.0000771  2.0083200  2
    201    197    198    207     1  0.0000000  1.2552000  3
    201    204    210    212     1  180.0000771  0.0000000  2
    201    204    210    464     1  0.0000000  0.2928800  2
    201    204    210    464     1  0.0000000  0.4184000  4
    204    210    464    444     1  180.0000771  6.2760000  1
    204    210    464    444     1  0.0000000  0.0000000  2
    207    211    489    469     1  180.0000771  6.2760000  1
    207    211    489    469     1  0.0000000  0.0000000  2
    210    464    444    441     1  0.0000000  2.2175200  1
    210    464    444    441     1  0.0000000  0.0000000  2
    210    464    444    441     1  180.0000771  0.6276000  3
    210    464    444    441     1  180.0000771  2.0920000  4
    211    489    469    466     1  0.0000000  2.2175200  1
    211    489    469    466     1  0.0000000  0.0000000  2
    211    489    469    466     1  180.0000771  0.6276000  3
    211    489    469    466     1  180.0000771  2.0920000  4
    212    210    464    444     1  180.0000771  10.4600000  2
    213    211    489    469     1  180.0000771  10.4600000  2
    216    222    223    232     1  180.0000771  2.0083200  2
    216    222    223    232     1  0.0000000  1.2552000  3
    216    222    226    229     1  180.0000771  2.0083200  2
    216    222    226    229     1  0.0000000  1.2552000  3
    219    216    222    223     1  180.0000771  2.0083200  2
    219    216    222    223     1  0.0000000  1.2552000  3
    219    216    222    226     1  180.0000771  2.0083200  2
    219    216    222    226     1  0.0000000  1.2552000  3
    222    216    219    239     1  0.0000000  0.6508444  3
    222    223    232    236     1  0.0000000  0.6508444  3
    222    226    229    235     1  0.0000000  0.6508444  3
    223    222    226    229     1  180.0000771  2.0083200  2
    223    222    226    229     1  0.0000000  1.2552000  3
    223    232    236    238     1  180.0000771  0.0000000  2
    223    232    236    539     1  0.0000000  0.2928800  2
    223    232    236    539     1  0.0000000  0.4184000  4
    226    222    223    232     1  180.0000771  2.0083200  2
    226    222    223    232     1  0.0000000  1.2552000  3
    226    229    235    237     1  180.0000771  0.0000000  2
    226    229    235    514     1  0.0000000  0.2928800  2
    226    229    235    514     1  0.0000000  0.4184000  4
    229    235    514    494     1  180.0000771  6.2760000  1
    229    235    514    494     1  0.0000000  0.0000000  2
    232    236    539    519     1  180.0000771  6.2760000  1
    232    236    539    519     1  0.0000000  0.0000000  2
    235    514    494    491     1  0.0000000  2.2175200  1
    235    514    494    491     1  0.0000000  0.0000000  2
    235    514    494    491     1  180.0000771  0.6276000  3
    235    514    494    491     1  180.0000771  2.0920000  4
    236    539    519    516     1  0.0000000  2.2175200  1
    236    539    519    516     1  0.0000000  0.0000000  2
    236    539    519    516     1  180.0000771  0.6276000  3
    236    539    519    516     1  180.0000771  2.0920000  4
    237    235    514    494     1  180.0000771  10.4600000  2
    238    236    539    519     1  180.0000771  10.4600000  2
    241    247    248    257     1  180.0000771  2.0083200  2
    241    247    248    257     1  0.0000000  1.2552000  3
    241    247    251    254     1  180.0000771  2.0083200  2
    241    247    251    254     1  0.0000000  1.2552000  3
    244    241    247    248     1  180.0000771  2.0083200  2
    244    241    247    248     1  0.0000000  1.2552000  3
    244    241    247    251     1  180.0000771  2.0083200  2
    244    241    247    251     1  0.0000000  1.2552000  3
    247    241    244    264     1  0.0000000  0.6508444  3
    247    248    257    261     1  0.0000000  0.6508444  3
    247    251    254    260     1  0.0000000  0.6508444  3
    248    247    251    254     1  180.0000771  2.0083200  2
    248    247    251    254     1  0.0000000  1.2552000  3
    248    257    261    263     1  180.0000771  0.0000000  2
    248    257    261    589     1  0.0000000  0.2928800  2
    248    257    261    589     1  0.0000000  0.4184000  4
    251    247    248    257     1  180.0000771  2.0083200  2
    251    247    248    257     1  0.0000000  1.2552000  3
    251    254    260    262     1  180.0000771  0.0000000  2
    251    254    260    564     1  0.0000000  0.2928800  2
    251    254    260    564     1  0.0000000  0.4184000  4
    254    260    564    544     1  180.0000771  6.2760000  1
    254    260    564    544     1  0.0000000  0.0000000  2
    257    261    589    569     1  180.0000771  6.2760000  1
    257    261    589    569     1  0.0000000  0.0000000  2
    260    564    544    541     1  0.0000000  2.2175200  1
    260    564    544    541     1  0.0000000  0.0000000  2
    260    564    544    541     1  180.0000771  0.6276000  3
    260    564    544    541     1  180.0000771  2.0920000  4
    261    589    569    566     1  0.0000000  2.2175200  1
    261    589    569    566     1  0.0000000  0.0000000  2
    261    589    569    566     1  180.0000771  0.6276000  3
    261    589    569    566     1  180.0000771  2.0920000  4
    262    260    564    544     1  180.0000771  10.4600000  2
    263    261    589    569     1  180.0000771  10.4600000  2
    266    272    273    282     1  180.0000771  2.0083200  2
    266    272    273    282     1  0.0000000  1.2552000  3
    266    272    276    279     1  180.0000771  2.0083200  2
    266    272    276    279     1  0.0000000  1.2552000  3
    269    266    272    273     1  180.0000771  2.0083200  2
    269    266    272    273     1  0.0000000  1.2552000  3
    269    266    272    276     1  180.0000771  2.0083200  2
    269    266    272    276     1  0.0000000  1.2552000  3
    272    266    269    289     1  0.0000000  0.6508444  3
    272    273    282    286     1  0.0000000  0.6508444  3
    272    276    279    285     1  0.0000000  0.6508444  3
    273    272    276    279     1  180.0000771  2.0083200  2
    273    272    276    279     1  0.0000000  1.2552000  3
    273    282    286    288     1  180.0000771  0.0000000  2
    273    282    286    639     1  0.0000000  0.2928800  2
    273    282    286    639     1  0.0000000  0.4184000  4
    276    272    273    282     1  180.0000771  2.0083200  2
    276    272    273    282     1  0.0000000  1.2552000  3
    276    279    285    287     1  180.0000771  0.0000000  2
    276    279    285    614     1  0.0000000  0.2928800  2
    276    279    285    614     1  0.0000000  0.4184000  4
    279    285    614    594     1  180.0000771  6.2760000  1
    279    285    614    594     1  0.0000000  0.0000000  2
    282    286    639    619     1  180.0000771  6.2760000  1
    282    286    639    619     1  0.0000000  0.0000000  2
    285    614    594    591     1  0.0000000  2.2175200  1
    285    614    594    591     1  0.0000000  0.0000000  2
    285    614    594    591     1  180.0000771  0.6276000  3
    285    614    594    591     1  180.0000771  2.0920000  4
    286    639    619    616     1  0.0000000  2.2175200  1
    286    639    619    616     1  0.0000000  0.0000000  2
    286    639    619    616     1  180.0000771  0.6276000  3
    286    639    619    616     1  180.0000771  2.0920000  4
    287    285    614    594     1  180.0000771  10.4600000  2
    288    286    639    619     1  180.0000771  10.4600000  2
    291    297    298    307     1  180.0000771  2.0083200  2
    291    297    298    307     1  0.0000000  1.2552000  3
    291    297    301    304     1  180.0000771  2.0083200  2
    291    297    301    304     1  0.0000000  1.2552000  3
    294    291    297    298     1  180.0000771  2.0083200  2
    294    291    297    298     1  0.0000000  1.2552000  3
    294    291    297    301     1  180.0000771  2.0083200  2
    294    291    297    301     1  0.0000000  1.2552000  3
    297    291    294    314     1  0.0000000  0.6508444  3
    297    298    307    311     1  0.0000000  0.6508444  3
    297    301    304    310     1  0.0000000  0.6508444  3
    298    297    301    304     1  180.0000771  2.0083200  2
    298    297    301    304     1  0.0000000  1.2552000  3
    298    307    311    313     1  180.0000771  0.0000000  2
    298    307    311    689     1  0.0000000  0.2928800  2
    298    307    311    689     1  0.0000000  0.4184000  4
    301    297    298    307     1  180.0000771  2.0083200  2
    301    297    298    307     1  0.0000000  1.2552000  3
    301    304    310    312     1  180.0000771  0.0000000  2
    301    304    310    664     1  0.0000000  0.2928800  2
    301    304    310    664     1  0.0000000  0.4184000  4
    304    310    664    644     1  180.0000771  6.2760000  1
    304    310    664    644     1  0.0000000  0.0000000  2
    307    311    689    669     1  180.0000771  6.2760000  1
    307    311    689    669     1  0.0000000  0.0000000  2
    310    664    644    641     1  0.0000000  2.2175200  1
    310    664    644    641     1  0.0000000  0.0000000  2
    310    664    644    641     1  180.0000771  0.6276000  3
    310    664    644    641     1  180.0000771  2.0920000  4
    311    689    669    666     1  0.0000000  2.2175200  1
    311    689    669    666     1  0.0000000  0.0000000  2
    311    689    669    666     1  180.0000771  0.6276000  3
    311    689    669    666     1  180.0000771  2.0920000  4
    312    310    664    644     1  180.0000771  10.4600000  2
    313    311    689    669     1  180.0000771  10.4600000  2
    316    322    323    332     1  180.0000771  2.0083200  2
    316    322    323    332     1  0.0000000  1.2552000  3
    316    322    326    329     1  180.0000771  2.0083200  2
    316    322    326    329     1  0.0000000  1.2552000  3
    319    316    322    323     1  180.0000771  2.0083200  2
    319    316    322    323     1  0.0000000  1.2552000  3
    319    316    322    326     1  180.0000771  2.0083200  2
    319    316    322    326     1  0.0000000  1.2552000  3
    322    316    319    339     1  0.0000000  0.6508444  3
    322    323    332    336     1  0.0000000  0.6508444  3
    322    326    329    335     1  0.0000000  0.6508444  3
    323    322    326    329     1  180.0000771  2.0083200  2
    323    322    326    329     1  0.0000000  1.2552000  3
    323    332    336    338     1  180.0000771  0.0000000  2
    323    332    336    739     1  0.0000000  0.2928800  2
    323    332    336    739     1  0.0000000  0.4184000  4
    326    322    323    332     1  180.0000771  2.0083200  2
    326    322    323    332     1  0.0000000  1.2552000  3
    326    329    335    337     1  180.0000771  0.0000000  2
    326    329    335    714     1  0.0000000  0.2928800  2
    326    329    335    714     1  0.0000000  0.4184000  4
    329    335    714    694     1  180.0000771  6.2760000  1
    329    335    714    694     1  0.0000000  0.0000000  2
    332    336    739    719     1  180.0000771  6.2760000  1
    332    336    739    719     1  0.0000000  0.0000000  2
    335    714    694    691     1  0.0000000  2.2175200  1
    335    714    694    691     1  0.0000000  0.0000000  2
    335    714    694    691     1  180.0000771  0.6276000  3
    335    714    694    691     1  180.0000771  2.0920000  4
    336    739    719    716     1  0.0000000  2.2175200  1
    336    739    719    716     1  0.0000000  0.0000000  2
    336    739    719    716     1  180.0000771  0.6276000  3
    336    739    719    716     1  180.0000771  2.0920000  4
    337    335    714    694     1  180.0000771  10.4600000  2
    338    336    739    719     1  180.0000771  10.4600000  2
    341    347    348    357     1  180.0000771  2.0083200  2
    341    347    348    357     1  0.0000000  1.2552000  3
    341    347    351    354     1  180.0000771  2.0083200  2
    341    347    351    354     1  0.0000000  1.2552000  3
    344    341    347    348     1  180.0000771  2.0083200  2
    344    341    347    348     1  0.0000000  1.2552000  3
    344    341    347    351     1  180.0000771  2.0083200  2
    344    341    347    351     1  0.0000000  1.2552000  3
    347    341    344    364     1  0.0000000  0.6508444  3
    347    348    357    361     1  0.0000000  0.6508444  3
    347    351    354    360     1  0.0000000  0.6508444  3
    348    347    351    354     1  180.0000771  2.0083200  2
    348    347    351    354     1  0.0000000  1.2552000  3
    348    357    361    363     1  180.0000771  0.0000000  2
    348    357    361    789     1  0.0000000  0.2928800  2
    348    357    361    789     1  0.0000000  0.4184000  4
    351    347    348    357     1  180.0000771  2.0083200  2
    351    347    348    357     1  0.0000000  1.2552000  3
    351    354    360    362     1  180.0000771  0.0000000  2
    351    354    360    764     1  0.0000000  0.2928800  2
    351    354    360    764     1  0.0000000  0.4184000  4
    354    360    764    744     1  180.0000771  6.2760000  1
    354    360    764    744     1  0.0000000  0.0000000  2
    357    361    789    769     1  180.0000771  6.2760000  1
    357    361    789    769     1  0.0000000  0.0000000  2
    360    764    744    741     1  0.0000000  2.2175200  1
    360    764    744    741     1  0.0000000  0.0000000  2
    360    764    744    741     1  180.0000771  0.6276000  3
    360    764    744    741     1  180.0000771  2.0920000  4
    361    789    769    766     1  0.0000000  2.2175200  1
    361    789    769    766     1  0.0000000  0.0000000  2
    361    789    769    766     1  180.0000771  0.6276000  3
    361    789    769    766     1  180.0000771  2.0920000  4
    362    360    764    744     1  180.0000771  10.4600000  2
    363    361    789    769     1  180.0000771  10.4600000  2
    366    372    373    382     1  180.0000771  2.0083200  2
    366    372    373    382     1  0.0000000  1.2552000  3
    366    372    376    379     1  180.0000771  2.0083200  2
    366    372    376    379     1  0.0000000  1.2552000  3
    369    366    372    373     1  180.0000771  2.0083200  2
    369    366    372    373     1  0.0000000  1.2552000  3
    369    366    372    376     1  180.0000771  2.0083200  2
    369    366    372    376     1  0.0000000  1.2552000  3
    372    366    369    389     1  0.0000000  0.6508444  3
    372    373    382    386     1  0.0000000  0.6508444  3
    372    376    379    385     1  0.0000000  0.6508444  3
    373    372    376    379     1  180.0000771  2.0083200  2
    373    372    376    379     1  0.0000000  1.2552000  3
    373    382    386    388     1  180.0000771  0.0000000  2
    373    382    386    839     1  0.0000000  0.2928800  2
    373    382    386    839     1  0.0000000  0.4184000  4
    376    372    373    382     1  180.0000771  2.0083200  2
    376    372    373    382     1  0.0000000  1.2552000  3
    376    379    385    387     1  180.0000771  0.0000000  2
    376    379    385    814     1  0.0000000  0.2928800  2
    376    379    385    814     1  0.0000000  0.4184000  4
    379    385    814    794     1  180.0000771  6.2760000  1
    379    385    814    794     1  0.0000000  0.0000000  2
    382    386    839    819     1  180.0000771  6.2760000  1
    382    386    839    819     1  0.0000000  0.0000000  2
    385    814    794    791     1  0.0000000  2.2175200  1
    385    814    794    791     1  0.0000000  0.0000000  2
    385    814    794    791     1  180.0000771  0.6276000  3
    385    814    794    791     1  180.0000771  2.0920000  4
    386    839    819    816     1  0.0000000  2.2175200  1
    386    839    819    816     1  0.0000000  0.0000000  2
    386    839    819    816     1  180.0000771  0.6276000  3
    386    839    819    816     1  180.0000771  2.0920000  4
    387    385    814    794     1  180.0000771  10.4600000  2
    388    386    839    819     1  180.0000771  10.4600000  2
    391    397    398    407     1  180.0000771  2.0083200  2
    391    397    398    407     1  0.0000000  1.2552000  3
    391    397    401    404     1  180.0000771  2.0083200  2
    391    397    401    404     1  0.0000000  1.2552000  3
    394    391    397    398     1  180.0000771  2.0083200  2
    394    391    397    398     1  0.0000000  1.2552000  3
    394    391    397    401     1  180.0000771  2.0083200  2
    394    391    397    401     1  0.0000000  1.2552000  3
    397    391    394    414     1  0.0000000  0.6508444  3
    397    398    407    411     1  0.0000000  0.6508444  3
    397    401    404    410     1  0.0000000  0.6508444  3
    398    397    401    404     1  180.0000771  2.0083200  2
    398    397    401    404     1  0.0000000  1.2552000  3
    398    407    411    413     1  180.0000771  0.0000000  2
    398    407    411    889     1  0.0000000  0.2928800  2
    398    407    411    889     1  0.0000000  0.4184000  4
    401    397    398    407     1  180.0000771  2.0083200  2
    401    397    398    407     1  0.0000000  1.2552000  3
    401    404    410    412     1  180.0000771  0.0000000  2
    401    404    410    864     1  0.0000000  0.2928800  2
    401    404    410    864     1  0.0000000  0.4184000  4
    404    410    864    844     1  180.0000771  6.2760000  1
    404    410    864    844     1  0.0000000  0.0000000  2
    407    411    889    869     1  180.0000771  6.2760000  1
    407    411    889    869     1  0.0000000  0.0000000  2
    410    864    844    841     1  0.0000000  2.2175200  1
    410    864    844    841     1  0.0000000  0.0000000  2
    410    864    844    841     1  180.0000771  0.6276000  3
    410    864    844    841     1  180.0000771  2.0920000  4
    411    889    869    866     1  0.0000000  2.2175200  1
    411    889    869    866     1  0.0000000  0.0000000  2
    411    889    869    866     1  180.0000771  0.6276000  3
    411    889    869    866     1  180.0000771  2.0920000  4
    412    410    864    844     1  180.0000771  10.4600000  2
    413    411    889    869     1  180.0000771  10.4600000  2
    416    422    423    432     1  180.0000771  2.0083200  2
    416    422    423    432     1  0.0000000  1.2552000  3
    416    422    426    429     1  180.0000771  2.0083200  2
    416    422    426    429     1  0.0000000  1.2552000  3
    419    416    422    423     1  180.0000771  2.0083200  2
    419    416    422    423     1  0.0000000  1.2552000  3
    419    416    422    426     1  180.0000771  2.0083200  2
    419    416    422    426     1  0.0000000  1.2552000  3
    422    416    419    439     1  0.0000000  0.6508444  3
    422    423    432    436     1  0.0000000  0.6508444  3
    422    426    429    435     1  0.0000000  0.6508444  3
    423    422    426    429     1  180.0000771  2.0083200  2
    423    422    426    429     1  0.0000000  1.2552000  3
    423    432    436    438     1  180.0000771  0.0000000  2
    423    432    436    939     1  0.0000000  0.2928800  2
    423    432    436    939     1  0.0000000  0.4184000  4
    426    422    423    432     1  180.0000771  2.0083200  2
    426    422    423    432     1  0.0000000  1.2552000  3
    426    429    435    437     1  180.0000771  0.0000000  2
    426    429    435    914     1  0.0000000  0.2928800  2
    426    429    435    914     1  0.0000000  0.4184000  4
    429    435    914    894     1  180.0000771  6.2760000  1
    429    435    914    894     1  0.0000000  0.0000000  2
    432    436    939    919     1  180.0000771  6.2760000  1
    432    436    939    919     1  0.0000000  0.0000000  2
    435    914    894    891     1  0.0000000  2.2175200  1
    435    914    894    891     1  0.0000000  0.0000000  2
    435    914    894    891     1  180.0000771  0.6276000  3
    435    914    894    891     1  180.0000771  2.0920000  4
    436    939    919    916     1  0.0000000  2.2175200  1
    436    939    919    916     1  0.0000000  0.0000000  2
    436    939    919    916     1  180.0000771  0.6276000  3
    436    939    919    916     1  180.0000771  2.0920000  4
    437    435    914    894     1  180.0000771  10.4600000  2
    438    436    939    919     1  180.0000771  10.4600000  2
    441    447    448    457     1  180.0000771  2.0083200  2
    441    447    448    457     1  0.0000000  1.2552000  3
    441    447    451    454     1  180.0000771  2.0083200  2
    441    447    451    454     1  0.0000000  1.2552000  3
    444    441    447    448     1  180.0000771  2.0083200  2
    444    441    447    448     1  0.0000000  1.2552000  3
    444    441    447    451     1  180.0000771  2.0083200  2
    444    441    447    451     1  0.0000000  1.2552000  3
    447    441    444    464     1  0.0000000  0.6508444  3
    447    448    457    461     1  0.0000000  0.6508444  3
    447    451    454    460     1  0.0000000  0.6508444  3
    448    447    451    454     1  180.0000771  2.0083200  2
    448    447    451    454     1  0.0000000  1.2552000  3
    448    457    461    463     1  180.0000771  0.0000000  2
    448    457    461    989     1  0.0000000  0.2928800  2
    448    457    461    989     1  0.0000000  0.4184000  4
    451    447    448    457     1  180.0000771  2.0083200  2
    451    447    448    457     1  0.0000000  1.2552000  3
    451    454    460    462     1  180.0000771  0.0000000  2
    451    454    460    964     1  0.0000000  0.2928800  2
    451    454    460    964     1  0.0000000  0.4184000  4
    454    460    964    944     1  180.0000771  6.2760000  1
    454    460    964    944     1  0.0000000  0.0000000  2
    457    461    989    969     1  180.0000771  6.2760000  1
    457    461    989    969     1  0.0000000  0.0000000  2
    460    964    944    941     1  0.0000000  2.2175200  1
    460    964    944    941     1  0.0000000  0.0000000  2
    460    964    944    941     1  180.0000771  0.6276000  3
    460    964    944    941     1  180.0000771  2.0920000  4
    461    989    969    966     1  0.0000000  2.2175200  1
    461    989    969    966     1  0.0000000  0.0000000  2
    461    989    969    966     1  180.0000771  0.6276000  3
    461    989    969    966     1  180.0000771  2.0920000  4
    462    460    964    944     1  180.0000771  10.4600000  2
    463    461    989    969     1  180.0000771  10.4600000  2
    466    472    473    482     1  180.0000771  2.0083200  2
    466    472    473    482     1  0.0000000  1.2552000  3
    466    472    476    479     1  180.0000771  2.0083200  2
    466    472    476    479     1  0.0000000  1.2552000  3
    469    466    472    473     1  180.0000771  2.0083200  2
    469    466    472    473     1  0.0000000  1.2552000  3
    469    466    472    476     1  180.0000771  2.0083200  2
    469    466    472    476     1  0.0000000  1.2552000  3
    472    466    469    489     1  0.0000000  0.6508444  3
    472    473    482    486     1  0.0000000  0.6508444  3
    472    476    479    485     1  0.0000000  0.6508444  3
    473    472    476    479     1  180.0000771  2.0083200  2
    473    472    476    479     1  0.0000000  1.2552000  3
    473    482    486    488     1  180.0000771  0.0000000  2
    473    482    486   1039     1  0.0000000  0.2928800  2
    473    482    486   1039     1  0.0000000  0.4184000  4
    476    472    473    482     1  180.0000771  2.0083200  2
    476    472    473    482     1  0.0000000  1.2552000  3
    476    479    485    487     1  180.0000771  0.0000000  2
    476    479    485   1014     1  0.0000000  0.2928800  2
    476    479    485   1014     1  0.0000000  0.4184000  4
    479    485   1014    994     1  180.0000771  6.2760000  1
    479    485   1014    994     1  0.0000000  0.0000000  2
    482    486   1039   1019     1  180.0000771  6.2760000  1
    482    486   1039   1019     1  0.0000000  0.0000000  2
    485   1014    994    991     1  0.0000000  2.2175200  1
    485   1014    994    991     1  0.0000000  0.0000000  2
    485   1014    994    991     1  180.0000771  0.6276000  3
    485   1014    994    991     1  180.0000771  2.0920000  4
    486   1039   1019   1016     1  0.0000000  2.2175200  1
    486   1039   1019   1016     1  0.0000000  0.0000000  2
    486   1039   1019   1016     1  180.0000771  0.6276000  3
    486   1039   1019   1016     1  180.0000771  2.0920000  4
    487    485   1014    994     1  180.0000771  10.4600000  2
    488    486   1039   1019     1  180.0000771  10.4600000  2
    491    497    498    507     1  180.0000771  2.0083200  2
    491    497    498    507     1  0.0000000  1.2552000  3
    491    497    501    504     1  180.0000771  2.0083200  2
    491    497    501    504     1  0.0000000  1.2552000  3
    494    491    497    498     1  180.0000771  2.0083200  2
    494    491    497    498     1  0.0000000  1.2552000  3
    494    491    497    501     1  180.0000771  2.0083200  2
    494    491    497    501     1  0.0000000  1.2552000  3
    497    491    494    514     1  0.0000000  0.6508444  3
    497    498    507    511     1  0.0000000  0.6508444  3
    497    501    504    510     1  0.0000000  0.6508444  3
    498    497    501    504     1  180.0000771  2.0083200  2
    498    497    501    504     1  0.0000000  1.2552000  3
    498    507    511    513     1  180.0000771  0.0000000  2
    498    507    511   1089     1  0.0000000  0.2928800  2
    498    507    511   1089     1  0.0000000  0.4184000  4
    501    497    498    507     1  180.0000771  2.0083200  2
    501    497    498    507     1  0.0000000  1.2552000  3
    501    504    510    512     1  180.0000771  0.0000000  2
    501    504    510   1064     1  0.0000000  0.2928800  2
    501    504    510   1064     1  0.0000000  0.4184000  4
    504    510   1064   1044     1  180.0000771  6.2760000  1
    504    510   1064   1044     1  0.0000000  0.0000000  2
    507    511   1089   1069     1  180.0000771  6.2760000  1
    507    511   1089   1069     1  0.0000000  0.0000000  2
    510   1064   1044   1041     1  0.0000000  2.2175200  1
    510   1064   1044   1041     1  0.0000000  0.0000000  2
    510   1064   1044   1041     1  180.0000771  0.6276000  3
    510   1064   1044   1041     1  180.0000771  2.0920000  4
    511   1089   1069   1066     1  0.0000000  2.2175200  1
    511   1089   1069   1066     1  0.0000000  0.0000000  2
    511   1089   1069   1066     1  180.0000771  0.6276000  3
    511   1089   1069   1066     1  180.0000771  2.0920000  4
    512    510   1064   1044     1  180.0000771  10.4600000  2
    513    511   1089   1069     1  180.0000771  10.4600000  2
    516    522    523    532     1  180.0000771  2.0083200  2
    516    522    523    532     1  0.0000000  1.2552000  3
    516    522    526    529     1  180.0000771  2.0083200  2
    516    522    526    529     1  0.0000000  1.2552000  3
    519    516    522    523     1  180.0000771  2.0083200  2
    519    516    522    523     1  0.0000000  1.2552000  3
    519    516    522    526     1  180.0000771  2.0083200  2
    519    516    522    526     1  0.0000000  1.2552000  3
    522    516    519    539     1  0.0000000  0.6508444  3
    522    523    532    536     1  0.0000000  0.6508444  3
    522    526    529    535     1  0.0000000  0.6508444  3
    523    522    526    529     1  180.0000771  2.0083200  2
    523    522    526    529     1  0.0000000  1.2552000  3
    523    532    536    538     1  180.0000771  0.0000000  2
    523    532    536   1139     1  0.0000000  0.2928800  2
    523    532    536   1139     1  0.0000000  0.4184000  4
    526    522    523    532     1  180.0000771  2.0083200  2
    526    522    523    532     1  0.0000000  1.2552000  3
    526    529    535    537     1  180.0000771  0.0000000  2
    526    529    535   1114     1  0.0000000  0.2928800  2
    526    529    535   1114     1  0.0000000  0.4184000  4
    529    535   1114   1094     1  180.0000771  6.2760000  1
    529    535   1114   1094     1  0.0000000  0.0000000  2
    532    536   1139   1119     1  180.0000771  6.2760000  1
    532    536   1139   1119     1  0.0000000  0.0000000  2
    535   1114   1094   1091     1  0.0000000  2.2175200  1
    535   1114   1094   1091     1  0.0000000  0.0000000  2
    535   1114   1094   1091     1  180.0000771  0.6276000  3
    535   1114   1094   1091     1  180.0000771  2.0920000  4
    536   1139   1119   1116     1  0.0000000  2.2175200  1
    536   1139   1119   1116     1  0.0000000  0.0000000  2
    536   1139   1119   1116     1  180.0000771  0.6276000  3
    536   1139   1119   1116     1  180.0000771  2.0920000  4
    537    535   1114   1094     1  180.0000771  10.4600000  2
    538    536   1139   1119     1  180.0000771  10.4600000  2
    541    547    548    557     1  180.0000771  2.0083200  2
    541    547    548    557     1  0.0000000  1.2552000  3
    541    547    551    554     1  180.0000771  2.0083200  2
    541    547    551    554     1  0.0000000  1.2552000  3
    544    541    547    548     1  180.0000771  2.0083200  2
    544    541    547    548     1  0.0000000  1.2552000  3
    544    541    547    551     1  180.0000771  2.0083200  2
    544    541    547    551     1  0.0000000  1.2552000  3
    547    541    544    564     1  0.0000000  0.6508444  3
    547    548    557    561     1  0.0000000  0.6508444  3
    547    551    554    560     1  0.0000000  0.6508444  3
    548    547    551    554     1  180.0000771  2.0083200  2
    548    547    551    554     1  0.0000000  1.2552000  3
    548    557    561    563     1  180.0000771  0.0000000  2
    548    557    561   1189     1  0.0000000  0.2928800  2
    548    557    561   1189     1  0.0000000  0.4184000  4
    551    547    548    557     1  180.0000771  2.0083200  2
    551    547    548    557     1  0.0000000  1.2552000  3
    551    554    560    562     1  180.0000771  0.0000000  2
    551    554    560   1164     1  0.0000000  0.2928800  2
    551    554    560   1164     1  0.0000000  0.4184000  4
    554    560   1164   1144     1  180.0000771  6.2760000  1
    554    560   1164   1144     1  0.0000000  0.0000000  2
    557    561   1189   1169     1  180.0000771  6.2760000  1
    557    561   1189   1169     1  0.0000000  0.0000000  2
    560   1164   1144   1141     1  0.0000000  2.2175200  1
    560   1164   1144   1141     1  0.0000000  0.0000000  2
    560   1164   1144   1141     1  180.0000771  0.6276000  3
    560   1164   1144   1141     1  180.0000771  2.0920000  4
    561   1189   1169   1166     1  0.0000000  2.2175200  1
    561   1189   1169   1166     1  0.0000000  0.0000000  2
    561   1189   1169   1166     1  180.0000771  0.6276000  3
    561   1189   1169   1166     1  180.0000771  2.0920000  4
    562    560   1164   1144     1  180.0000771  10.4600000  2
    563    561   1189   1169     1  180.0000771  10.4600000  2
    566    572    573    582     1  180.0000771  2.0083200  2
    566    572    573    582     1  0.0000000  1.2552000  3
    566    572    576    579     1  180.0000771  2.0083200  2
    566    572    576    579     1  0.0000000  1.2552000  3
    569    566    572    573     1  180.0000771  2.0083200  2
    569    566    572    573     1  0.0000000  1.2552000  3
    569    566    572    576     1  180.0000771  2.0083200  2
    569    566    572    576     1  0.0000000  1.2552000  3
    572    566    569    589     1  0.0000000  0.6508444  3
    572    573    582    586     1  0.0000000  0.6508444  3
    572    576    579    585     1  0.0000000  0.6508444  3
    573    572    576    579     1  180.0000771  2.0083200  2
    573    572    576    579     1  0.0000000  1.2552000  3
    573    582    586    588     1  180.0000771  0.0000000  2
    573    582    586   1239     1  0.0000000  0.2928800  2
    573    582    586   1239     1  0.0000000  0.4184000  4
    576    572    573    582     1  180.0000771  2.0083200  2
    576    572    573    582     1  0.0000000  1.2552000  3
    576    579    585    587     1  180.0000771  0.0000000  2
    576    579    585   1214     1  0.0000000  0.2928800  2
    576    579    585   1214     1  0.0000000  0.4184000  4
    579    585   1214   1194     1  180.0000771  6.2760000  1
    579    585   1214   1194     1  0.0000000  0.0000000  2
    582    586   1239   1219     1  180.0000771  6.2760000  1
    582    586   1239   1219     1  0.0000000  0.0000000  2
    585   1214   1194   1191     1  0.0000000  2.2175200  1
    585   1214   1194   1191     1  0.0000000  0.0000000  2
    585   1214   1194   1191     1  180.0000771  0.6276000  3
    585   1214   1194   1191     1  180.0000771  2.0920000  4
    586   1239   1219   1216     1  0.0000000  2.2175200  1
    586   1239   1219   1216     1  0.0000000  0.0000000  2
    586   1239   1219   1216     1  180.0000771  0.6276000  3
    586   1239   1219   1216     1  180.0000771  2.0920000  4
    587    585   1214   1194     1  180.0000771  10.4600000  2
    588    586   1239   1219     1  180.0000771  10.4600000  2
    591    597    598    607     1  180.0000771  2.0083200  2
    591    597    598    607     1  0.0000000  1.2552000  3
    591    597    601    604     1  180.0000771  2.0083200  2
    591    597    601    604     1  0.0000000  1.2552000  3
    594    591    597    598     1  180.0000771  2.0083200  2
    594    591    597    598     1  0.0000000  1.2552000  3
    594    591    597    601     1  180.0000771  2.0083200  2
    594    591    597    601     1  0.0000000  1.2552000  3
    597    591    594    614     1  0.0000000  0.6508444  3
    597    598    607    611     1  0.0000000  0.6508444  3
    597    601    604    610     1  0.0000000  0.6508444  3
    598    597    601    604     1  180.0000771  2.0083200  2
    598    597    601    604     1  0.0000000  1.2552000  3
    598    607    611    613     1  180.0000771  0.0000000  2
    598    607    611   1289     1  0.0000000  0.2928800  2
    598    607    611   1289     1  0.0000000  0.4184000  4
    601    597    598    607     1  180.0000771  2.0083200  2
    601    597    598    607     1  0.0000000  1.2552000  3
    601    604    610    612     1  180.0000771  0.0000000  2
    601    604    610   1264     1  0.0000000  0.2928800  2
    601    604    610   1264     1  0.0000000  0.4184000  4
    604    610   1264   1244     1  180.0000771  6.2760000  1
    604    610   1264   1244     1  0.0000000  0.0000000  2
    607    611   1289   1269     1  180.0000771  6.2760000  1
    607    611   1289   1269     1  0.0000000  0.0000000  2
    610   1264   1244   1241     1  0.0000000  2.2175200  1
    610   1264   1244   1241     1  0.0000000  0.0000000  2
    610   1264   1244   1241     1  180.0000771  0.6276000  3
    610   1264   1244   1241     1  180.0000771  2.0920000  4
    611   1289   1269   1266     1  0.0000000  2.2175200  1
    611   1289   1269   1266     1  0.0000000  0.0000000  2
    611   1289   1269   1266     1  180.0000771  0.6276000  3
    611   1289   1269   1266     1  180.0000771  2.0920000  4
    612    610   1264   1244     1  180.0000771  10.4600000  2
    613    611   1289   1269     1  180.0000771  10.4600000  2
    616    622    623    632     1  180.0000771  2.0083200  2
    616    622    623    632     1  0.0000000  1.2552000  3
    616    622    626    629     1  180.0000771  2.0083200  2
    616    622    626    629     1  0.0000000  1.2552000  3
    619    616    622    623     1  180.0000771  2.0083200  2
    619    616    622    623     1  0.0000000  1.2552000  3
    619    616    622    626     1  180.0000771  2.0083200  2
    619    616    622    626     1  0.0000000  1.2552000  3
    622    616    619    639     1  0.0000000  0.6508444  3
    622    623    632    636     1  0.0000000  0.6508444  3
    622    626    629    635     1  0.0000000  0.6508444  3
    623    622    626    629     1  180.0000771  2.0083200  2
    623    622    626    629     1  0.0000000  1.2552000  3
    623    632    636    638     1  180.0000771  0.0000000  2
    623    632    636   1339     1  0.0000000  0.2928800  2
    623    632    636   1339     1  0.0000000  0.4184000  4
    626    622    623    632     1  180.0000771  2.0083200  2
    626    622    623    632     1  0.0000000  1.2552000  3
    626    629    635    637     1  180.0000771  0.0000000  2
    626    629    635   1314     1  0.0000000  0.2928800  2
    626    629    635   1314     1  0.0000000  0.4184000  4
    629    635   1314   1294     1  180.0000771  6.2760000  1
    629    635   1314   1294     1  0.0000000  0.0000000  2
    632    636   1339   1319     1  180.0000771  6.2760000  1
    632    636   1339   1319     1  0.0000000  0.0000000  2
    635   1314   1294   1291     1  0.0000000  2.2175200  1
    635   1314   1294   1291     1  0.0000000  0.0000000  2
    635   1314   1294   1291     1  180.0000771  0.6276000  3
    635   1314   1294   1291     1  180.0000771  2.0920000  4
    636   1339   1319   1316     1  0.0000000  2.2175200  1
    636   1339   1319   1316     1  0.0000000  0.0000000  2
    636   1339   1319   1316     1  180.0000771  0.6276000  3
    636   1339   1319   1316     1  180.0000771  2.0920000  4
    637    635   1314   1294     1  180.0000771  10.4600000  2
    638    636   1339   1319     1  180.0000771  10.4600000  2
    641    647    648    657     1  180.0000771  2.0083200  2
    641    647    648    657     1  0.0000000  1.2552000  3
    641    647    651    654     1  180.0000771  2.0083200  2
    641    647    651    654     1  0.0000000  1.2552000  3
    644    641    647    648     1  180.0000771  2.0083200  2
    644    641    647    648     1  0.0000000  1.2552000  3
    644    641    647    651     1  180.0000771  2.0083200  2
    644    641    647    651     1  0.0000000  1.2552000  3
    647    641    644    664     1  0.0000000  0.6508444  3
    647    648    657    661     1  0.0000000  0.6508444  3
    647    651    654    660     1  0.0000000  0.6508444  3
    648    647    651    654     1  180.0000771  2.0083200  2
    648    647    651    654     1  0.0000000  1.2552000  3
    648    657    661    663     1  180.0000771  0.0000000  2
    648    657    661   1389     1  0.0000000  0.2928800  2
    648    657    661   1389     1  0.0000000  0.4184000  4
    651    647    648    657     1  180.0000771  2.0083200  2
    651    647    648    657     1  0.0000000  1.2552000  3
    651    654    660    662     1  180.0000771  0.0000000  2
    651    654    660   1364     1  0.0000000  0.2928800  2
    651    654    660   1364     1  0.0000000  0.4184000  4
    654    660   1364   1344     1  180.0000771  6.2760000  1
    654    660   1364   1344     1  0.0000000  0.0000000  2
    657    661   1389   1369     1  180.0000771  6.2760000  1
    657    661   1389   1369     1  0.0000000  0.0000000  2
    660   1364   1344   1341     1  0.0000000  2.2175200  1
    660   1364   1344   1341     1  0.0000000  0.0000000  2
    660   1364   1344   1341     1  180.0000771  0.6276000  3
    660   1364   1344   1341     1  180.0000771  2.0920000  4
    661   1389   1369   1366     1  0.0000000  2.2175200  1
    661   1389   1369   1366     1  0.0000000  0.0000000  2
    661   1389   1369   1366     1  180.0000771  0.6276000  3
    661   1389   1369   1366     1  180.0000771  2.0920000  4
    662    660   1364   1344     1  180.0000771  10.4600000  2
    663    661   1389   1369     1  180.0000771  10.4600000  2
    666    672    673    682     1  180.0000771  2.0083200  2
    666    672    673    682     1  0.0000000  1.2552000  3
    666    672    676    679     1  180.0000771  2.0083200  2
    666    672    676    679     1  0.0000000  1.2552000  3
    669    666    672    673     1  180.0000771  2.0083200  2
    669    666    672    673     1  0.0000000  1.2552000  3
    669    666    672    676     1  180.0000771  2.0083200  2
    669    666    672    676     1  0.0000000  1.2552000  3
    672    666    669    689     1  0.0000000  0.6508444  3
    672    673    682    686     1  0.0000000  0.6508444  3
    672    676    679    685     1  0.0000000  0.6508444  3
    673    672    676    679     1  180.0000771  2.0083200  2
    673    672    676    679     1  0.0000000  1.2552000  3
    673    682    686    688     1  180.0000771  0.0000000  2
    673    682    686   1439     1  0.0000000  0.2928800  2
    673    682    686   1439     1  0.0000000  0.4184000  4
    676    672    673    682     1  180.0000771  2.0083200  2
    676    672    673    682     1  0.0000000  1.2552000  3
    676    679    685    687     1  180.0000771  0.0000000  2
    676    679    685   1414     1  0.0000000  0.2928800  2
    676    679    685   1414     1  0.0000000  0.4184000  4
    679    685   1414   1394     1  180.0000771  6.2760000  1
    679    685   1414   1394     1  0.0000000  0.0000000  2
    682    686   1439   1419     1  180.0000771  6.2760000  1
    682    686   1439   1419     1  0.0000000  0.0000000  2
    685   1414   1394   1391     1  0.0000000  2.2175200  1
    685   1414   1394   1391     1  0.0000000  0.0000000  2
    685   1414   1394   1391     1  180.0000771  0.6276000  3
    685   1414   1394   1391     1  180.0000771  2.0920000  4
    686   1439   1419   1416     1  0.0000000  2.2175200  1
    686   1439   1419   1416     1  0.0000000  0.0000000  2
    686   1439   1419   1416     1  180.0000771  0.6276000  3
    686   1439   1419   1416     1  180.0000771  2.0920000  4
    687    685   1414   1394     1  180.0000771  10.4600000  2
    688    686   1439   1419     1  180.0000771  10.4600000  2
    691    697    698    707     1  180.0000771  2.0083200  2
    691    697    698    707     1  0.0000000  1.2552000  3
    691    697    701    704     1  180.0000771  2.0083200  2
    691    697    701    704     1  0.0000000  1.2552000  3
    694    691    697    698     1  180.0000771  2.0083200  2
    694    691    697    698     1  0.0000000  1.2552000  3
    694    691    697    701     1  180.0000771  2.0083200  2
    694    691    697    701     1  0.0000000  1.2552000  3
    697    691    694    714     1  0.0000000  0.6508444  3
    697    698    707    711     1  0.0000000  0.6508444  3
    697    701    704    710     1  0.0000000  0.6508444  3
    698    697    701    704     1  180.0000771  2.0083200  2
    698    697    701    704     1  0.0000000  1.2552000  3
    698    707    711    713     1  180.0000771  0.0000000  2
    698    707    711   1489     1  0.0000000  0.2928800  2
    698    707    711   1489     1  0.0000000  0.4184000  4
    701    697    698    707     1  180.0000771  2.0083200  2
    701    697    698    707     1  0.0000000  1.2552000  3
    701    704    710    712     1  180.0000771  0.0000000  2
    701    704    710   1464     1  0.0000000  0.2928800  2
    701    704    710   1464     1  0.0000000  0.4184000  4
    704    710   1464   1444     1  180.0000771  6.2760000  1
    704    710   1464   1444     1  0.0000000  0.0000000  2
    707    711   1489   1469     1  180.0000771  6.2760000  1
    707    711   1489   1469     1  0.0000000  0.0000000  2
    710   1464   1444   1441     1  0.0000000  2.2175200  1
    710   1464   1444   1441     1  0.0000000  0.0000000  2
    710   1464   1444   1441     1  180.0000771  0.6276000  3
    710   1464   1444   1441     1  180.0000771  2.0920000  4
    711   1489   1469   1466     1  0.0000000  2.2175200  1
    711   1489   1469   1466     1  0.0000000  0.0000000  2
    711   1489   1469   1466     1  180.0000771  0.6276000  3
    711   1489   1469   1466     1  180.0000771  2.0920000  4
    712    710   1464   1444     1  180.0000771  10.4600000  2
    713    711   1489   1469     1  180.0000771  10.4600000  2
    716    722    723    732     1  180.0000771  2.0083200  2
    716    722    723    732     1  0.0000000  1.2552000  3
    716    722    726    729     1  180.0000771  2.0083200  2
    716    722    726    729     1  0.0000000  1.2552000  3
    719    716    722    723     1  180.0000771  2.0083200  2
    719    716    722    723     1  0.0000000  1.2552000  3
    719    716    722    726     1  180.0000771  2.0083200  2
    719    716    722    726     1  0.0000000  1.2552000  3
    722    716    719    739     1  0.0000000  0.6508444  3
    722    723    732    736     1  0.0000000  0.6508444  3
    722    726    729    735     1  0.0000000  0.6508444  3
    723    722    726    729     1  180.0000771  2.0083200  2
    723    722    726    729     1  0.0000000  1.2552000  3
    723    732    736    738     1  180.0000771  0.0000000  2
    723    732    736   1539     1  0.0000000  0.2928800  2
    723    732    736   1539     1  0.0000000  0.4184000  4
    726    722    723    732     1  180.0000771  2.0083200  2
    726    722    723    732     1  0.0000000  1.2552000  3
    726    729    735    737     1  180.0000771  0.0000000  2
    726    729    735   1514     1  0.0000000  0.2928800  2
    726    729    735   1514     1  0.0000000  0.4184000  4
    729    735   1514   1494     1  180.0000771  6.2760000  1
    729    735   1514   1494     1  0.0000000  0.0000000  2
    732    736   1539   1519     1  180.0000771  6.2760000  1
    732    736   1539   1519     1  0.0000000  0.0000000  2
    735   1514   1494   1491     1  0.0000000  2.2175200  1
    735   1514   1494   1491     1  0.0000000  0.0000000  2
    735   1514   1494   1491     1  180.0000771  0.6276000  3
    735   1514   1494   1491     1  180.0000771  2.0920000  4
    736   1539   1519   1516     1  0.0000000  2.2175200  1
    736   1539   1519   1516     1  0.0000000  0.0000000  2
    736   1539   1519   1516     1  180.0000771  0.6276000  3
    736   1539   1519   1516     1  180.0000771  2.0920000  4
    737    735   1514   1494     1  180.0000771  10.4600000  2
    738    736   1539   1519     1  180.0000771  10.4600000  2
    741    747    748    757     1  180.0000771  2.0083200  2
    741    747    748    757     1  0.0000000  1.2552000  3
    741    747    751    754     1  180.0000771  2.0083200  2
    741    747    751    754     1  0.0000000  1.2552000  3
    744    741    747    748     1  180.0000771  2.0083200  2
    744    741    747    748     1  0.0000000  1.2552000  3
    744    741    747    751     1  180.0000771  2.0083200  2
    744    741    747    751     1  0.0000000  1.2552000  3
    747    741    744    764     1  0.0000000  0.6508444  3
    747    748    757    761     1  0.0000000  0.6508444  3
    747    751    754    760     1  0.0000000  0.6508444  3
    748    747    751    754     1  180.0000771  2.0083200  2
    748    747    751    754     1  0.0000000  1.2552000  3
    748    757    761    763     1  180.0000771  0.0000000  2
    748    757    761   1561     1  0.0000000  0.2928800  2
    748    757    761   1561     1  0.0000000  0.4184000  4
    751    747    748    757     1  180.0000771  2.0083200  2
    751    747    748    757     1  0.0000000  1.2552000  3
    751    754    760   1550     1  0.0000000  0.2928800  2
    751    754    760   1550     1  0.0000000  0.4184000  4
    751    754    760    762     1  180.0000771  0.0000000  2
    754    760   1550   1541     1  180.0000771  6.2760000  1
    754    760   1550   1541     1  0.0000000  0.0000000  2
    757    761   1561   1552     1  180.0000771  6.2760000  1
    757    761   1561   1552     1  0.0000000  0.0000000  2
    760   1550   1541   1544     1  0.0000000  2.2175200  1
    760   1550   1541   1544     1  0.0000000  0.0000000  2
    760   1550   1541   1544     1  180.0000771  0.6276000  3
    760   1550   1541   1544     1  180.0000771  2.0920000  4
    761   1561   1552   1555     1  0.0000000  2.2175200  1
    761   1561   1552   1555     1  0.0000000  0.0000000  2
    761   1561   1552   1555     1  180.0000771  0.6276000  3
    761   1561   1552   1555     1  180.0000771  2.0920000  4
    762    760   1550   1541     1  180.0000771  10.4600000  2
    763    761   1561   1552     1  180.0000771  10.4600000  2
    766    772    773    782     1  180.0000771  2.0083200  2
    766    772    773    782     1  0.0000000  1.2552000  3
    766    772    776    779     1  180.0000771  2.0083200  2
    766    772    776    779     1  0.0000000  1.2552000  3
    769    766    772    773     1  180.0000771  2.0083200  2
    769    766    772    773     1  0.0000000  1.2552000  3
    769    766    772    776     1  180.0000771  2.0083200  2
    769    766    772    776     1  0.0000000  1.2552000  3
    772    766    769    789     1  0.0000000  0.6508444  3
    772    773    782    786     1  0.0000000  0.6508444  3
    772    776    779    785     1  0.0000000  0.6508444  3
    773    772    776    779     1  180.0000771  2.0083200  2
    773    772    776    779     1  0.0000000  1.2552000  3
    773    782    786    788     1  180.0000771  0.0000000  2
    773    782    786   1583     1  0.0000000  0.2928800  2
    773    782    786   1583     1  0.0000000  0.4184000  4
    776    772    773    782     1  180.0000771  2.0083200  2
    776    772    773    782     1  0.0000000  1.2552000  3
    776    779    785   1572     1  0.0000000  0.2928800  2
    776    779    785   1572     1  0.0000000  0.4184000  4
    776    779    785    787     1  180.0000771  0.0000000  2
    779    785   1572   1563     1  180.0000771  6.2760000  1
    779    785   1572   1563     1  0.0000000  0.0000000  2
    782    786   1583   1574     1  180.0000771  6.2760000  1
    782    786   1583   1574     1  0.0000000  0.0000000  2
    785   1572   1563   1566     1  0.0000000  2.2175200  1
    785   1572   1563   1566     1  0.0000000  0.0000000  2
    785   1572   1563   1566     1  180.0000771  0.6276000  3
    785   1572   1563   1566     1  180.0000771  2.0920000  4
    786   1583   1574   1577     1  0.0000000  2.2175200  1
    786   1583   1574   1577     1  0.0000000  0.0000000  2
    786   1583   1574   1577     1  180.0000771  0.6276000  3
    786   1583   1574   1577     1  180.0000771  2.0920000  4
    787    785   1572   1563     1  180.0000771  10.4600000  2
    788    786   1583   1574     1  180.0000771  10.4600000  2
    791    797    798    807     1  180.0000771  2.0083200  2
    791    797    798    807     1  0.0000000  1.2552000  3
    791    797    801    804     1  180.0000771  2.0083200  2
    791    797    801    804     1  0.0000000  1.2552000  3
    794    791    797    798     1  180.0000771  2.0083200  2
    794    791    797    798     1  0.0000000  1.2552000  3
    794    791    797    801     1  180.0000771  2.0083200  2
    794    791    797    801     1  0.0000000  1.2552000  3
    797    791    794    814     1  0.0000000  0.6508444  3
    797    798    807    811     1  0.0000000  0.6508444  3
    797    801    804    810     1  0.0000000  0.6508444  3
    798    797    801    804     1  180.0000771  2.0083200  2
    798    797    801    804     1  0.0000000  1.2552000  3
    798    807    811    813     1  180.0000771  0.0000000  2
    798    807    811   1605     1  0.0000000  0.2928800  2
    798    807    811   1605     1  0.0000000  0.4184000  4
    801    797    798    807     1  180.0000771  2.0083200  2
    801    797    798    807     1  0.0000000  1.2552000  3
    801    804    810   1594     1  0.0000000  0.2928800  2
    801    804    810   1594     1  0.0000000  0.4184000  4
    801    804    810    812     1  180.0000771  0.0000000  2
    804    810   1594   1585     1  180.0000771  6.2760000  1
    804    810   1594   1585     1  0.0000000  0.0000000  2
    807    811   1605   1596     1  180.0000771  6.2760000  1
    807    811   1605   1596     1  0.0000000  0.0000000  2
    810   1594   1585   1588     1  0.0000000  2.2175200  1
    810   1594   1585   1588     1  0.0000000  0.0000000  2
    810   1594   1585   1588     1  180.0000771  0.6276000  3
    810   1594   1585   1588     1  180.0000771  2.0920000  4
    811   1605   1596   1599     1  0.0000000  2.2175200  1
    811   1605   1596   1599     1  0.0000000  0.0000000  2
    811   1605   1596   1599     1  180.0000771  0.6276000  3
    811   1605   1596   1599     1  180.0000771  2.0920000  4
    812    810   1594   1585     1  180.0000771  10.4600000  2
    813    811   1605   1596     1  180.0000771  10.4600000  2
    816    822    823    832     1  180.0000771  2.0083200  2
    816    822    823    832     1  0.0000000  1.2552000  3
    816    822    826    829     1  180.0000771  2.0083200  2
    816    822    826    829     1  0.0000000  1.2552000  3
    819    816    822    823     1  180.0000771  2.0083200  2
    819    816    822    823     1  0.0000000  1.2552000  3
    819    816    822    826     1  180.0000771  2.0083200  2
    819    816    822    826     1  0.0000000  1.2552000  3
    822    816    819    839     1  0.0000000  0.6508444  3
    822    823    832    836     1  0.0000000  0.6508444  3
    822    826    829    835     1  0.0000000  0.6508444  3
    823    822    826    829     1  180.0000771  2.0083200  2
    823    822    826    829     1  0.0000000  1.2552000  3
    823    832    836    838     1  180.0000771  0.0000000  2
    823    832    836   1627     1  0.0000000  0.2928800  2
    823    832    836   1627     1  0.0000000  0.4184000  4
    826    822    823    832     1  180.0000771  2.0083200  2
    826    822    823    832     1  0.0000000  1.2552000  3
    826    829    835   1616     1  0.0000000  0.2928800  2
    826    829    835   1616     1  0.0000000  0.4184000  4
    826    829    835    837     1  180.0000771  0.0000000  2
    829    835   1616   1607     1  180.0000771  6.2760000  1
    829    835   1616   1607     1  0.0000000  0.0000000  2
    832    836   1627   1618     1  180.0000771  6.2760000  1
    832    836   1627   1618     1  0.0000000  0.0000000  2
    835   1616   1607   1610     1  0.0000000  2.2175200  1
    835   1616   1607   1610     1  0.0000000  0.0000000  2
    835   1616   1607   1610     1  180.0000771  0.6276000  3
    835   1616   1607   1610     1  180.0000771  2.0920000  4
    836   1627   1618   1621     1  0.0000000  2.2175200  1
    836   1627   1618   1621     1  0.0000000  0.0000000  2
    836   1627   1618   1621     1  180.0000771  0.6276000  3
    836   1627   1618   1621     1  180.0000771  2.0920000  4
    837    835   1616   1607     1  180.0000771  10.4600000  2
    838    836   1627   1618     1  180.0000771  10.4600000  2
    841    847    848    857     1  180.0000771  2.0083200  2
    841    847    848    857     1  0.0000000  1.2552000  3
    841    847    851    854     1  180.0000771  2.0083200  2
    841    847    851    854     1  0.0000000  1.2552000  3
    844    841    847    848     1  180.0000771  2.0083200  2
    844    841    847    848     1  0.0000000  1.2552000  3
    844    841    847    851     1  180.0000771  2.0083200  2
    844    841    847    851     1  0.0000000  1.2552000  3
    847    841    844    864     1  0.0000000  0.6508444  3
    847    848    857    861     1  0.0000000  0.6508444  3
    847    851    854    860     1  0.0000000  0.6508444  3
    848    847    851    854     1  180.0000771  2.0083200  2
    848    847    851    854     1  0.0000000  1.2552000  3
    848    857    861    863     1  180.0000771  0.0000000  2
    848    857    861   1649     1  0.0000000  0.2928800  2
    848    857    861   1649     1  0.0000000  0.4184000  4
    851    847    848    857     1  180.0000771  2.0083200  2
    851    847    848    857     1  0.0000000  1.2552000  3
    851    854    860   1638     1  0.0000000  0.2928800  2
    851    854    860   1638     1  0.0000000  0.4184000  4
    851    854    860    862     1  180.0000771  0.0000000  2
    854    860   1638   1629     1  180.0000771  6.2760000  1
    854    860   1638   1629     1  0.0000000  0.0000000  2
    857    861   1649   1640     1  180.0000771  6.2760000  1
    857    861   1649   1640     1  0.0000000  0.0000000  2
    860   1638   1629   1632     1  0.0000000  2.2175200  1
    860   1638   1629   1632     1  0.0000000  0.0000000  2
    860   1638   1629   1632     1  180.0000771  0.6276000  3
    860   1638   1629   1632     1  180.0000771  2.0920000  4
    861   1649   1640   1643     1  0.0000000  2.2175200  1
    861   1649   1640   1643     1  0.0000000  0.0000000  2
    861   1649   1640   1643     1  180.0000771  0.6276000  3
    861   1649   1640   1643     1  180.0000771  2.0920000  4
    862    860   1638   1629     1  180.0000771  10.4600000  2
    863    861   1649   1640     1  180.0000771  10.4600000  2
    866    872    873    882     1  180.0000771  2.0083200  2
    866    872    873    882     1  0.0000000  1.2552000  3
    866    872    876    879     1  180.0000771  2.0083200  2
    866    872    876    879     1  0.0000000  1.2552000  3
    869    866    872    873     1  180.0000771  2.0083200  2
    869    866    872    873     1  0.0000000  1.2552000  3
    869    866    872    876     1  180.0000771  2.0083200  2
    869    866    872    876     1  0.0000000  1.2552000  3
    872    866    869    889     1  0.0000000  0.6508444  3
    872    873    882    886     1  0.0000000  0.6508444  3
    872    876    879    885     1  0.0000000  0.6508444  3
    873    872    876    879     1  180.0000771  2.0083200  2
    873    872    876    879     1  0.0000000  1.2552000  3
    873    882    886    888     1  180.0000771  0.0000000  2
    873    882    886   1671     1  0.0000000  0.2928800  2
    873    882    886   1671     1  0.0000000  0.4184000  4
    876    872    873    882     1  180.0000771  2.0083200  2
    876    872    873    882     1  0.0000000  1.2552000  3
    876    879    885   1660     1  0.0000000  0.2928800  2
    876    879    885   1660     1  0.0000000  0.4184000  4
    876    879    885    887     1  180.0000771  0.0000000  2
    879    885   1660   1651     1  180.0000771  6.2760000  1
    879    885   1660   1651     1  0.0000000  0.0000000  2
    882    886   1671   1662     1  180.0000771  6.2760000  1
    882    886   1671   1662     1  0.0000000  0.0000000  2
    885   1660   1651   1654     1  0.0000000  2.2175200  1
    885   1660   1651   1654     1  0.0000000  0.0000000  2
    885   1660   1651   1654     1  180.0000771  0.6276000  3
    885   1660   1651   1654     1  180.0000771  2.0920000  4
    886   1671   1662   1665     1  0.0000000  2.2175200  1
    886   1671   1662   1665     1  0.0000000  0.0000000  2
    886   1671   1662   1665     1  180.0000771  0.6276000  3
    886   1671   1662   1665     1  180.0000771  2.0920000  4
    887    885   1660   1651     1  180.0000771  10.4600000  2
    888    886   1671   1662     1  180.0000771  10.4600000  2
    891    897    898    907     1  180.0000771  2.0083200  2
    891    897    898    907     1  0.0000000  1.2552000  3
    891    897    901    904     1  180.0000771  2.0083200  2
    891    897    901    904     1  0.0000000  1.2552000  3
    894    891    897    898     1  180.0000771  2.0083200  2
    894    891    897    898     1  0.0000000  1.2552000  3
    894    891    897    901     1  180.0000771  2.0083200  2
    894    891    897    901     1  0.0000000  1.2552000  3
    897    891    894    914     1  0.0000000  0.6508444  3
    897    898    907    911     1  0.0000000  0.6508444  3
    897    901    904    910     1  0.0000000  0.6508444  3
    898    897    901    904     1  180.0000771  2.0083200  2
    898    897    901    904     1  0.0000000  1.2552000  3
    898    907    911    913     1  180.0000771  0.0000000  2
    898    907    911   1693     1  0.0000000  0.2928800  2
    898    907    911   1693     1  0.0000000  0.4184000  4
    901    897    898    907     1  180.0000771  2.0083200  2
    901    897    898    907     1  0.0000000  1.2552000  3
    901    904    910   1682     1  0.0000000  0.2928800  2
    901    904    910   1682     1  0.0000000  0.4184000  4
    901    904    910    912     1  180.0000771  0.0000000  2
    904    910   1682   1673     1  180.0000771  6.2760000  1
    904    910   1682   1673     1  0.0000000  0.0000000  2
    907    911   1693   1684     1  180.0000771  6.2760000  1
    907    911   1693   1684     1  0.0000000  0.0000000  2
    910   1682   1673   1676     1  0.0000000  2.2175200  1
    910   1682   1673   1676     1  0.0000000  0.0000000  2
    910   1682   1673   1676     1  180.0000771  0.6276000  3
    910   1682   1673   1676     1  180.0000771  2.0920000  4
    911   1693   1684   1687     1  0.0000000  2.2175200  1
    911   1693   1684   1687     1  0.0000000  0.0000000  2
    911   1693   1684   1687     1  180.0000771  0.6276000  3
    911   1693   1684   1687     1  180.0000771  2.0920000  4
    912    910   1682   1673     1  180.0000771  10.4600000  2
    913    911   1693   1684     1  180.0000771  10.4600000  2
    916    922    923    932     1  180.0000771  2.0083200  2
    916    922    923    932     1  0.0000000  1.2552000  3
    916    922    926    929     1  180.0000771  2.0083200  2
    916    922    926    929     1  0.0000000  1.2552000  3
    919    916    922    923     1  180.0000771  2.0083200  2
    919    916    922    923     1  0.0000000  1.2552000  3
    919    916    922    926     1  180.0000771  2.0083200  2
    919    916    922    926     1  0.0000000  1.2552000  3
    922    916    919    939     1  0.0000000  0.6508444  3
    922    923    932    936     1  0.0000000  0.6508444  3
    922    926    929    935     1  0.0000000  0.6508444  3
    923    922    926    929     1  180.0000771  2.0083200  2
    923    922    926    929     1  0.0000000  1.2552000  3
    923    932    936    938     1  180.0000771  0.0000000  2
    923    932    936   1715     1  0.0000000  0.2928800  2
    923    932    936   1715     1  0.0000000  0.4184000  4
    926    922    923    932     1  180.0000771  2.0083200  2
    926    922    923    932     1  0.0000000  1.2552000  3
    926    929    935   1704     1  0.0000000  0.2928800  2
    926    929    935   1704     1  0.0000000  0.4184000  4
    926    929    935    937     1  180.0000771  0.0000000  2
    929    935   1704   1695     1  180.0000771  6.2760000  1
    929    935   1704   1695     1  0.0000000  0.0000000  2
    932    936   1715   1706     1  180.0000771  6.2760000  1
    932    936   1715   1706     1  0.0000000  0.0000000  2
    935   1704   1695   1698     1  0.0000000  2.2175200  1
    935   1704   1695   1698     1  0.0000000  0.0000000  2
    935   1704   1695   1698     1  180.0000771  0.6276000  3
    935   1704   1695   1698     1  180.0000771  2.0920000  4
    936   1715   1706   1709     1  0.0000000  2.2175200  1
    936   1715   1706   1709     1  0.0000000  0.0000000  2
    936   1715   1706   1709     1  180.0000771  0.6276000  3
    936   1715   1706   1709     1  180.0000771  2.0920000  4
    937    935   1704   1695     1  180.0000771  10.4600000  2
    938    936   1715   1706     1  180.0000771  10.4600000  2
    941    947    948    957     1  180.0000771  2.0083200  2
    941    947    948    957     1  0.0000000  1.2552000  3
    941    947    951    954     1  180.0000771  2.0083200  2
    941    947    951    954     1  0.0000000  1.2552000  3
    944    941    947    948     1  180.0000771  2.0083200  2
    944    941    947    948     1  0.0000000  1.2552000  3
    944    941    947    951     1  180.0000771  2.0083200  2
    944    941    947    951     1  0.0000000  1.2552000  3
    947    941    944    964     1  0.0000000  0.6508444  3
    947    948    957    961     1  0.0000000  0.6508444  3
    947    951    954    960     1  0.0000000  0.6508444  3
    948    947    951    954     1  180.0000771  2.0083200  2
    948    947    951    954     1  0.0000000  1.2552000  3
    948    957    961    963     1  180.0000771  0.0000000  2
    948    957    961   1737     1  0.0000000  0.2928800  2
    948    957    961   1737     1  0.0000000  0.4184000  4
    951    947    948    957     1  180.0000771  2.0083200  2
    951    947    948    957     1  0.0000000  1.2552000  3
    951    954    960   1726     1  0.0000000  0.2928800  2
    951    954    960   1726     1  0.0000000  0.4184000  4
    951    954    960    962     1  180.0000771  0.0000000  2
    954    960   1726   1717     1  180.0000771  6.2760000  1
    954    960   1726   1717     1  0.0000000  0.0000000  2
    957    961   1737   1728     1  180.0000771  6.2760000  1
    957    961   1737   1728     1  0.0000000  0.0000000  2
    960   1726   1717   1720     1  0.0000000  2.2175200  1
    960   1726   1717   1720     1  0.0000000  0.0000000  2
    960   1726   1717   1720     1  180.0000771  0.6276000  3
    960   1726   1717   1720     1  180.0000771  2.0920000  4
    961   1737   1728   1731     1  0.0000000  2.2175200  1
    961   1737   1728   1731     1  0.0000000  0.0000000  2
    961   1737   1728   1731     1  180.0000771  0.6276000  3
    961   1737   1728   1731     1  180.0000771  2.0920000  4
    962    960   1726   1717     1  180.0000771  10.4600000  2
    963    961   1737   1728     1  180.0000771  10.4600000  2
    966    972    973    982     1  180.0000771  2.0083200  2
    966    972    973    982     1  0.0000000  1.2552000  3
    966    972    976    979     1  180.0000771  2.0083200  2
    966    972    976    979     1  0.0000000  1.2552000  3
    969    966    972    973     1  180.0000771  2.0083200  2
    969    966    972    973     1  0.0000000  1.2552000  3
    969    966    972    976     1  180.0000771  2.0083200  2
    969    966    972    976     1  0.0000000  1.2552000  3
    972    966    969    989     1  0.0000000  0.6508444  3
    972    973    982    986     1  0.0000000  0.6508444  3
    972    976    979    985     1  0.0000000  0.6508444  3
    973    972    976    979     1  180.0000771  2.0083200  2
    973    972    976    979     1  0.0000000  1.2552000  3
    973    982    986    988     1  180.0000771  0.0000000  2
    973    982    986   1759     1  0.0000000  0.2928800  2
    973    982    986   1759     1  0.0000000  0.4184000  4
    976    972    973    982     1  180.0000771  2.0083200  2
    976    972    973    982     1  0.0000000  1.2552000  3
    976    979    985   1748     1  0.0000000  0.2928800  2
    976    979    985   1748     1  0.0000000  0.4184000  4
    976    979    985    987     1  180.0000771  0.0000000  2
    979    985   1748   1739     1  180.0000771  6.2760000  1
    979    985   1748   1739     1  0.0000000  0.0000000  2
    982    986   1759   1750     1  180.0000771  6.2760000  1
    982    986   1759   1750     1  0.0000000  0.0000000  2
    985   1748   1739   1742     1  0.0000000  2.2175200  1
    985   1748   1739   1742     1  0.0000000  0.0000000  2
    985   1748   1739   1742     1  180.0000771  0.6276000  3
    985   1748   1739   1742     1  180.0000771  2.0920000  4
    986   1759   1750   1753     1  0.0000000  2.2175200  1
    986   1759   1750   1753     1  0.0000000  0.0000000  2
    986   1759   1750   1753     1  180.0000771  0.6276000  3
    986   1759   1750   1753     1  180.0000771  2.0920000  4
    987    985   1748   1739     1  180.0000771  10.4600000  2
    988    986   1759   1750     1  180.0000771  10.4600000  2
    991    997    998   1007     1  180.0000771  2.0083200  2
    991    997    998   1007     1  0.0000000  1.2552000  3
    991    997   1001   1004     1  180.0000771  2.0083200  2
    991    997   1001   1004     1  0.0000000  1.2552000  3
    994    991    997    998     1  180.0000771  2.0083200  2
    994    991    997    998     1  0.0000000  1.2552000  3
    994    991    997   1001     1  180.0000771  2.0083200  2
    994    991    997   1001     1  0.0000000  1.2552000  3
    997    991    994   1014     1  0.0000000  0.6508444  3
    997    998   1007   1011     1  0.0000000  0.6508444  3
    997   1001   1004   1010     1  0.0000000  0.6508444  3
    998    997   1001   1004     1  180.0000771  2.0083200  2
    998    997   1001   1004     1  0.0000000  1.2552000  3
    998   1007   1011   1013     1  180.0000771  0.0000000  2
    998   1007   1011   1781     1  0.0000000  0.2928800  2
    998   1007   1011   1781     1  0.0000000  0.4184000  4
   1001    997    998   1007     1  180.0000771  2.0083200  2
   1001    997    998   1007     1  0.0000000  1.2552000  3
   1001   1004   1010   1770     1  0.0000000  0.2928800  2
   1001   1004   1010   1770     1  0.0000000  0.4184000  4
   1001   1004   1010   1012     1  180.0000771  0.0000000  2
   1004   1010   1770   1761     1  180.0000771  6.2760000  1
   1004   1010   1770   1761     1  0.0000000  0.0000000  2
   1007   1011   1781   1772     1  180.0000771  6.2760000  1
   1007   1011   1781   1772     1  0.0000000  0.0000000  2
   1010   1770   1761   1764     1  0.0000000  2.2175200  1
   1010   1770   1761   1764     1  0.0000000  0.0000000  2
   1010   1770   1761   1764     1  180.0000771  0.6276000  3
   1010   1770   1761   1764     1  180.0000771  2.0920000  4
   1011   1781   1772   1775     1  0.0000000  2.2175200  1
   1011   1781   1772   1775     1  0.0000000  0.0000000  2
   1011   1781   1772   1775     1  180.0000771  0.6276000  3
   1011   1781   1772   1775     1  180.0000771  2.0920000  4
   1012   1010   1770   1761     1  180.0000771  10.4600000  2
   1013   1011   1781   1772     1  180.0000771  10.4600000  2
   1016   1022   1023   1032     1  180.0000771  2.0083200  2
   1016   1022   1023   1032     1  0.0000000  1.2552000  3
   1016   1022   1026   1029     1  180.0000771  2.0083200  2
   1016   1022   1026   1029     1  0.0000000  1.2552000  3
   1019   1016   1022   1023     1  180.0000771  2.0083200  2
   1019   1016   1022   1023     1  0.0000000  1.2552000  3
   1019   1016   1022   1026     1  180.0000771  2.0083200  2
   1019   1016   1022   1026     1  0.0000000  1.2552000  3
   1022   1016   1019   1039     1  0.0000000  0.6508444  3
   1022   1023   1032   1036     1  0.0000000  0.6508444  3
   1022   1026   1029   1035     1  0.0000000  0.6508444  3
   1023   1022   1026   1029     1  180.0000771  2.0083200  2
   1023   1022   1026   1029     1  0.0000000  1.2552000  3
   1023   1032   1036   1038     1  180.0000771  0.0000000  2
   1023   1032   1036   1803     1  0.0000000  0.2928800  2
   1023   1032   1036   1803     1  0.0000000  0.4184000  4
   1026   1022   1023   1032     1  180.0000771  2.0083200  2
   1026   1022   1023   1032     1  0.0000000  1.2552000  3
   1026   1029   1035   1792     1  0.0000000  0.2928800  2
   1026   1029   1035   1792     1  0.0000000  0.4184000  4
   1026   1029   1035   1037     1  180.0000771  0.0000000  2
   1029   1035   1792   1783     1  180.0000771  6.2760000  1
   1029   1035   1792   1783     1  0.0000000  0.0000000  2
   1032   1036   1803   1794     1  180.0000771  6.2760000  1
   1032   1036   1803   1794     1  0.0000000  0.0000000  2
   1035   1792   1783   1786     1  0.0000000  2.2175200  1
   1035   1792   1783   1786     1  0.0000000  0.0000000  2
   1035   1792   1783   1786     1  180.0000771  0.6276000  3
   1035   1792   1783   1786     1  180.0000771  2.0920000  4
   1036   1803   1794   1797     1  0.0000000  2.2175200  1
   1036   1803   1794   1797     1  0.0000000  0.0000000  2
   1036   1803   1794   1797     1  180.0000771  0.6276000  3
   1036   1803   1794   1797     1  180.0000771  2.0920000  4
   1037   1035   1792   1783     1  180.0000771  10.4600000  2
   1038   1036   1803   1794     1  180.0000771  10.4600000  2
   1041   1047   1048   1057     1  180.0000771  2.0083200  2
   1041   1047   1048   1057     1  0.0000000  1.2552000  3
   1041   1047   1051   1054     1  180.0000771  2.0083200  2
   1041   1047   1051   1054     1  0.0000000  1.2552000  3
   1044   1041   1047   1048     1  180.0000771  2.0083200  2
   1044   1041   1047   1048     1  0.0000000  1.2552000  3
   1044   1041   1047   1051     1  180.0000771  2.0083200  2
   1044   1041   1047   1051     1  0.0000000  1.2552000  3
   1047   1041   1044   1064     1  0.0000000  0.6508444  3
   1047   1048   1057   1061     1  0.0000000  0.6508444  3
   1047   1051   1054   1060     1  0.0000000  0.6508444  3
   1048   1047   1051   1054     1  180.0000771  2.0083200  2
   1048   1047   1051   1054     1  0.0000000  1.2552000  3
   1048   1057   1061   1063     1  180.0000771  0.0000000  2
   1048   1057   1061   1825     1  0.0000000  0.2928800  2
   1048   1057   1061   1825     1  0.0000000  0.4184000  4
   1051   1047   1048   1057     1  180.0000771  2.0083200  2
   1051   1047   1048   1057     1  0.0000000  1.2552000  3
   1051   1054   1060   1814     1  0.0000000  0.2928800  2
   1051   1054   1060   1814     1  0.0000000  0.4184000  4
   1051   1054   1060   1062     1  180.0000771  0.0000000  2
   1054   1060   1814   1805     1  180.0000771  6.2760000  1
   1054   1060   1814   1805     1  0.0000000  0.0000000  2
   1057   1061   1825   1816     1  180.0000771  6.2760000  1
   1057   1061   1825   1816     1  0.0000000  0.0000000  2
   1060   1814   1805   1808     1  0.0000000  2.2175200  1
   1060   1814   1805   1808     1  0.0000000  0.0000000  2
   1060   1814   1805   1808     1  180.0000771  0.6276000  3
   1060   1814   1805   1808     1  180.0000771  2.0920000  4
   1061   1825   1816   1819     1  0.0000000  2.2175200  1
   1061   1825   1816   1819     1  0.0000000  0.0000000  2
   1061   1825   1816   1819     1  180.0000771  0.6276000  3
   1061   1825   1816   1819     1  180.0000771  2.0920000  4
   1062   1060   1814   1805     1  180.0000771  10.4600000  2
   1063   1061   1825   1816     1  180.0000771  10.4600000  2
   1066   1072   1073   1082     1  180.0000771  2.0083200  2
   1066   1072   1073   1082     1  0.0000000  1.2552000  3
   1066   1072   1076   1079     1  180.0000771  2.0083200  2
   1066   1072   1076   1079     1  0.0000000  1.2552000  3
   1069   1066   1072   1073     1  180.0000771  2.0083200  2
   1069   1066   1072   1073     1  0.0000000  1.2552000  3
   1069   1066   1072   1076     1  180.0000771  2.0083200  2
   1069   1066   1072   1076     1  0.0000000  1.2552000  3
   1072   1066   1069   1089     1  0.0000000  0.6508444  3
   1072   1073   1082   1086     1  0.0000000  0.6508444  3
   1072   1076   1079   1085     1  0.0000000  0.6508444  3
   1073   1072   1076   1079     1  180.0000771  2.0083200  2
   1073   1072   1076   1079     1  0.0000000  1.2552000  3
   1073   1082   1086   1088     1  180.0000771  0.0000000  2
   1073   1082   1086   1847     1  0.0000000  0.2928800  2
   1073   1082   1086   1847     1  0.0000000  0.4184000  4
   1076   1072   1073   1082     1  180.0000771  2.0083200  2
   1076   1072   1073   1082     1  0.0000000  1.2552000  3
   1076   1079   1085   1836     1  0.0000000  0.2928800  2
   1076   1079   1085   1836     1  0.0000000  0.4184000  4
   1076   1079   1085   1087     1  180.0000771  0.0000000  2
   1079   1085   1836   1827     1  180.0000771  6.2760000  1
   1079   1085   1836   1827     1  0.0000000  0.0000000  2
   1082   1086   1847   1838     1  180.0000771  6.2760000  1
   1082   1086   1847   1838     1  0.0000000  0.0000000  2
   1085   1836   1827   1830     1  0.0000000  2.2175200  1
   1085   1836   1827   1830     1  0.0000000  0.0000000  2
   1085   1836   1827   1830     1  180.0000771  0.6276000  3
   1085   1836   1827   1830     1  180.0000771  2.0920000  4
   1086   1847   1838   1841     1  0.0000000  2.2175200  1
   1086   1847   1838   1841     1  0.0000000  0.0000000  2
   1086   1847   1838   1841     1  180.0000771  0.6276000  3
   1086   1847   1838   1841     1  180.0000771  2.0920000  4
   1087   1085   1836   1827     1  180.0000771  10.4600000  2
   1088   1086   1847   1838     1  180.0000771  10.4600000  2
   1091   1097   1098   1107     1  180.0000771  2.0083200  2
   1091   1097   1098   1107     1  0.0000000  1.2552000  3
   1091   1097   1101   1104     1  180.0000771  2.0083200  2
   1091   1097   1101   1104     1  0.0000000  1.2552000  3
   1094   1091   1097   1098     1  180.0000771  2.0083200  2
   1094   1091   1097   1098     1  0.0000000  1.2552000  3
   1094   1091   1097   1101     1  180.0000771  2.0083200  2
   1094   1091   1097   1101     1  0.0000000  1.2552000  3
   1097   1091   1094   1114     1  0.0000000  0.6508444  3
   1097   1098   1107   1111     1  0.0000000  0.6508444  3
   1097   1101   1104   1110     1  0.0000000  0.6508444  3
   1098   1097   1101   1104     1  180.0000771  2.0083200  2
   1098   1097   1101   1104     1  0.0000000  1.2552000  3
   1098   1107   1111   1113     1  180.0000771  0.0000000  2
   1098   1107   1111   1869     1  0.0000000  0.2928800  2
   1098   1107   1111   1869     1  0.0000000  0.4184000  4
   1101   1097   1098   1107     1  180.0000771  2.0083200  2
   1101   1097   1098   1107     1  0.0000000  1.2552000  3
   1101   1104   1110   1858     1  0.0000000  0.2928800  2
   1101   1104   1110   1858     1  0.0000000  0.4184000  4
   1101   1104   1110   1112     1  180.0000771  0.0000000  2
   1104   1110   1858   1849     1  180.0000771  6.2760000  1
   1104   1110   1858   1849     1  0.0000000  0.0000000  2
   1107   1111   1869   1860     1  180.0000771  6.2760000  1
   1107   1111   1869   1860     1  0.0000000  0.0000000  2
   1110   1858   1849   1852     1  0.0000000  2.2175200  1
   1110   1858   1849   1852     1  0.0000000  0.0000000  2
   1110   1858   1849   1852     1  180.0000771  0.6276000  3
   1110   1858   1849   1852     1  180.0000771  2.0920000  4
   1111   1869   1860   1863     1  0.0000000  2.2175200  1
   1111   1869   1860   1863     1  0.0000000  0.0000000  2
   1111   1869   1860   1863     1  180.0000771  0.6276000  3
   1111   1869   1860   1863     1  180.0000771  2.0920000  4
   1112   1110   1858   1849     1  180.0000771  10.4600000  2
   1113   1111   1869   1860     1  180.0000771  10.4600000  2
   1116   1122   1123   1132     1  180.0000771  2.0083200  2
   1116   1122   1123   1132     1  0.0000000  1.2552000  3
   1116   1122   1126   1129     1  180.0000771  2.0083200  2
   1116   1122   1126   1129     1  0.0000000  1.2552000  3
   1119   1116   1122   1123     1  180.0000771  2.0083200  2
   1119   1116   1122   1123     1  0.0000000  1.2552000  3
   1119   1116   1122   1126     1  180.0000771  2.0083200  2
   1119   1116   1122   1126     1  0.0000000  1.2552000  3
   1122   1116   1119   1139     1  0.0000000  0.6508444  3
   1122   1123   1132   1136     1  0.0000000  0.6508444  3
   1122   1126   1129   1135     1  0.0000000  0.6508444  3
   1123   1122   1126   1129     1  180.0000771  2.0083200  2
   1123   1122   1126   1129     1  0.0000000  1.2552000  3
   1123   1132   1136   1138     1  180.0000771  0.0000000  2
   1123   1132   1136   1891     1  0.0000000  0.2928800  2
   1123   1132   1136   1891     1  0.0000000  0.4184000  4
   1126   1122   1123   1132     1  180.0000771  2.0083200  2
   1126   1122   1123   1132     1  0.0000000  1.2552000  3
   1126   1129   1135   1880     1  0.0000000  0.2928800  2
   1126   1129   1135   1880     1  0.0000000  0.4184000  4
   1126   1129   1135   1137     1  180.0000771  0.0000000  2
   1129   1135   1880   1871     1  180.0000771  6.2760000  1
   1129   1135   1880   1871     1  0.0000000  0.0000000  2
   1132   1136   1891   1882     1  180.0000771  6.2760000  1
   1132   1136   1891   1882     1  0.0000000  0.0000000  2
   1135   1880   1871   1874     1  0.0000000  2.2175200  1
   1135   1880   1871   1874     1  0.0000000  0.0000000  2
   1135   1880   1871   1874     1  180.0000771  0.6276000  3
   1135   1880   1871   1874     1  180.0000771  2.0920000  4
   1136   1891   1882   1885     1  0.0000000  2.2175200  1
   1136   1891   1882   1885     1  0.0000000  0.0000000  2
   1136   1891   1882   1885     1  180.0000771  0.6276000  3
   1136   1891   1882   1885     1  180.0000771  2.0920000  4
   1137   1135   1880   1871     1  180.0000771  10.4600000  2
   1138   1136   1891   1882     1  180.0000771  10.4600000  2
   1141   1147   1148   1157     1  180.0000771  2.0083200  2
   1141   1147   1148   1157     1  0.0000000  1.2552000  3
   1141   1147   1151   1154     1  180.0000771  2.0083200  2
   1141   1147   1151   1154     1  0.0000000  1.2552000  3
   1144   1141   1147   1148     1  180.0000771  2.0083200  2
   1144   1141   1147   1148     1  0.0000000  1.2552000  3
   1144   1141   1147   1151     1  180.0000771  2.0083200  2
   1144   1141   1147   1151     1  0.0000000  1.2552000  3
   1147   1141   1144   1164     1  0.0000000  0.6508444  3
   1147   1148   1157   1161     1  0.0000000  0.6508444  3
   1147   1151   1154   1160     1  0.0000000  0.6508444  3
   1148   1147   1151   1154     1  180.0000771  2.0083200  2
   1148   1147   1151   1154     1  0.0000000  1.2552000  3
   1148   1157   1161   1163     1  180.0000771  0.0000000  2
   1148   1157   1161   1913     1  0.0000000  0.2928800  2
   1148   1157   1161   1913     1  0.0000000  0.4184000  4
   1151   1147   1148   1157     1  180.0000771  2.0083200  2
   1151   1147   1148   1157     1  0.0000000  1.2552000  3
   1151   1154   1160   1902     1  0.0000000  0.2928800  2
   1151   1154   1160   1902     1  0.0000000  0.4184000  4
   1151   1154   1160   1162     1  180.0000771  0.0000000  2
   1154   1160   1902   1893     1  180.0000771  6.2760000  1
   1154   1160   1902   1893     1  0.0000000  0.0000000  2
   1157   1161   1913   1904     1  180.0000771  6.2760000  1
   1157   1161   1913   1904     1  0.0000000  0.0000000  2
   1160   1902   1893   1896     1  0.0000000  2.2175200  1
   1160   1902   1893   1896     1  0.0000000  0.0000000  2
   1160   1902   1893   1896     1  180.0000771  0.6276000  3
   1160   1902   1893   1896     1  180.0000771  2.0920000  4
   1161   1913   1904   1907     1  0.0000000  2.2175200  1
   1161   1913   1904   1907     1  0.0000000  0.0000000  2
   1161   1913   1904   1907     1  180.0000771  0.6276000  3
   1161   1913   1904   1907     1  180.0000771  2.0920000  4
   1162   1160   1902   1893     1  180.0000771  10.4600000  2
   1163   1161   1913   1904     1  180.0000771  10.4600000  2
   1166   1172   1173   1182     1  180.0000771  2.0083200  2
   1166   1172   1173   1182     1  0.0000000  1.2552000  3
   1166   1172   1176   1179     1  180.0000771  2.0083200  2
   1166   1172   1176   1179     1  0.0000000  1.2552000  3
   1169   1166   1172   1173     1  180.0000771  2.0083200  2
   1169   1166   1172   1173     1  0.0000000  1.2552000  3
   1169   1166   1172   1176     1  180.0000771  2.0083200  2
   1169   1166   1172   1176     1  0.0000000  1.2552000  3
   1172   1166   1169   1189     1  0.0000000  0.6508444  3
   1172   1173   1182   1186     1  0.0000000  0.6508444  3
   1172   1176   1179   1185     1  0.0000000  0.6508444  3
   1173   1172   1176   1179     1  180.0000771  2.0083200  2
   1173   1172   1176   1179     1  0.0000000  1.2552000  3
   1173   1182   1186   1188     1  180.0000771  0.0000000  2
   1173   1182   1186   1935     1  0.0000000  0.2928800  2
   1173   1182   1186   1935     1  0.0000000  0.4184000  4
   1176   1172   1173   1182     1  180.0000771  2.0083200  2
   1176   1172   1173   1182     1  0.0000000  1.2552000  3
   1176   1179   1185   1924     1  0.0000000  0.2928800  2
   1176   1179   1185   1924     1  0.0000000  0.4184000  4
   1176   1179   1185   1187     1  180.0000771  0.0000000  2
   1179   1185   1924   1915     1  180.0000771  6.2760000  1
   1179   1185   1924   1915     1  0.0000000  0.0000000  2
   1182   1186   1935   1926     1  180.0000771  6.2760000  1
   1182   1186   1935   1926     1  0.0000000  0.0000000  2
   1185   1924   1915   1918     1  0.0000000  2.2175200  1
   1185   1924   1915   1918     1  0.0000000  0.0000000  2
   1185   1924   1915   1918     1  180.0000771  0.6276000  3
   1185   1924   1915   1918     1  180.0000771  2.0920000  4
   1186   1935   1926   1929     1  0.0000000  2.2175200  1
   1186   1935   1926   1929     1  0.0000000  0.0000000  2
   1186   1935   1926   1929     1  180.0000771  0.6276000  3
   1186   1935   1926   1929     1  180.0000771  2.0920000  4
   1187   1185   1924   1915     1  180.0000771  10.4600000  2
   1188   1186   1935   1926     1  180.0000771  10.4600000  2
   1191   1197   1198   1207     1  180.0000771  2.0083200  2
   1191   1197   1198   1207     1  0.0000000  1.2552000  3
   1191   1197   1201   1204     1  180.0000771  2.0083200  2
   1191   1197   1201   1204     1  0.0000000  1.2552000  3
   1194   1191   1197   1198     1  180.0000771  2.0083200  2
   1194   1191   1197   1198     1  0.0000000  1.2552000  3
   1194   1191   1197   1201     1  180.0000771  2.0083200  2
   1194   1191   1197   1201     1  0.0000000  1.2552000  3
   1197   1191   1194   1214     1  0.0000000  0.6508444  3
   1197   1198   1207   1211     1  0.0000000  0.6508444  3
   1197   1201   1204   1210     1  0.0000000  0.6508444  3
   1198   1197   1201   1204     1  180.0000771  2.0083200  2
   1198   1197   1201   1204     1  0.0000000  1.2552000  3
   1198   1207   1211   1213     1  180.0000771  0.0000000  2
   1198   1207   1211   1957     1  0.0000000  0.2928800  2
   1198   1207   1211   1957     1  0.0000000  0.4184000  4
   1201   1197   1198   1207     1  180.0000771  2.0083200  2
   1201   1197   1198   1207     1  0.0000000  1.2552000  3
   1201   1204   1210   1946     1  0.0000000  0.2928800  2
   1201   1204   1210   1946     1  0.0000000  0.4184000  4
   1201   1204   1210   1212     1  180.0000771  0.0000000  2
   1204   1210   1946   1937     1  180.0000771  6.2760000  1
   1204   1210   1946   1937     1  0.0000000  0.0000000  2
   1207   1211   1957   1948     1  180.0000771  6.2760000  1
   1207   1211   1957   1948     1  0.0000000  0.0000000  2
   1210   1946   1937   1940     1  0.0000000  2.2175200  1
   1210   1946   1937   1940     1  0.0000000  0.0000000  2
   1210   1946   1937   1940     1  180.0000771  0.6276000  3
   1210   1946   1937   1940     1  180.0000771  2.0920000  4
   1211   1957   1948   1951     1  0.0000000  2.2175200  1
   1211   1957   1948   1951     1  0.0000000  0.0000000  2
   1211   1957   1948   1951     1  180.0000771  0.6276000  3
   1211   1957   1948   1951     1  180.0000771  2.0920000  4
   1212   1210   1946   1937     1  180.0000771  10.4600000  2
   1213   1211   1957   1948     1  180.0000771  10.4600000  2
   1216   1222   1223   1232     1  180.0000771  2.0083200  2
   1216   1222   1223   1232     1  0.0000000  1.2552000  3
   1216   1222   1226   1229     1  180.0000771  2.0083200  2
   1216   1222   1226   1229     1  0.0000000  1.2552000  3
   1219   1216   1222   1223     1  180.0000771  2.0083200  2
   1219   1216   1222   1223     1  0.0000000  1.2552000  3
   1219   1216   1222   1226     1  180.0000771  2.0083200  2
   1219   1216   1222   1226     1  0.0000000  1.2552000  3
   1222   1216   1219   1239     1  0.0000000  0.6508444  3
   1222   1223   1232   1236     1  0.0000000  0.6508444  3
   1222   1226   1229   1235     1  0.0000000  0.6508444  3
   1223   1222   1226   1229     1  180.0000771  2.0083200  2
   1223   1222   1226   1229     1  0.0000000  1.2552000  3
   1223   1232   1236   1238     1  180.0000771  0.0000000  2
   1223   1232   1236   1979     1  0.0000000  0.2928800  2
   1223   1232   1236   1979     1  0.0000000  0.4184000  4
   1226   1222   1223   1232     1  180.0000771  2.0083200  2
   1226   1222   1223   1232     1  0.0000000  1.2552000  3
   1226   1229   1235   1968     1  0.0000000  0.2928800  2
   1226   1229   1235   1968     1  0.0000000  0.4184000  4
   1226   1229   1235   1237     1  180.0000771  0.0000000  2
   1229   1235   1968   1959     1  180.0000771  6.2760000  1
   1229   1235   1968   1959     1  0.0000000  0.0000000  2
   1232   1236   1979   1970     1  180.0000771  6.2760000  1
   1232   1236   1979   1970     1  0.0000000  0.0000000  2
   1235   1968   1959   1962     1  0.0000000  2.2175200  1
   1235   1968   1959   1962     1  0.0000000  0.0000000  2
   1235   1968   1959   1962     1  180.0000771  0.6276000  3
   1235   1968   1959   1962     1  180.0000771  2.0920000  4
   1236   1979   1970   1973     1  0.0000000  2.2175200  1
   1236   1979   1970   1973     1  0.0000000  0.0000000  2
   1236   1979   1970   1973     1  180.0000771  0.6276000  3
   1236   1979   1970   1973     1  180.0000771  2.0920000  4
   1237   1235   1968   1959     1  180.0000771  10.4600000  2
   1238   1236   1979   1970     1  180.0000771  10.4600000  2
   1241   1247   1248   1257     1  180.0000771  2.0083200  2
   1241   1247   1248   1257     1  0.0000000  1.2552000  3
   1241   1247   1251   1254     1  180.0000771  2.0083200  2
   1241   1247   1251   1254     1  0.0000000  1.2552000  3
   1244   1241   1247   1248     1  180.0000771  2.0083200  2
   1244   1241   1247   1248     1  0.0000000  1.2552000  3
   1244   1241   1247   1251     1  180.0000771  2.0083200  2
   1244   1241   1247   1251     1  0.0000000  1.2552000  3
   1247   1241   1244   1264     1  0.0000000  0.6508444  3
   1247   1248   1257   1261     1  0.0000000  0.6508444  3
   1247   1251   1254   1260     1  0.0000000  0.6508444  3
   1248   1247   1251   1254     1  180.0000771  2.0083200  2
   1248   1247   1251   1254     1  0.0000000  1.2552000  3
   1248   1257   1261   1263     1  180.0000771  0.0000000  2
   1248   1257   1261   2001     1  0.0000000  0.2928800  2
   1248   1257   1261   2001     1  0.0000000  0.4184000  4
   1251   1247   1248   1257     1  180.0000771  2.0083200  2
   1251   1247   1248   1257     1  0.0000000  1.2552000  3
   1251   1254   1260   1990     1  0.0000000  0.2928800  2
   1251   1254   1260   1990     1  0.0000000  0.4184000  4
   1251   1254   1260   1262     1  180.0000771  0.0000000  2
   1254   1260   1990   1981     1  180.0000771  6.2760000  1
   1254   1260   1990   1981     1  0.0000000  0.0000000  2
   1257   1261   2001   1992     1  180.0000771  6.2760000  1
   1257   1261   2001   1992     1  0.0000000  0.0000000  2
   1260   1990   1981   1984     1  0.0000000  2.2175200  1
   1260   1990   1981   1984     1  0.0000000  0.0000000  2
   1260   1990   1981   1984     1  180.0000771  0.6276000  3
   1260   1990   1981   1984     1  180.0000771  2.0920000  4
   1261   2001   1992   1995     1  0.0000000  2.2175200  1
   1261   2001   1992   1995     1  0.0000000  0.0000000  2
   1261   2001   1992   1995     1  180.0000771  0.6276000  3
   1261   2001   1992   1995     1  180.0000771  2.0920000  4
   1262   1260   1990   1981     1  180.0000771  10.4600000  2
   1263   1261   2001   1992     1  180.0000771  10.4600000  2
   1266   1272   1273   1282     1  180.0000771  2.0083200  2
   1266   1272   1273   1282     1  0.0000000  1.2552000  3
   1266   1272   1276   1279     1  180.0000771  2.0083200  2
   1266   1272   1276   1279     1  0.0000000  1.2552000  3
   1269   1266   1272   1273     1  180.0000771  2.0083200  2
   1269   1266   1272   1273     1  0.0000000  1.2552000  3
   1269   1266   1272   1276     1  180.0000771  2.0083200  2
   1269   1266   1272   1276     1  0.0000000  1.2552000  3
   1272   1266   1269   1289     1  0.0000000  0.6508444  3
   1272   1273   1282   1286     1  0.0000000  0.6508444  3
   1272   1276   1279   1285     1  0.0000000  0.6508444  3
   1273   1272   1276   1279     1  180.0000771  2.0083200  2
   1273   1272   1276   1279     1  0.0000000  1.2552000  3
   1273   1282   1286   1288     1  180.0000771  0.0000000  2
   1273   1282   1286   2023     1  0.0000000  0.2928800  2
   1273   1282   1286   2023     1  0.0000000  0.4184000  4
   1276   1272   1273   1282     1  180.0000771  2.0083200  2
   1276   1272   1273   1282     1  0.0000000  1.2552000  3
   1276   1279   1285   2012     1  0.0000000  0.2928800  2
   1276   1279   1285   2012     1  0.0000000  0.4184000  4
   1276   1279   1285   1287     1  180.0000771  0.0000000  2
   1279   1285   2012   2003     1  180.0000771  6.2760000  1
   1279   1285   2012   2003     1  0.0000000  0.0000000  2
   1282   1286   2023   2014     1  180.0000771  6.2760000  1
   1282   1286   2023   2014     1  0.0000000  0.0000000  2
   1285   2012   2003   2006     1  0.0000000  2.2175200  1
   1285   2012   2003   2006     1  0.0000000  0.0000000  2
   1285   2012   2003   2006     1  180.0000771  0.6276000  3
   1285   2012   2003   2006     1  180.0000771  2.0920000  4
   1286   2023   2014   2017     1  0.0000000  2.2175200  1
   1286   2023   2014   2017     1  0.0000000  0.0000000  2
   1286   2023   2014   2017     1  180.0000771  0.6276000  3
   1286   2023   2014   2017     1  180.0000771  2.0920000  4
   1287   1285   2012   2003     1  180.0000771  10.4600000  2
   1288   1286   2023   2014     1  180.0000771  10.4600000  2
   1291   1297   1298   1307     1  180.0000771  2.0083200  2
   1291   1297   1298   1307     1  0.0000000  1.2552000  3
   1291   1297   1301   1304     1  180.0000771  2.0083200  2
   1291   1297   1301   1304     1  0.0000000  1.2552000  3
   1294   1291   1297   1298     1  180.0000771  2.0083200  2
   1294   1291   1297   1298     1  0.0000000  1.2552000  3
   1294   1291   1297   1301     1  180.0000771  2.0083200  2
   1294   1291   1297   1301     1  0.0000000  1.2552000  3
   1297   1291   1294   1314     1  0.0000000  0.6508444  3
   1297   1298   1307   1311     1  0.0000000  0.6508444  3
   1297   1301   1304   1310     1  0.0000000  0.6508444  3
   1298   1297   1301   1304     1  180.0000771  2.0083200  2
   1298   1297   1301   1304     1  0.0000000  1.2552000  3
   1298   1307   1311   1313     1  180.0000771  0.0000000  2
   1298   1307   1311   2045     1  0.0000000  0.2928800  2
   1298   1307   1311   2045     1  0.0000000  0.4184000  4
   1301   1297   1298   1307     1  180.0000771  2.0083200  2
   1301   1297   1298   1307     1  0.0000000  1.2552000  3
   1301   1304   1310   2034     1  0.0000000  0.2928800  2
   1301   1304   1310   2034     1  0.0000000  0.4184000  4
   1301   1304   1310   1312     1  180.0000771  0.0000000  2
   1304   1310   2034   2025     1  180.0000771  6.2760000  1
   1304   1310   2034   2025     1  0.0000000  0.0000000  2
   1307   1311   2045   2036     1  180.0000771  6.2760000  1
   1307   1311   2045   2036     1  0.0000000  0.0000000  2
   1310   2034   2025   2028     1  0.0000000  2.2175200  1
   1310   2034   2025   2028     1  0.0000000  0.0000000  2
   1310   2034   2025   2028     1  180.0000771  0.6276000  3
   1310   2034   2025   2028     1  180.0000771  2.0920000  4
   1311   2045   2036   2039     1  0.0000000  2.2175200  1
   1311   2045   2036   2039     1  0.0000000  0.0000000  2
   1311   2045   2036   2039     1  180.0000771  0.6276000  3
   1311   2045   2036   2039     1  180.0000771  2.0920000  4
   1312   1310   2034   2025     1  180.0000771  10.4600000  2
   1313   1311   2045   2036     1  180.0000771  10.4600000  2
   1316   1322   1323   1332     1  180.0000771  2.0083200  2
   1316   1322   1323   1332     1  0.0000000  1.2552000  3
   1316   1322   1326   1329     1  180.0000771  2.0083200  2
   1316   1322   1326   1329     1  0.0000000  1.2552000  3
   1319   1316   1322   1323     1  180.0000771  2.0083200  2
   1319   1316   1322   1323     1  0.0000000  1.2552000  3
   1319   1316   1322   1326     1  180.0000771  2.0083200  2
   1319   1316   1322   1326     1  0.0000000  1.2552000  3
   1322   1316   1319   1339     1  0.0000000  0.6508444  3
   1322   1323   1332   1336     1  0.0000000  0.6508444  3
   1322   1326   1329   1335     1  0.0000000  0.6508444  3
   1323   1322   1326   1329     1  180.0000771  2.0083200  2
   1323   1322   1326   1329     1  0.0000000  1.2552000  3
   1323   1332   1336   1338     1  180.0000771  0.0000000  2
   1323   1332   1336   2067     1  0.0000000  0.2928800  2
   1323   1332   1336   2067     1  0.0000000  0.4184000  4
   1326   1322   1323   1332     1  180.0000771  2.0083200  2
   1326   1322   1323   1332     1  0.0000000  1.2552000  3
   1326   1329   1335   2056     1  0.0000000  0.2928800  2
   1326   1329   1335   2056     1  0.0000000  0.4184000  4
   1326   1329   1335   1337     1  180.0000771  0.0000000  2
   1329   1335   2056   2047     1  180.0000771  6.2760000  1
   1329   1335   2056   2047     1  0.0000000  0.0000000  2
   1332   1336   2067   2058     1  180.0000771  6.2760000  1
   1332   1336   2067   2058     1  0.0000000  0.0000000  2
   1335   2056   2047   2050     1  0.0000000  2.2175200  1
   1335   2056   2047   2050     1  0.0000000  0.0000000  2
   1335   2056   2047   2050     1  180.0000771  0.6276000  3
   1335   2056   2047   2050     1  180.0000771  2.0920000  4
   1336   2067   2058   2061     1  0.0000000  2.2175200  1
   1336   2067   2058   2061     1  0.0000000  0.0000000  2
   1336   2067   2058   2061     1  180.0000771  0.6276000  3
   1336   2067   2058   2061     1  180.0000771  2.0920000  4
   1337   1335   2056   2047     1  180.0000771  10.4600000  2
   1338   1336   2067   2058     1  180.0000771  10.4600000  2
   1341   1347   1348   1357     1  180.0000771  2.0083200  2
   1341   1347   1348   1357     1  0.0000000  1.2552000  3
   1341   1347   1351   1354     1  180.0000771  2.0083200  2
   1341   1347   1351   1354     1  0.0000000  1.2552000  3
   1344   1341   1347   1348     1  180.0000771  2.0083200  2
   1344   1341   1347   1348     1  0.0000000  1.2552000  3
   1344   1341   1347   1351     1  180.0000771  2.0083200  2
   1344   1341   1347   1351     1  0.0000000  1.2552000  3
   1347   1341   1344   1364     1  0.0000000  0.6508444  3
   1347   1348   1357   1361     1  0.0000000  0.6508444  3
   1347   1351   1354   1360     1  0.0000000  0.6508444  3
   1348   1347   1351   1354     1  180.0000771  2.0083200  2
   1348   1347   1351   1354     1  0.0000000  1.2552000  3
   1348   1357   1361   1363     1  180.0000771  0.0000000  2
   1348   1357   1361   2089     1  0.0000000  0.2928800  2
   1348   1357   1361   2089     1  0.0000000  0.4184000  4
   1351   1347   1348   1357     1  180.0000771  2.0083200  2
   1351   1347   1348   1357     1  0.0000000  1.2552000  3
   1351   1354   1360   2078     1  0.0000000  0.2928800  2
   1351   1354   1360   2078     1  0.0000000  0.4184000  4
   1351   1354   1360   1362     1  180.0000771  0.0000000  2
   1354   1360   2078   2069     1  180.0000771  6.2760000  1
   1354   1360   2078   2069     1  0.0000000  0.0000000  2
   1357   1361   2089   2080     1  180.0000771  6.2760000  1
   1357   1361   2089   2080     1  0.0000000  0.0000000  2
   1360   2078   2069   2072     1  0.0000000  2.2175200  1
   1360   2078   2069   2072     1  0.0000000  0.0000000  2
   1360   2078   2069   2072     1  180.0000771  0.6276000  3
   1360   2078   2069   2072     1  180.0000771  2.0920000  4
   1361   2089   2080   2083     1  0.0000000  2.2175200  1
   1361   2089   2080   2083     1  0.0000000  0.0000000  2
   1361   2089   2080   2083     1  180.0000771  0.6276000  3
   1361   2089   2080   2083     1  180.0000771  2.0920000  4
   1362   1360   2078   2069     1  180.0000771  10.4600000  2
   1363   1361   2089   2080     1  180.0000771  10.4600000  2
   1366   1372   1373   1382     1  180.0000771  2.0083200  2
   1366   1372   1373   1382     1  0.0000000  1.2552000  3
   1366   1372   1376   1379     1  180.0000771  2.0083200  2
   1366   1372   1376   1379     1  0.0000000  1.2552000  3
   1369   1366   1372   1373     1  180.0000771  2.0083200  2
   1369   1366   1372   1373     1  0.0000000  1.2552000  3
   1369   1366   1372   1376     1  180.0000771  2.0083200  2
   1369   1366   1372   1376     1  0.0000000  1.2552000  3
   1372   1366   1369   1389     1  0.0000000  0.6508444  3
   1372   1373   1382   1386     1  0.0000000  0.6508444  3
   1372   1376   1379   1385     1  0.0000000  0.6508444  3
   1373   1372   1376   1379     1  180.0000771  2.0083200  2
   1373   1372   1376   1379     1  0.0000000  1.2552000  3
   1373   1382   1386   1388     1  180.0000771  0.0000000  2
   1373   1382   1386   2111     1  0.0000000  0.2928800  2
   1373   1382   1386   2111     1  0.0000000  0.4184000  4
   1376   1372   1373   1382     1  180.0000771  2.0083200  2
   1376   1372   1373   1382     1  0.0000000  1.2552000  3
   1376   1379   1385   2100     1  0.0000000  0.2928800  2
   1376   1379   1385   2100     1  0.0000000  0.4184000  4
   1376   1379   1385   1387     1  180.0000771  0.0000000  2
   1379   1385   2100   2091     1  180.0000771  6.2760000  1
   1379   1385   2100   2091     1  0.0000000  0.0000000  2
   1382   1386   2111   2102     1  180.0000771  6.2760000  1
   1382   1386   2111   2102     1  0.0000000  0.0000000  2
   1385   2100   2091   2094     1  0.0000000  2.2175200  1
   1385   2100   2091   2094     1  0.0000000  0.0000000  2
   1385   2100   2091   2094     1  180.0000771  0.6276000  3
   1385   2100   2091   2094     1  180.0000771  2.0920000  4
   1386   2111   2102   2105     1  0.0000000  2.2175200  1
   1386   2111   2102   2105     1  0.0000000  0.0000000  2
   1386   2111   2102   2105     1  180.0000771  0.6276000  3
   1386   2111   2102   2105     1  180.0000771  2.0920000  4
   1387   1385   2100   2091     1  180.0000771  10.4600000  2
   1388   1386   2111   2102     1  180.0000771  10.4600000  2
   1391   1397   1398   1407     1  180.0000771  2.0083200  2
   1391   1397   1398   1407     1  0.0000000  1.2552000  3
   1391   1397   1401   1404     1  180.0000771  2.0083200  2
   1391   1397   1401   1404     1  0.0000000  1.2552000  3
   1394   1391   1397   1398     1  180.0000771  2.0083200  2
   1394   1391   1397   1398     1  0.0000000  1.2552000  3
   1394   1391   1397   1401     1  180.0000771  2.0083200  2
   1394   1391   1397   1401     1  0.0000000  1.2552000  3
   1397   1391   1394   1414     1  0.0000000  0.6508444  3
   1397   1398   1407   1411     1  0.0000000  0.6508444  3
   1397   1401   1404   1410     1  0.0000000  0.6508444  3
   1398   1397   1401   1404     1  180.0000771  2.0083200  2
   1398   1397   1401   1404     1  0.0000000  1.2552000  3
   1398   1407   1411   1413     1  180.0000771  0.0000000  2
   1398   1407   1411   2133     1  0.0000000  0.2928800  2
   1398   1407   1411   2133     1  0.0000000  0.4184000  4
   1401   1397   1398   1407     1  180.0000771  2.0083200  2
   1401   1397   1398   1407     1  0.0000000  1.2552000  3
   1401   1404   1410   2122     1  0.0000000  0.2928800  2
   1401   1404   1410   2122     1  0.0000000  0.4184000  4
   1401   1404   1410   1412     1  180.0000771  0.0000000  2
   1404   1410   2122   2113     1  180.0000771  6.2760000  1
   1404   1410   2122   2113     1  0.0000000  0.0000000  2
   1407   1411   2133   2124     1  180.0000771  6.2760000  1
   1407   1411   2133   2124     1  0.0000000  0.0000000  2
   1410   2122   2113   2116     1  0.0000000  2.2175200  1
   1410   2122   2113   2116     1  0.0000000  0.0000000  2
   1410   2122   2113   2116     1  180.0000771  0.6276000  3
   1410   2122   2113   2116     1  180.0000771  2.0920000  4
   1411   2133   2124   2127     1  0.0000000  2.2175200  1
   1411   2133   2124   2127     1  0.0000000  0.0000000  2
   1411   2133   2124   2127     1  180.0000771  0.6276000  3
   1411   2133   2124   2127     1  180.0000771  2.0920000  4
   1412   1410   2122   2113     1  180.0000771  10.4600000  2
   1413   1411   2133   2124     1  180.0000771  10.4600000  2
   1416   1422   1423   1432     1  180.0000771  2.0083200  2
   1416   1422   1423   1432     1  0.0000000  1.2552000  3
   1416   1422   1426   1429     1  180.0000771  2.0083200  2
   1416   1422   1426   1429     1  0.0000000  1.2552000  3
   1419   1416   1422   1423     1  180.0000771  2.0083200  2
   1419   1416   1422   1423     1  0.0000000  1.2552000  3
   1419   1416   1422   1426     1  180.0000771  2.0083200  2
   1419   1416   1422   1426     1  0.0000000  1.2552000  3
   1422   1416   1419   1439     1  0.0000000  0.6508444  3
   1422   1423   1432   1436     1  0.0000000  0.6508444  3
   1422   1426   1429   1435     1  0.0000000  0.6508444  3
   1423   1422   1426   1429     1  180.0000771  2.0083200  2
   1423   1422   1426   1429     1  0.0000000  1.2552000  3
   1423   1432   1436   1438     1  180.0000771  0.0000000  2
   1423   1432   1436   2155     1  0.0000000  0.2928800  2
   1423   1432   1436   2155     1  0.0000000  0.4184000  4
   1426   1422   1423   1432     1  180.0000771  2.0083200  2
   1426   1422   1423   1432     1  0.0000000  1.2552000  3
   1426   1429   1435   2144     1  0.0000000  0.2928800  2
   1426   1429   1435   2144     1  0.0000000  0.4184000  4
   1426   1429   1435   1437     1  180.0000771  0.0000000  2
   1429   1435   2144   2135     1  180.0000771  6.2760000  1
   1429   1435   2144   2135     1  0.0000000  0.0000000  2
   1432   1436   2155   2146     1  180.0000771  6.2760000  1
   1432   1436   2155   2146     1  0.0000000  0.0000000  2
   1435   2144   2135   2138     1  0.0000000  2.2175200  1
   1435   2144   2135   2138     1  0.0000000  0.0000000  2
   1435   2144   2135   2138     1  180.0000771  0.6276000  3
   1435   2144   2135   2138     1  180.0000771  2.0920000  4
   1436   2155   2146   2149     1  0.0000000  2.2175200  1
   1436   2155   2146   2149     1  0.0000000  0.0000000  2
   1436   2155   2146   2149     1  180.0000771  0.6276000  3
   1436   2155   2146   2149     1  180.0000771  2.0920000  4
   1437   1435   2144   2135     1  180.0000771  10.4600000  2
   1438   1436   2155   2146     1  180.0000771  10.4600000  2
   1441   1447   1448   1457     1  180.0000771  2.0083200  2
   1441   1447   1448   1457     1  0.0000000  1.2552000  3
   1441   1447   1451   1454     1  180.0000771  2.0083200  2
   1441   1447   1451   1454     1  0.0000000  1.2552000  3
   1444   1441   1447   1448     1  180.0000771  2.0083200  2
   1444   1441   1447   1448     1  0.0000000  1.2552000  3
   1444   1441   1447   1451     1  180.0000771  2.0083200  2
   1444   1441   1447   1451     1  0.0000000  1.2552000  3
   1447   1441   1444   1464     1  0.0000000  0.6508444  3
   1447   1448   1457   1461     1  0.0000000  0.6508444  3
   1447   1451   1454   1460     1  0.0000000  0.6508444  3
   1448   1447   1451   1454     1  180.0000771  2.0083200  2
   1448   1447   1451   1454     1  0.0000000  1.2552000  3
   1448   1457   1461   1463     1  180.0000771  0.0000000  2
   1448   1457   1461   2177     1  0.0000000  0.2928800  2
   1448   1457   1461   2177     1  0.0000000  0.4184000  4
   1451   1447   1448   1457     1  180.0000771  2.0083200  2
   1451   1447   1448   1457     1  0.0000000  1.2552000  3
   1451   1454   1460   2166     1  0.0000000  0.2928800  2
   1451   1454   1460   2166     1  0.0000000  0.4184000  4
   1451   1454   1460   1462     1  180.0000771  0.0000000  2
   1454   1460   2166   2157     1  180.0000771  6.2760000  1
   1454   1460   2166   2157     1  0.0000000  0.0000000  2
   1457   1461   2177   2168     1  180.0000771  6.2760000  1
   1457   1461   2177   2168     1  0.0000000  0.0000000  2
   1460   2166   2157   2160     1  0.0000000  2.2175200  1
   1460   2166   2157   2160     1  0.0000000  0.0000000  2
   1460   2166   2157   2160     1  180.0000771  0.6276000  3
   1460   2166   2157   2160     1  180.0000771  2.0920000  4
   1461   2177   2168   2171     1  0.0000000  2.2175200  1
   1461   2177   2168   2171     1  0.0000000  0.0000000  2
   1461   2177   2168   2171     1  180.0000771  0.6276000  3
   1461   2177   2168   2171     1  180.0000771  2.0920000  4
   1462   1460   2166   2157     1  180.0000771  10.4600000  2
   1463   1461   2177   2168     1  180.0000771  10.4600000  2
   1466   1472   1473   1482     1  180.0000771  2.0083200  2
   1466   1472   1473   1482     1  0.0000000  1.2552000  3
   1466   1472   1476   1479     1  180.0000771  2.0083200  2
   1466   1472   1476   1479     1  0.0000000  1.2552000  3
   1469   1466   1472   1473     1  180.0000771  2.0083200  2
   1469   1466   1472   1473     1  0.0000000  1.2552000  3
   1469   1466   1472   1476     1  180.0000771  2.0083200  2
   1469   1466   1472   1476     1  0.0000000  1.2552000  3
   1472   1466   1469   1489     1  0.0000000  0.6508444  3
   1472   1473   1482   1486     1  0.0000000  0.6508444  3
   1472   1476   1479   1485     1  0.0000000  0.6508444  3
   1473   1472   1476   1479     1  180.0000771  2.0083200  2
   1473   1472   1476   1479     1  0.0000000  1.2552000  3
   1473   1482   1486   1488     1  180.0000771  0.0000000  2
   1473   1482   1486   2199     1  0.0000000  0.2928800  2
   1473   1482   1486   2199     1  0.0000000  0.4184000  4
   1476   1472   1473   1482     1  180.0000771  2.0083200  2
   1476   1472   1473   1482     1  0.0000000  1.2552000  3
   1476   1479   1485   2188     1  0.0000000  0.2928800  2
   1476   1479   1485   2188     1  0.0000000  0.4184000  4
   1476   1479   1485   1487     1  180.0000771  0.0000000  2
   1479   1485   2188   2179     1  180.0000771  6.2760000  1
   1479   1485   2188   2179     1  0.0000000  0.0000000  2
   1482   1486   2199   2190     1  180.0000771  6.2760000  1
   1482   1486   2199   2190     1  0.0000000  0.0000000  2
   1485   2188   2179   2182     1  0.0000000  2.2175200  1
   1485   2188   2179   2182     1  0.0000000  0.0000000  2
   1485   2188   2179   2182     1  180.0000771  0.6276000  3
   1485   2188   2179   2182     1  180.0000771  2.0920000  4
   1486   2199   2190   2193     1  0.0000000  2.2175200  1
   1486   2199   2190   2193     1  0.0000000  0.0000000  2
   1486   2199   2190   2193     1  180.0000771  0.6276000  3
   1486   2199   2190   2193     1  180.0000771  2.0920000  4
   1487   1485   2188   2179     1  180.0000771  10.4600000  2
   1488   1486   2199   2190     1  180.0000771  10.4600000  2
   1491   1497   1498   1507     1  180.0000771  2.0083200  2
   1491   1497   1498   1507     1  0.0000000  1.2552000  3
   1491   1497   1501   1504     1  180.0000771  2.0083200  2
   1491   1497   1501   1504     1  0.0000000  1.2552000  3
   1494   1491   1497   1498     1  180.0000771  2.0083200  2
   1494   1491   1497   1498     1  0.0000000  1.2552000  3
   1494   1491   1497   1501     1  180.0000771  2.0083200  2
   1494   1491   1497   1501     1  0.0000000  1.2552000  3
   1497   1491   1494   1514     1  0.0000000  0.6508444  3
   1497   1498   1507   1511     1  0.0000000  0.6508444  3
   1497   1501   1504   1510     1  0.0000000  0.6508444  3
   1498   1497   1501   1504     1  180.0000771  2.0083200  2
   1498   1497   1501   1504     1  0.0000000  1.2552000  3
   1498   1507   1511   1513     1  180.0000771  0.0000000  2
   1498   1507   1511   2221     1  0.0000000  0.2928800  2
   1498   1507   1511   2221     1  0.0000000  0.4184000  4
   1501   1497   1498   1507     1  180.0000771  2.0083200  2
   1501   1497   1498   1507     1  0.0000000  1.2552000  3
   1501   1504   1510   2210     1  0.0000000  0.2928800  2
   1501   1504   1510   2210     1  0.0000000  0.4184000  4
   1501   1504   1510   1512     1  180.0000771  0.0000000  2
   1504   1510   2210   2201     1  180.0000771  6.2760000  1
   1504   1510   2210   2201     1  0.0000000  0.0000000  2
   1507   1511   2221   2212     1  180.0000771  6.2760000  1
   1507   1511   2221   2212     1  0.0000000  0.0000000  2
   1510   2210   2201   2204     1  0.0000000  2.2175200  1
   1510   2210   2201   2204     1  0.0000000  0.0000000  2
   1510   2210   2201   2204     1  180.0000771  0.6276000  3
   1510   2210   2201   2204     1  180.0000771  2.0920000  4
   1511   2221   2212   2215     1  0.0000000  2.2175200  1
   1511   2221   2212   2215     1  0.0000000  0.0000000  2
   1511   2221   2212   2215     1  180.0000771  0.6276000  3
   1511   2221   2212   2215     1  180.0000771  2.0920000  4
   1512   1510   2210   2201     1  180.0000771  10.4600000  2
   1513   1511   2221   2212     1  180.0000771  10.4600000  2
   1516   1522   1523   1532     1  180.0000771  2.0083200  2
   1516   1522   1523   1532     1  0.0000000  1.2552000  3
   1516   1522   1526   1529     1  180.0000771  2.0083200  2
   1516   1522   1526   1529     1  0.0000000  1.2552000  3
   1519   1516   1522   1523     1  180.0000771  2.0083200  2
   1519   1516   1522   1523     1  0.0000000  1.2552000  3
   1519   1516   1522   1526     1  180.0000771  2.0083200  2
   1519   1516   1522   1526     1  0.0000000  1.2552000  3
   1522   1516   1519   1539     1  0.0000000  0.6508444  3
   1522   1523   1532   1536     1  0.0000000  0.6508444  3
   1522   1526   1529   1535     1  0.0000000  0.6508444  3
   1523   1522   1526   1529     1  180.0000771  2.0083200  2
   1523   1522   1526   1529     1  0.0000000  1.2552000  3
   1523   1532   1536   2243     1  0.0000000  0.2928800  2
   1523   1532   1536   2243     1  0.0000000  0.4184000  4
   1523   1532   1536   1538     1  180.0000771  0.0000000  2
   1526   1522   1523   1532     1  180.0000771  2.0083200  2
   1526   1522   1523   1532     1  0.0000000  1.2552000  3
   1526   1529   1535   2232     1  0.0000000  0.2928800  2
   1526   1529   1535   2232     1  0.0000000  0.4184000  4
   1526   1529   1535   1537     1  180.0000771  0.0000000  2
   1529   1535   2232   2223     1  180.0000771  6.2760000  1
   1529   1535   2232   2223     1  0.0000000  0.0000000  2
   1532   1536   2243   2234     1  180.0000771  6.2760000  1
   1532   1536   2243   2234     1  0.0000000  0.0000000  2
   1535   2232   2223   2226     1  0.0000000  2.2175200  1
   1535   2232   2223   2226     1  0.0000000  0.0000000  2
   1535   2232   2223   2226     1  180.0000771  0.6276000  3
   1535   2232   2223   2226     1  180.0000771  2.0920000  4
   1536   2243   2234   2237     1  0.0000000  2.2175200  1
   1536   2243   2234   2237     1  0.0000000  0.0000000  2
   1536   2243   2234   2237     1  180.0000771  0.6276000  3
   1536   2243   2234   2237     1  180.0000771  2.0920000  4
   1537   1535   2232   2223     1  180.0000771  10.4600000  2
   1538   1536   2243   2234     1  180.0000771  10.4600000  2
   1547   1544   1541   1550     1  0.0000000  0.6508444  3
   1558   1555   1552   1561     1  0.0000000  0.6508444  3
   1569   1566   1563   1572     1  0.0000000  0.6508444  3
   1580   1577   1574   1583     1  0.0000000  0.6508444  3
   1591   1588   1585   1594     1  0.0000000  0.6508444  3
   1602   1599   1596   1605     1  0.0000000  0.6508444  3
   1613   1610   1607   1616     1  0.0000000  0.6508444  3
   1624   1621   1618   1627     1  0.0000000  0.6508444  3
   1635   1632   1629   1638     1  0.0000000  0.6508444  3
   1646   1643   1640   1649     1  0.0000000  0.6508444  3
   1657   1654   1651   1660     1  0.0000000  0.6508444  3
   1668   1665   1662   1671     1  0.0000000  0.6508444  3
   1679   1676   1673   1682     1  0.0000000  0.6508444  3
   1690   1687   1684   1693     1  0.0000000  0.6508444  3
   1701   1698   1695   1704     1  0.0000000  0.6508444  3
   1712   1709   1706   1715     1  0.0000000  0.6508444  3
   1723   1720   1717   1726     1  0.0000000  0.6508444  3
   1734   1731   1728   1737     1  0.0000000  0.6508444  3
   1745   1742   1739   1748     1  0.0000000  0.6508444  3
   1756   1753   1750   1759     1  0.0000000  0.6508444  3
   1767   1764   1761   1770     1  0.0000000  0.6508444  3
   1778   1775   1772   1781     1  0.0000000  0.6508444  3
   1789   1786   1783   1792     1  0.0000000  0.6508444  3
   1800   1797   1794   1803     1  0.0000000  0.6508444  3
   1811   1808   1805   1814     1  0.0000000  0.6508444  3
   1822   1819   1816   1825     1  0.0000000  0.6508444  3
   1833   1830   1827   1836     1  0.0000000  0.6508444  3
   1844   1841   1838   1847     1  0.0000000  0.6508444  3
   1855   1852   1849   1858     1  0.0000000  0.6508444  3
   1866   1863   1860   1869     1  0.0000000  0.6508444  3
   1877   1874   1871   1880     1  0.0000000  0.6508444  3
   1888   1885   1882   1891     1  0.0000000  0.6508444  3
   1899   1896   1893   1902     1  0.0000000  0.6508444  3
   1910   1907   1904   1913     1  0.0000000  0.6508444  3
   1921   1918   1915   1924     1  0.0000000  0.6508444  3
   1932   1929   1926   1935     1  0.0000000  0.6508444  3
   1943   1940   1937   1946     1  0.0000000  0.6508444  3
   1954   1951   1948   1957     1  0.0000000  0.6508444  3
   1965   1962   1959   1968     1  0.0000000  0.6508444  3
   1976   1973   1970   1979     1  0.0000000  0.6508444  3
   1987   1984   1981   1990     1  0.0000000  0.6508444  3
   1998   1995   1992   2001     1  0.0000000  0.6508444  3
   2009   2006   2003   2012     1  0.0000000  0.6508444  3
   2020   2017   2014   2023     1  0.0000000  0.6508444  3
   2031   2028   2025   2034     1  0.0000000  0.6508444  3
   2042   2039   2036   2045     1  0.0000000  0.6508444  3
   2053   2050   2047   2056     1  0.0000000  0.6508444  3
   2064   2061   2058   2067     1  0.0000000  0.6508444  3
   2075   2072   2069   2078     1  0.0000000  0.6508444  3
   2086   2083   2080   2089     1  0.0000000  0.6508444  3
   2097   2094   2091   2100     1  0.0000000  0.6508444  3
   2108   2105   2102   2111     1  0.0000000  0.6508444  3
   2119   2116   2113   2122     1  0.0000000  0.6508444  3
   2130   2127   2124   2133     1  0.0000000  0.6508444  3
   2141   2138   2135   2144     1  0.0000000  0.6508444  3
   2152   2149   2146   2155     1  0.0000000  0.6508444  3
   2163   2160   2157   2166     1  0.0000000  0.6508444  3
   2174   2171   2168   2177     1  0.0000000  0.6508444  3
   2185   2182   2179   2188     1  0.0000000  0.6508444  3
   2196   2193   2190   2199     1  0.0000000  0.6508444  3
   2207   2204   2201   2210     1  0.0000000  0.6508444  3
   2218   2215   2212   2221     1  0.0000000  0.6508444  3
   2229   2226   2223   2232     1  0.0000000  0.6508444  3
   2240   2237   2234   2243     1  0.0000000  0.6508444  3
     27     64     33     37     4  180.0000771  43.9320000  2
     30     89     34     40     4  180.0000771  43.9320000  2
     21    114     35     38     4  180.0000771  43.9320000  2
     24    139     36     39     4  180.0000771  43.9320000  2
     54    164     60     62     4  180.0000771  43.9320000  2
     57    189     61     63     4  180.0000771  43.9320000  2
     79    214     85     87     4  180.0000771  43.9320000  2
     82    239     86     88     4  180.0000771  43.9320000  2
    104    264    110    112     4  180.0000771  43.9320000  2
    107    289    111    113     4  180.0000771  43.9320000  2
    129    314    135    137     4  180.0000771  43.9320000  2
    132    339    136    138     4  180.0000771  43.9320000  2
    154    364    160    162     4  180.0000771  43.9320000  2
    157    389    161    163     4  180.0000771  43.9320000  2
    179    414    185    187     4  180.0000771  43.9320000  2
    182    439    186    188     4  180.0000771  43.9320000  2
    204    464    210    212     4  180.0000771  43.9320000  2
    207    489    211    213     4  180.0000771  43.9320000  2
    229    514    235    237     4  180.0000771  43.9320000  2
    232    539    236    238     4  180.0000771  43.9320000  2
    254    564    260    262     4  180.0000771  43.9320000  2
    257    589    261    263     4  180.0000771  43.9320000  2
    279    614    285    287     4  180.0000771  43.9320000  2
    282    639    286    288     4  180.0000771  43.9320000  2
    304    664    310    312     4  180.0000771  43.9320000  2
    307    689    311    313     4  180.0000771  43.9320000  2
    329    714    335    337     4  180.0000771  43.9320000  2
    332    739    336    338     4  180.0000771  43.9320000  2
    354    764    360    362     4  180.0000771  43.9320000  2
    357    789    361    363     4  180.0000771  43.9320000  2
    379    814    385    387     4  180.0000771  43.9320000  2
    382    839    386    388     4  180.0000771  43.9320000  2
    404    864    410    412     4  180.0000771  43.9320000  2
    407    889    411    413     4  180.0000771  43.9320000  2
    429    914    435    437     4  180.0000771  43.9320000  2
    432    939    436    438     4  180.0000771  43.9320000  2
    454    964    460    462     4  180.0000771  43.9320000  2
    457    989    461    463     4  180.0000771  43.9320000  2
    479   1014    485    487     4  180.0000771  43.9320000  2
    482   1039    486    488     4  180.0000771  43.9320000  2
    504   1064    510    512     4  180.0000771  43.9320000  2
    507   1089    511    513     4  180.0000771  43.9320000  2
    529   1114    535    537     4  180.0000771  43.9320000  2
    532   1139    536    538     4  180.0000771  43.9320000  2
    554   1164    560    562     4  180.0000771  43.9320000  2
    557   1189    561    563     4  180.0000771  43.9320000  2
    579   1214    585    587     4  180.0000771  43.9320000  2
    582   1239    586    588     4  180.0000771  43.9320000  2
    604   1264    610    612     4  180.0000771  43.9320000  2
    607   1289    611    613     4  180.0000771  43.9320000  2
    629   1314    635    637     4  180.0000771  43.9320000  2
    632   1339    636    638     4  180.0000771  43.9320000  2
    654   1364    660    662     4  180.0000771  43.9320000  2
    657   1389    661    663     4  180.0000771  43.9320000  2
    679   1414    685    687     4  180.0000771  43.9320000  2
    682   1439    686    688     4  180.0000771  43.9320000  2
    704   1464    710    712     4  180.0000771  43.9320000  2
    707   1489    711    713     4  180.0000771  43.9320000  2
    729   1514    735    737     4  180.0000771  43.9320000  2
    732   1539    736    738     4  180.0000771  43.9320000  2
    754   1550    760    762     4  180.0000771  43.9320000  2
    757   1561    761    763     4  180.0000771  43.9320000  2
    779   1572    785    787     4  180.0000771  43.9320000  2
    782   1583    786    788     4  180.0000771  43.9320000  2
    804   1594    810    812     4  180.0000771  43.9320000  2
    807   1605    811    813     4  180.0000771  43.9320000  2
    829   1616    835    837     4  180.0000771  43.9320000  2
    832   1627    836    838     4  180.0000771  43.9320000  2
    854   1638    860    862     4  180.0000771  43.9320000  2
    857   1649    861    863     4  180.0000771  43.9320000  2
    879   1660    885    887     4  180.0000771  43.9320000  2
    882   1671    886    888     4  180.0000771  43.9320000  2
    904   1682    910    912     4  180.0000771  43.9320000  2
    907   1693    911    913     4  180.0000771  43.9320000  2
    929   1704    935    937     4  180.0000771  43.9320000  2
    932   1715    936    938     4  180.0000771  43.9320000  2
    954   1726    960    962     4  180.0000771  43.9320000  2
    957   1737    961    963     4  180.0000771  43.9320000  2
    979   1748    985    987     4  180.0000771  43.9320000  2
    982   1759    986    988     4  180.0000771  43.9320000  2
   1004   1770   1010   1012     4  180.0000771  43.9320000  2
   1007   1781   1011   1013     4  180.0000771  43.9320000  2
   1029   1792   1035   1037     4  180.0000771  43.9320000  2
   1032   1803   1036   1038     4  180.0000771  43.9320000  2
   1054   1814   1060   1062     4  180.0000771  43.9320000  2
   1057   1825   1061   1063     4  180.0000771  43.9320000  2
   1079   1836   1085   1087     4  180.0000771  43.9320000  2
   1082   1847   1086   1088     4  180.0000771  43.9320000  2
   1104   1858   1110   1112     4  180.0000771  43.9320000  2
   1107   1869   1111   1113     4  180.0000771  43.9320000  2
   1129   1880   1135   1137     4  180.0000771  43.9320000  2
   1132   1891   1136   1138     4  180.0000771  43.9320000  2
   1154   1902   1160   1162     4  180.0000771  43.9320000  2
   1157   1913   1161   1163     4  180.0000771  43.9320000  2
   1179   1924   1185   1187     4  180.0000771  43.9320000  2
   1182   1935   1186   1188     4  180.0000771  43.9320000  2
   1204   1946   1210   1212     4  180.0000771  43.9320000  2
   1207   1957   1211   1213     4  180.0000771  43.9320000  2
   1229   1968   1235   1237     4  180.0000771  43.9320000  2
   1232   1979   1236   1238     4  180.0000771  43.9320000  2
   1254   1990   1260   1262     4  180.0000771  43.9320000  2
   1257   2001   1261   1263     4  180.0000771  43.9320000  2
   1279   2012   1285   1287     4  180.0000771  43.9320000  2
   1282   2023   1286   1288     4  180.0000771  43.9320000  2
   1304   2034   1310   1312     4  180.0000771  43.9320000  2
   1307   2045   1311   1313     4  180.0000771  43.9320000  2
   1329   2056   1335   1337     4  180.0000771  43.9320000  2
   1332   2067   1336   1338     4  180.0000771  43.9320000  2
   1354   2078   1360   1362     4  180.0000771  43.9320000  2
   1357   2089   1361   1363     4  180.0000771  43.9320000  2
   1379   2100   1385   1387     4  180.0000771  43.9320000  2
   1382   2111   1386   1388     4  180.0000771  43.9320000  2
   1404   2122   1410   1412     4  180.0000771  43.9320000  2
   1407   2133   1411   1413     4  180.0000771  43.9320000  2
   1429   2144   1435   1437     4  180.0000771  43.9320000  2
   1432   2155   1436   1438     4  180.0000771  43.9320000  2
   1454   2166   1460   1462     4  180.0000771  43.9320000  2
   1457   2177   1461   1463     4  180.0000771  43.9320000  2
   1479   2188   1485   1487     4  180.0000771  43.9320000  2
   1482   2199   1486   1488     4  180.0000771  43.9320000  2
   1504   2210   1510   1512     4  180.0000771  43.9320000  2
   1507   2221   1511   1513     4  180.0000771  43.9320000  2
   1529   2232   1535   1537     4  180.0000771  43.9320000  2
   1532   2243   1536   1538     4  180.0000771  43.9320000  2
      1      8      9     10     1  0.0000000  1.2552000  3
      1      8      9     11     1  0.0000000  1.2552000  3
      1      8     12     13     1  0.0000000  1.2552000  3
      1      8     12     14     1  0.0000000  1.2552000  3
      2      1      4      7     1  0.0000000  0.6508444  3
      2      1      4      5     1  0.0000000  0.6508444  3
      2      1      4      6     1  0.0000000  0.6508444  3
      2      1      8      9     1  0.0000000  1.2552000  3
      2      1      8     12     1  0.0000000  1.2552000  3
      3      1      4      7     1  0.0000000  0.6508444  3
      3      1      4      5     1  0.0000000  0.6508444  3
      3      1      4      6     1  0.0000000  0.6508444  3
      3      1      8      9     1  0.0000000  1.2552000  3
      3      1      8     12     1  0.0000000  1.2552000  3
      4      7     15     16     1  0.0000000  1.2552000  3
      4      7     15     17     1  0.0000000  1.2552000  3
      4      7     18     19     1  0.0000000  1.2552000  3
      4      7     18     20     1  0.0000000  1.2552000  3
      8      1      4      5     1  0.0000000  0.6508444  3
      5      4      7     15     1  0.0000000  1.2552000  3
      5      4      7     18     1  0.0000000  1.2552000  3
      8      1      4      6     1  0.0000000  0.6508444  3
      6      4      7     15     1  0.0000000  1.2552000  3
      6      4      7     18     1  0.0000000  1.2552000  3
      7     15     21     22     1  0.0000000  0.6508444  3
      7     15     21     23     1  0.0000000  0.6508444  3
      7     18     24     25     1  0.0000000  0.6508444  3
      7     18     24     26     1  0.0000000  0.6508444  3
      8      9     30     31     1  0.0000000  0.6508444  3
      8      9     30     32     1  0.0000000  0.6508444  3
      8     12     27     28     1  0.0000000  0.6508444  3
      8     12     27     29     1  0.0000000  0.6508444  3
      9      8     12     13     1  0.0000000  1.2552000  3
      9      8     12     14     1  0.0000000  1.2552000  3
     10      9      8     12     1  0.0000000  1.2552000  3
     10      9     30     34     1  0.0000000  0.6508444  3
     10      9     30     31     1  0.0000000  0.6508444  3
     10      9     30     32     1  0.0000000  0.6508444  3
     11      9      8     12     1  0.0000000  1.2552000  3
     11      9     30     34     1  0.0000000  0.6508444  3
     11      9     30     31     1  0.0000000  0.6508444  3
     11      9     30     32     1  0.0000000  0.6508444  3
     13     12     27     33     1  0.0000000  0.6508444  3
     13     12     27     28     1  0.0000000  0.6508444  3
     13     12     27     29     1  0.0000000  0.6508444  3
     14     12     27     33     1  0.0000000  0.6508444  3
     14     12     27     28     1  0.0000000  0.6508444  3
     14     12     27     29     1  0.0000000  0.6508444  3
     15      7     18     19     1  0.0000000  1.2552000  3
     15      7     18     20     1  0.0000000  1.2552000  3
     16     15      7     18     1  0.0000000  1.2552000  3
     16     15     21     35     1  0.0000000  0.6508444  3
     16     15     21     22     1  0.0000000  0.6508444  3
     16     15     21     23     1  0.0000000  0.6508444  3
     17     15      7     18     1  0.0000000  1.2552000  3
     17     15     21     35     1  0.0000000  0.6508444  3
     17     15     21     22     1  0.0000000  0.6508444  3
     17     15     21     23     1  0.0000000  0.6508444  3
     19     18     24     36     1  0.0000000  0.6508444  3
     19     18     24     25     1  0.0000000  0.6508444  3
     19     18     24     26     1  0.0000000  0.6508444  3
     20     18     24     36     1  0.0000000  0.6508444  3
     20     18     24     25     1  0.0000000  0.6508444  3
     20     18     24     26     1  0.0000000  0.6508444  3
     21     35    114    115     1  180.0000771  10.4600000  2
     22     21     35     38     1  0.0000000  3.3472000  1
     22     21     35     38     1  0.0000000  0.0000000  2
     22     21     35     38     1  180.0000771  0.3347200  3
     22     21     35    114     1  180.0000771  0.0000000  2
     23     21     35     38     1  0.0000000  3.3472000  1
     23     21     35     38     1  0.0000000  0.0000000  2
     23     21     35     38     1  180.0000771  0.3347200  3
     23     21     35    114     1  180.0000771  0.0000000  2
     24     36    139    140     1  180.0000771  10.4600000  2
     25     24     36     39     1  0.0000000  3.3472000  1
     25     24     36     39     1  0.0000000  0.0000000  2
     25     24     36     39     1  180.0000771  0.3347200  3
     25     24     36    139     1  180.0000771  0.0000000  2
     26     24     36     39     1  0.0000000  3.3472000  1
     26     24     36     39     1  0.0000000  0.0000000  2
     26     24     36     39     1  180.0000771  0.3347200  3
     26     24     36    139     1  180.0000771  0.0000000  2
     27     33     64     65     1  180.0000771  10.4600000  2
     28     27     33     37     1  0.0000000  3.3472000  1
     28     27     33     37     1  0.0000000  0.0000000  2
     28     27     33     37     1  180.0000771  0.3347200  3
     28     27     33     64     1  180.0000771  0.0000000  2
     29     27     33     37     1  0.0000000  3.3472000  1
     29     27     33     37     1  0.0000000  0.0000000  2
     29     27     33     37     1  180.0000771  0.3347200  3
     29     27     33     64     1  180.0000771  0.0000000  2
     30     34     89     90     1  180.0000771  10.4600000  2
     31     30     34     40     1  0.0000000  3.3472000  1
     31     30     34     40     1  0.0000000  0.0000000  2
     31     30     34     40     1  180.0000771  0.3347200  3
     31     30     34     89     1  180.0000771  0.0000000  2
     32     30     34     40     1  0.0000000  3.3472000  1
     32     30     34     40     1  0.0000000  0.0000000  2
     32     30     34     40     1  180.0000771  0.3347200  3
     32     30     34     89     1  180.0000771  0.0000000  2
     33     64     44     45     1  0.0000000  0.0000000  2
     33     64     44     46     1  0.0000000  0.0000000  2
     34     89     69     70     1  0.0000000  0.0000000  2
     34     89     69     71     1  0.0000000  0.0000000  2
     35    114     94     95     1  0.0000000  0.0000000  2
     35    114     94     96     1  0.0000000  0.0000000  2
     36    139    119    120     1  0.0000000  0.0000000  2
     36    139    119    121     1  0.0000000  0.0000000  2
     37     33     64     65     1  0.0000000  8.3680000  1
     37     33     64     65     1  180.0000771  10.4600000  2
     38     35    114    115     1  0.0000000  8.3680000  1
     38     35    114    115     1  180.0000771  10.4600000  2
     39     36    139    140     1  0.0000000  8.3680000  1
     39     36    139    140     1  180.0000771  10.4600000  2
     40     34     89     90     1  0.0000000  8.3680000  1
     40     34     89     90     1  180.0000771  10.4600000  2
     41     44     64     65     1  0.0000000  0.0000000  2
     41     47     48     49     1  0.0000000  1.2552000  3
     41     47     48     50     1  0.0000000  1.2552000  3
     41     47     51     52     1  0.0000000  1.2552000  3
     41     47     51     53     1  0.0000000  1.2552000  3
     42     41     44     64     1  0.0000000  0.6508444  3
     42     41     44     45     1  0.0000000  0.6508444  3
     42     41     44     46     1  0.0000000  0.6508444  3
     42     41     47     48     1  0.0000000  1.2552000  3
     42     41     47     51     1  0.0000000  1.2552000  3
     43     41     44     64     1  0.0000000  0.6508444  3
     43     41     44     45     1  0.0000000  0.6508444  3
     43     41     44     46     1  0.0000000  0.6508444  3
     43     41     47     48     1  0.0000000  1.2552000  3
     43     41     47     51     1  0.0000000  1.2552000  3
     45     44     41     47     1  0.0000000  0.6508444  3
     45     44     64     65     1  0.0000000  0.0000000  2
     46     44     41     47     1  0.0000000  0.6508444  3
     46     44     64     65     1  0.0000000  0.0000000  2
     47     48     57     58     1  0.0000000  0.6508444  3
     47     48     57     59     1  0.0000000  0.6508444  3
     47     51     54     55     1  0.0000000  0.6508444  3
     47     51     54     56     1  0.0000000  0.6508444  3
     48     47     51     52     1  0.0000000  1.2552000  3
     48     47     51     53     1  0.0000000  1.2552000  3
     49     48     47     51     1  0.0000000  1.2552000  3
     49     48     57     61     1  0.0000000  0.6508444  3
     49     48     57     58     1  0.0000000  0.6508444  3
     49     48     57     59     1  0.0000000  0.6508444  3
     50     48     47     51     1  0.0000000  1.2552000  3
     50     48     57     61     1  0.0000000  0.6508444  3
     50     48     57     58     1  0.0000000  0.6508444  3
     50     48     57     59     1  0.0000000  0.6508444  3
     52     51     54     60     1  0.0000000  0.6508444  3
     52     51     54     55     1  0.0000000  0.6508444  3
     52     51     54     56     1  0.0000000  0.6508444  3
     53     51     54     60     1  0.0000000  0.6508444  3
     53     51     54     55     1  0.0000000  0.6508444  3
     53     51     54     56     1  0.0000000  0.6508444  3
     54     60    164    165     1  180.0000771  10.4600000  2
     55     54     60     62     1  0.0000000  3.3472000  1
     55     54     60     62     1  0.0000000  0.0000000  2
     55     54     60     62     1  180.0000771  0.3347200  3
     55     54     60    164     1  180.0000771  0.0000000  2
     56     54     60     62     1  0.0000000  3.3472000  1
     56     54     60     62     1  0.0000000  0.0000000  2
     56     54     60     62     1  180.0000771  0.3347200  3
     56     54     60    164     1  180.0000771  0.0000000  2
     57     61    189    190     1  180.0000771  10.4600000  2
     58     57     61     63     1  0.0000000  3.3472000  1
     58     57     61     63     1  0.0000000  0.0000000  2
     58     57     61     63     1  180.0000771  0.3347200  3
     58     57     61    189     1  180.0000771  0.0000000  2
     59     57     61     63     1  0.0000000  3.3472000  1
     59     57     61     63     1  0.0000000  0.0000000  2
     59     57     61     63     1  180.0000771  0.3347200  3
     59     57     61    189     1  180.0000771  0.0000000  2
     60    164    144    145     1  0.0000000  0.0000000  2
     60    164    144    146     1  0.0000000  0.0000000  2
     61    189    169    170     1  0.0000000  0.0000000  2
     61    189    169    171     1  0.0000000  0.0000000  2
     62     60    164    165     1  0.0000000  8.3680000  1
     62     60    164    165     1  180.0000771  10.4600000  2
     63     61    189    190     1  0.0000000  8.3680000  1
     63     61    189    190     1  180.0000771  10.4600000  2
     66     69     89     90     1  0.0000000  0.0000000  2
     66     72     73     74     1  0.0000000  1.2552000  3
     66     72     73     75     1  0.0000000  1.2552000  3
     66     72     76     77     1  0.0000000  1.2552000  3
     66     72     76     78     1  0.0000000  1.2552000  3
     67     66     69     89     1  0.0000000  0.6508444  3
     67     66     69     70     1  0.0000000  0.6508444  3
     67     66     69     71     1  0.0000000  0.6508444  3
     67     66     72     73     1  0.0000000  1.2552000  3
     67     66     72     76     1  0.0000000  1.2552000  3
     68     66     69     89     1  0.0000000  0.6508444  3
     68     66     69     70     1  0.0000000  0.6508444  3
     68     66     69     71     1  0.0000000  0.6508444  3
     68     66     72     73     1  0.0000000  1.2552000  3
     68     66     72     76     1  0.0000000  1.2552000  3
     70     69     66     72     1  0.0000000  0.6508444  3
     70     69     89     90     1  0.0000000  0.0000000  2
     71     69     66     72     1  0.0000000  0.6508444  3
     71     69     89     90     1  0.0000000  0.0000000  2
     72     73     82     83     1  0.0000000  0.6508444  3
     72     73     82     84     1  0.0000000  0.6508444  3
     72     76     79     80     1  0.0000000  0.6508444  3
     72     76     79     81     1  0.0000000  0.6508444  3
     73     72     76     77     1  0.0000000  1.2552000  3
     73     72     76     78     1  0.0000000  1.2552000  3
     74     73     72     76     1  0.0000000  1.2552000  3
     74     73     82     86     1  0.0000000  0.6508444  3
     74     73     82     83     1  0.0000000  0.6508444  3
     74     73     82     84     1  0.0000000  0.6508444  3
     75     73     72     76     1  0.0000000  1.2552000  3
     75     73     82     86     1  0.0000000  0.6508444  3
     75     73     82     83     1  0.0000000  0.6508444  3
     75     73     82     84     1  0.0000000  0.6508444  3
     77     76     79     85     1  0.0000000  0.6508444  3
     77     76     79     80     1  0.0000000  0.6508444  3
     77     76     79     81     1  0.0000000  0.6508444  3
     78     76     79     85     1  0.0000000  0.6508444  3
     78     76     79     80     1  0.0000000  0.6508444  3
     78     76     79     81     1  0.0000000  0.6508444  3
     79     85    214    215     1  180.0000771  10.4600000  2
     80     79     85     87     1  0.0000000  3.3472000  1
     80     79     85     87     1  0.0000000  0.0000000  2
     80     79     85     87     1  180.0000771  0.3347200  3
     80     79     85    214     1  180.0000771  0.0000000  2
     81     79     85     87     1  0.0000000  3.3472000  1
     81     79     85     87     1  0.0000000  0.0000000  2
     81     79     85     87     1  180.0000771  0.3347200  3
     81     79     85    214     1  180.0000771  0.0000000  2
     82     86    239    240     1  180.0000771  10.4600000  2
     83     82     86     88     1  0.0000000  3.3472000  1
     83     82     86     88     1  0.0000000  0.0000000  2
     83     82     86     88     1  180.0000771  0.3347200  3
     83     82     86    239     1  180.0000771  0.0000000  2
     84     82     86     88     1  0.0000000  3.3472000  1
     84     82     86     88     1  0.0000000  0.0000000  2
     84     82     86     88     1  180.0000771  0.3347200  3
     84     82     86    239     1  180.0000771  0.0000000  2
     85    214    194    195     1  0.0000000  0.0000000  2
     85    214    194    196     1  0.0000000  0.0000000  2
     86    239    219    220     1  0.0000000  0.0000000  2
     86    239    219    221     1  0.0000000  0.0000000  2
     87     85    214    215     1  0.0000000  8.3680000  1
     87     85    214    215     1  180.0000771  10.4600000  2
     88     86    239    240     1  0.0000000  8.3680000  1
     88     86    239    240     1  180.0000771  10.4600000  2
     91     94    114    115     1  0.0000000  0.0000000  2
     91     97     98     99     1  0.0000000  1.2552000  3
     91     97     98    100     1  0.0000000  1.2552000  3
     91     97    101    102     1  0.0000000  1.2552000  3
     91     97    101    103     1  0.0000000  1.2552000  3
     92     91     94    114     1  0.0000000  0.6508444  3
     92     91     94     95     1  0.0000000  0.6508444  3
     92     91     94     96     1  0.0000000  0.6508444  3
     92     91     97     98     1  0.0000000  1.2552000  3
     92     91     97    101     1  0.0000000  1.2552000  3
     93     91     94    114     1  0.0000000  0.6508444  3
     93     91     94     95     1  0.0000000  0.6508444  3
     93     91     94     96     1  0.0000000  0.6508444  3
     93     91     97     98     1  0.0000000  1.2552000  3
     93     91     97    101     1  0.0000000  1.2552000  3
     95     94     91     97     1  0.0000000  0.6508444  3
     95     94    114    115     1  0.0000000  0.0000000  2
     96     94     91     97     1  0.0000000  0.6508444  3
     96     94    114    115     1  0.0000000  0.0000000  2
     97     98    107    108     1  0.0000000  0.6508444  3
     97     98    107    109     1  0.0000000  0.6508444  3
     97    101    104    105     1  0.0000000  0.6508444  3
     97    101    104    106     1  0.0000000  0.6508444  3
     98     97    101    102     1  0.0000000  1.2552000  3
     98     97    101    103     1  0.0000000  1.2552000  3
     99     98     97    101     1  0.0000000  1.2552000  3
     99     98    107    111     1  0.0000000  0.6508444  3
     99     98    107    108     1  0.0000000  0.6508444  3
     99     98    107    109     1  0.0000000  0.6508444  3
    100     98     97    101     1  0.0000000  1.2552000  3
    100     98    107    111     1  0.0000000  0.6508444  3
    100     98    107    108     1  0.0000000  0.6508444  3
    100     98    107    109     1  0.0000000  0.6508444  3
    102    101    104    110     1  0.0000000  0.6508444  3
    102    101    104    105     1  0.0000000  0.6508444  3
    102    101    104    106     1  0.0000000  0.6508444  3
    103    101    104    110     1  0.0000000  0.6508444  3
    103    101    104    105     1  0.0000000  0.6508444  3
    103    101    104    106     1  0.0000000  0.6508444  3
    104    110    264    265     1  180.0000771  10.4600000  2
    105    104    110    112     1  0.0000000  3.3472000  1
    105    104    110    112     1  0.0000000  0.0000000  2
    105    104    110    112     1  180.0000771  0.3347200  3
    105    104    110    264     1  180.0000771  0.0000000  2
    106    104    110    112     1  0.0000000  3.3472000  1
    106    104    110    112     1  0.0000000  0.0000000  2
    106    104    110    112     1  180.0000771  0.3347200  3
    106    104    110    264     1  180.0000771  0.0000000  2
    107    111    289    290     1  180.0000771  10.4600000  2
    108    107    111    113     1  0.0000000  3.3472000  1
    108    107    111    113     1  0.0000000  0.0000000  2
    108    107    111    113     1  180.0000771  0.3347200  3
    108    107    111    289     1  180.0000771  0.0000000  2
    109    107    111    113     1  0.0000000  3.3472000  1
    109    107    111    113     1  0.0000000  0.0000000  2
    109    107    111    113     1  180.0000771  0.3347200  3
    109    107    111    289     1  180.0000771  0.0000000  2
    110    264    244    245     1  0.0000000  0.0000000  2
    110    264    244    246     1  0.0000000  0.0000000  2
    111    289    269    270     1  0.0000000  0.0000000  2
    111    289    269    271     1  0.0000000  0.0000000  2
    112    110    264    265     1  0.0000000  8.3680000  1
    112    110    264    265     1  180.0000771  10.4600000  2
    113    111    289    290     1  0.0000000  8.3680000  1
    113    111    289    290     1  180.0000771  10.4600000  2
    116    119    139    140     1  0.0000000  0.0000000  2
    116    122    123    124     1  0.0000000  1.2552000  3
    116    122    123    125     1  0.0000000  1.2552000  3
    116    122    126    127     1  0.0000000  1.2552000  3
    116    122    126    128     1  0.0000000  1.2552000  3
    117    116    119    139     1  0.0000000  0.6508444  3
    117    116    119    120     1  0.0000000  0.6508444  3
    117    116    119    121     1  0.0000000  0.6508444  3
    117    116    122    123     1  0.0000000  1.2552000  3
    117    116    122    126     1  0.0000000  1.2552000  3
    118    116    119    139     1  0.0000000  0.6508444  3
    118    116    119    120     1  0.0000000  0.6508444  3
    118    116    119    121     1  0.0000000  0.6508444  3
    118    116    122    123     1  0.0000000  1.2552000  3
    118    116    122    126     1  0.0000000  1.2552000  3
    120    119    116    122     1  0.0000000  0.6508444  3
    120    119    139    140     1  0.0000000  0.0000000  2
    121    119    116    122     1  0.0000000  0.6508444  3
    121    119    139    140     1  0.0000000  0.0000000  2
    122    123    132    133     1  0.0000000  0.6508444  3
    122    123    132    134     1  0.0000000  0.6508444  3
    122    126    129    130     1  0.0000000  0.6508444  3
    122    126    129    131     1  0.0000000  0.6508444  3
    123    122    126    127     1  0.0000000  1.2552000  3
    123    122    126    128     1  0.0000000  1.2552000  3
    124    123    122    126     1  0.0000000  1.2552000  3
    124    123    132    136     1  0.0000000  0.6508444  3
    124    123    132    133     1  0.0000000  0.6508444  3
    124    123    132    134     1  0.0000000  0.6508444  3
    125    123    122    126     1  0.0000000  1.2552000  3
    125    123    132    136     1  0.0000000  0.6508444  3
    125    123    132    133     1  0.0000000  0.6508444  3
    125    123    132    134     1  0.0000000  0.6508444  3
    127    126    129    135     1  0.0000000  0.6508444  3
    127    126    129    130     1  0.0000000  0.6508444  3
    127    126    129    131     1  0.0000000  0.6508444  3
    128    126    129    135     1  0.0000000  0.6508444  3
    128    126    129    130     1  0.0000000  0.6508444  3
    128    126    129    131     1  0.0000000  0.6508444  3
    129    135    314    315     1  180.0000771  10.4600000  2
    130    129    135    137     1  0.0000000  3.3472000  1
    130    129    135    137     1  0.0000000  0.0000000  2
    130    129    135    137     1  180.0000771  0.3347200  3
    130    129    135    314     1  180.0000771  0.0000000  2
    131    129    135    137     1  0.0000000  3.3472000  1
    131    129    135    137     1  0.0000000  0.0000000  2
    131    129    135    137     1  180.0000771  0.3347200  3
    131    129    135    314     1  180.0000771  0.0000000  2
    132    136    339    340     1  180.0000771  10.4600000  2
    133    132    136    138     1  0.0000000  3.3472000  1
    133    132    136    138     1  0.0000000  0.0000000  2
    133    132    136    138     1  180.0000771  0.3347200  3
    133    132    136    339     1  180.0000771  0.0000000  2
    134    132    136    138     1  0.0000000  3.3472000  1
    134    132    136    138     1  0.0000000  0.0000000  2
    134    132    136    138     1  180.0000771  0.3347200  3
    134    132    136    339     1  180.0000771  0.0000000  2
    135    314    294    295     1  0.0000000  0.0000000  2
    135    314    294    296     1  0.0000000  0.0000000  2
    136    339    319    320     1  0.0000000  0.0000000  2
    136    339    319    321     1  0.0000000  0.0000000  2
    137    135    314    315     1  0.0000000  8.3680000  1
    137    135    314    315     1  180.0000771  10.4600000  2
    138    136    339    340     1  0.0000000  8.3680000  1
    138    136    339    340     1  180.0000771  10.4600000  2
    141    144    164    165     1  0.0000000  0.0000000  2
    141    147    148    149     1  0.0000000  1.2552000  3
    141    147    148    150     1  0.0000000  1.2552000  3
    141    147    151    152     1  0.0000000  1.2552000  3
    141    147    151    153     1  0.0000000  1.2552000  3
    142    141    144    164     1  0.0000000  0.6508444  3
    142    141    144    145     1  0.0000000  0.6508444  3
    142    141    144    146     1  0.0000000  0.6508444  3
    142    141    147    148     1  0.0000000  1.2552000  3
    142    141    147    151     1  0.0000000  1.2552000  3
    143    141    144    164     1  0.0000000  0.6508444  3
    143    141    144    145     1  0.0000000  0.6508444  3
    143    141    144    146     1  0.0000000  0.6508444  3
    143    141    147    148     1  0.0000000  1.2552000  3
    143    141    147    151     1  0.0000000  1.2552000  3
    145    144    141    147     1  0.0000000  0.6508444  3
    145    144    164    165     1  0.0000000  0.0000000  2
    146    144    141    147     1  0.0000000  0.6508444  3
    146    144    164    165     1  0.0000000  0.0000000  2
    147    148    157    158     1  0.0000000  0.6508444  3
    147    148    157    159     1  0.0000000  0.6508444  3
    147    151    154    155     1  0.0000000  0.6508444  3
    147    151    154    156     1  0.0000000  0.6508444  3
    148    147    151    152     1  0.0000000  1.2552000  3
    148    147    151    153     1  0.0000000  1.2552000  3
    149    148    147    151     1  0.0000000  1.2552000  3
    149    148    157    161     1  0.0000000  0.6508444  3
    149    148    157    158     1  0.0000000  0.6508444  3
    149    148    157    159     1  0.0000000  0.6508444  3
    150    148    147    151     1  0.0000000  1.2552000  3
    150    148    157    161     1  0.0000000  0.6508444  3
    150    148    157    158     1  0.0000000  0.6508444  3
    150    148    157    159     1  0.0000000  0.6508444  3
    152    151    154    160     1  0.0000000  0.6508444  3
    152    151    154    155     1  0.0000000  0.6508444  3
    152    151    154    156     1  0.0000000  0.6508444  3
    153    151    154    160     1  0.0000000  0.6508444  3
    153    151    154    155     1  0.0000000  0.6508444  3
    153    151    154    156     1  0.0000000  0.6508444  3
    154    160    364    365     1  180.0000771  10.4600000  2
    155    154    160    162     1  0.0000000  3.3472000  1
    155    154    160    162     1  0.0000000  0.0000000  2
    155    154    160    162     1  180.0000771  0.3347200  3
    155    154    160    364     1  180.0000771  0.0000000  2
    156    154    160    162     1  0.0000000  3.3472000  1
    156    154    160    162     1  0.0000000  0.0000000  2
    156    154    160    162     1  180.0000771  0.3347200  3
    156    154    160    364     1  180.0000771  0.0000000  2
    157    161    389    390     1  180.0000771  10.4600000  2
    158    157    161    163     1  0.0000000  3.3472000  1
    158    157    161    163     1  0.0000000  0.0000000  2
    158    157    161    163     1  180.0000771  0.3347200  3
    158    157    161    389     1  180.0000771  0.0000000  2
    159    157    161    163     1  0.0000000  3.3472000  1
    159    157    161    163     1  0.0000000  0.0000000  2
    159    157    161    163     1  180.0000771  0.3347200  3
    159    157    161    389     1  180.0000771  0.0000000  2
    160    364    344    345     1  0.0000000  0.0000000  2
    160    364    344    346     1  0.0000000  0.0000000  2
    161    389    369    370     1  0.0000000  0.0000000  2
    161    389    369    371     1  0.0000000  0.0000000  2
    162    160    364    365     1  0.0000000  8.3680000  1
    162    160    364    365     1  180.0000771  10.4600000  2
    163    161    389    390     1  0.0000000  8.3680000  1
    163    161    389    390     1  180.0000771  10.4600000  2
    166    169    189    190     1  0.0000000  0.0000000  2
    166    172    173    174     1  0.0000000  1.2552000  3
    166    172    173    175     1  0.0000000  1.2552000  3
    166    172    176    177     1  0.0000000  1.2552000  3
    166    172    176    178     1  0.0000000  1.2552000  3
    167    166    169    189     1  0.0000000  0.6508444  3
    167    166    169    170     1  0.0000000  0.6508444  3
    167    166    169    171     1  0.0000000  0.6508444  3
    167    166    172    173     1  0.0000000  1.2552000  3
    167    166    172    176     1  0.0000000  1.2552000  3
    168    166    169    189     1  0.0000000  0.6508444  3
    168    166    169    170     1  0.0000000  0.6508444  3
    168    166    169    171     1  0.0000000  0.6508444  3
    168    166    172    173     1  0.0000000  1.2552000  3
    168    166    172    176     1  0.0000000  1.2552000  3
    170    169    166    172     1  0.0000000  0.6508444  3
    170    169    189    190     1  0.0000000  0.0000000  2
    171    169    166    172     1  0.0000000  0.6508444  3
    171    169    189    190     1  0.0000000  0.0000000  2
    172    173    182    183     1  0.0000000  0.6508444  3
    172    173    182    184     1  0.0000000  0.6508444  3
    172    176    179    180     1  0.0000000  0.6508444  3
    172    176    179    181     1  0.0000000  0.6508444  3
    173    172    176    177     1  0.0000000  1.2552000  3
    173    172    176    178     1  0.0000000  1.2552000  3
    174    173    172    176     1  0.0000000  1.2552000  3
    174    173    182    186     1  0.0000000  0.6508444  3
    174    173    182    183     1  0.0000000  0.6508444  3
    174    173    182    184     1  0.0000000  0.6508444  3
    175    173    172    176     1  0.0000000  1.2552000  3
    175    173    182    186     1  0.0000000  0.6508444  3
    175    173    182    183     1  0.0000000  0.6508444  3
    175    173    182    184     1  0.0000000  0.6508444  3
    177    176    179    185     1  0.0000000  0.6508444  3
    177    176    179    180     1  0.0000000  0.6508444  3
    177    176    179    181     1  0.0000000  0.6508444  3
    178    176    179    185     1  0.0000000  0.6508444  3
    178    176    179    180     1  0.0000000  0.6508444  3
    178    176    179    181     1  0.0000000  0.6508444  3
    179    185    414    415     1  180.0000771  10.4600000  2
    180    179    185    187     1  0.0000000  3.3472000  1
    180    179    185    187     1  0.0000000  0.0000000  2
    180    179    185    187     1  180.0000771  0.3347200  3
    180    179    185    414     1  180.0000771  0.0000000  2
    181    179    185    187     1  0.0000000  3.3472000  1
    181    179    185    187     1  0.0000000  0.0000000  2
    181    179    185    187     1  180.0000771  0.3347200  3
    181    179    185    414     1  180.0000771  0.0000000  2
    182    186    439    440     1  180.0000771  10.4600000  2
    183    182    186    188     1  0.0000000  3.3472000  1
    183    182    186    188     1  0.0000000  0.0000000  2
    183    182    186    188     1  180.0000771  0.3347200  3
    183    182    186    439     1  180.0000771  0.0000000  2
    184    182    186    188     1  0.0000000  3.3472000  1
    184    182    186    188     1  0.0000000  0.0000000  2
    184    182    186    188     1  180.0000771  0.3347200  3
    184    182    186    439     1  180.0000771  0.0000000  2
    185    414    394    395     1  0.0000000  0.0000000  2
    185    414    394    396     1  0.0000000  0.0000000  2
    186    439    419    420     1  0.0000000  0.0000000  2
    186    439    419    421     1  0.0000000  0.0000000  2
    187    185    414    415     1  0.0000000  8.3680000  1
    187    185    414    415     1  180.0000771  10.4600000  2
    188    186    439    440     1  0.0000000  8.3680000  1
    188    186    439    440     1  180.0000771  10.4600000  2
    191    194    214    215     1  0.0000000  0.0000000  2
    191    197    198    199     1  0.0000000  1.2552000  3
    191    197    198    200     1  0.0000000  1.2552000  3
    191    197    201    202     1  0.0000000  1.2552000  3
    191    197    201    203     1  0.0000000  1.2552000  3
    192    191    194    214     1  0.0000000  0.6508444  3
    192    191    194    195     1  0.0000000  0.6508444  3
    192    191    194    196     1  0.0000000  0.6508444  3
    192    191    197    198     1  0.0000000  1.2552000  3
    192    191    197    201     1  0.0000000  1.2552000  3
    193    191    194    214     1  0.0000000  0.6508444  3
    193    191    194    195     1  0.0000000  0.6508444  3
    193    191    194    196     1  0.0000000  0.6508444  3
    193    191    197    198     1  0.0000000  1.2552000  3
    193    191    197    201     1  0.0000000  1.2552000  3
    195    194    191    197     1  0.0000000  0.6508444  3
    195    194    214    215     1  0.0000000  0.0000000  2
    196    194    191    197     1  0.0000000  0.6508444  3
    196    194    214    215     1  0.0000000  0.0000000  2
    197    198    207    208     1  0.0000000  0.6508444  3
    197    198    207    209     1  0.0000000  0.6508444  3
    197    201    204    205     1  0.0000000  0.6508444  3
    197    201    204    206     1  0.0000000  0.6508444  3
    198    197    201    202     1  0.0000000  1.2552000  3
    198    197    201    203     1  0.0000000  1.2552000  3
    199    198    197    201     1  0.0000000  1.2552000  3
    199    198    207    211     1  0.0000000  0.6508444  3
    199    198    207    208     1  0.0000000  0.6508444  3
    199    198    207    209     1  0.0000000  0.6508444  3
    200    198    197    201     1  0.0000000  1.2552000  3
    200    198    207    211     1  0.0000000  0.6508444  3
    200    198    207    208     1  0.0000000  0.6508444  3
    200    198    207    209     1  0.0000000  0.6508444  3
    202    201    204    210     1  0.0000000  0.6508444  3
    202    201    204    205     1  0.0000000  0.6508444  3
    202    201    204    206     1  0.0000000  0.6508444  3
    203    201    204    210     1  0.0000000  0.6508444  3
    203    201    204    205     1  0.0000000  0.6508444  3
    203    201    204    206     1  0.0000000  0.6508444  3
    204    210    464    465     1  180.0000771  10.4600000  2
    205    204    210    212     1  0.0000000  3.3472000  1
    205    204    210    212     1  0.0000000  0.0000000  2
    205    204    210    212     1  180.0000771  0.3347200  3
    205    204    210    464     1  180.0000771  0.0000000  2
    206    204    210    212     1  0.0000000  3.3472000  1
    206    204    210    212     1  0.0000000  0.0000000  2
    206    204    210    212     1  180.0000771  0.3347200  3
    206    204    210    464     1  180.0000771  0.0000000  2
    207    211    489    490     1  180.0000771  10.4600000  2
    208    207    211    213     1  0.0000000  3.3472000  1
    208    207    211    213     1  0.0000000  0.0000000  2
    208    207    211    213     1  180.0000771  0.3347200  3
    208    207    211    489     1  180.0000771  0.0000000  2
    209    207    211    213     1  0.0000000  3.3472000  1
    209    207    211    213     1  0.0000000  0.0000000  2
    209    207    211    213     1  180.0000771  0.3347200  3
    209    207    211    489     1  180.0000771  0.0000000  2
    210    464    444    445     1  0.0000000  0.0000000  2
    210    464    444    446     1  0.0000000  0.0000000  2
    211    489    469    470     1  0.0000000  0.0000000  2
    211    489    469    471     1  0.0000000  0.0000000  2
    212    210    464    465     1  0.0000000  8.3680000  1
    212    210    464    465     1  180.0000771  10.4600000  2
    213    211    489    490     1  0.0000000  8.3680000  1
    213    211    489    490     1  180.0000771  10.4600000  2
    216    219    239    240     1  0.0000000  0.0000000  2
    216    222    223    224     1  0.0000000  1.2552000  3
    216    222    223    225     1  0.0000000  1.2552000  3
    216    222    226    227     1  0.0000000  1.2552000  3
    216    222    226    228     1  0.0000000  1.2552000  3
    217    216    219    239     1  0.0000000  0.6508444  3
    217    216    219    220     1  0.0000000  0.6508444  3
    217    216    219    221     1  0.0000000  0.6508444  3
    217    216    222    223     1  0.0000000  1.2552000  3
    217    216    222    226     1  0.0000000  1.2552000  3
    218    216    219    239     1  0.0000000  0.6508444  3
    218    216    219    220     1  0.0000000  0.6508444  3
    218    216    219    221     1  0.0000000  0.6508444  3
    218    216    222    223     1  0.0000000  1.2552000  3
    218    216    222    226     1  0.0000000  1.2552000  3
    220    219    216    222     1  0.0000000  0.6508444  3
    220    219    239    240     1  0.0000000  0.0000000  2
    221    219    216    222     1  0.0000000  0.6508444  3
    221    219    239    240     1  0.0000000  0.0000000  2
    222    223    232    233     1  0.0000000  0.6508444  3
    222    223    232    234     1  0.0000000  0.6508444  3
    222    226    229    230     1  0.0000000  0.6508444  3
    222    226    229    231     1  0.0000000  0.6508444  3
    223    222    226    227     1  0.0000000  1.2552000  3
    223    222    226    228     1  0.0000000  1.2552000  3
    224    223    222    226     1  0.0000000  1.2552000  3
    224    223    232    236     1  0.0000000  0.6508444  3
    224    223    232    233     1  0.0000000  0.6508444  3
    224    223    232    234     1  0.0000000  0.6508444  3
    225    223    222    226     1  0.0000000  1.2552000  3
    225    223    232    236     1  0.0000000  0.6508444  3
    225    223    232    233     1  0.0000000  0.6508444  3
    225    223    232    234     1  0.0000000  0.6508444  3
    227    226    229    235     1  0.0000000  0.6508444  3
    227    226    229    230     1  0.0000000  0.6508444  3
    227    226    229    231     1  0.0000000  0.6508444  3
    228    226    229    235     1  0.0000000  0.6508444  3
    228    226    229    230     1  0.0000000  0.6508444  3
    228    226    229    231     1  0.0000000  0.6508444  3
    229    235    514    515     1  180.0000771  10.4600000  2
    230    229    235    237     1  0.0000000  3.3472000  1
    230    229    235    237     1  0.0000000  0.0000000  2
    230    229    235    237     1  180.0000771  0.3347200  3
    230    229    235    514     1  180.0000771  0.0000000  2
    231    229    235    237     1  0.0000000  3.3472000  1
    231    229    235    237     1  0.0000000  0.0000000  2
    231    229    235    237     1  180.0000771  0.3347200  3
    231    229    235    514     1  180.0000771  0.0000000  2
    232    236    539    540     1  180.0000771  10.4600000  2
    233    232    236    238     1  0.0000000  3.3472000  1
    233    232    236    238     1  0.0000000  0.0000000  2
    233    232    236    238     1  180.0000771  0.3347200  3
    233    232    236    539     1  180.0000771  0.0000000  2
    234    232    236    238     1  0.0000000  3.3472000  1
    234    232    236    238     1  0.0000000  0.0000000  2
    234    232    236    238     1  180.0000771  0.3347200  3
    234    232    236    539     1  180.0000771  0.0000000  2
    235    514    494    495     1  0.0000000  0.0000000  2
    235    514    494    496     1  0.0000000  0.0000000  2
    236    539    519    520     1  0.0000000  0.0000000  2
    236    539    519    521     1  0.0000000  0.0000000  2
    237    235    514    515     1  0.0000000  8.3680000  1
    237    235    514    515     1  180.0000771  10.4600000  2
    238    236    539    540     1  0.0000000  8.3680000  1
    238    236    539    540     1  180.0000771  10.4600000  2
    241    244    264    265     1  0.0000000  0.0000000  2
    241    247    248    249     1  0.0000000  1.2552000  3
    241    247    248    250     1  0.0000000  1.2552000  3
    241    247    251    252     1  0.0000000  1.2552000  3
    241    247    251    253     1  0.0000000  1.2552000  3
    242    241    244    264     1  0.0000000  0.6508444  3
    242    241    244    245     1  0.0000000  0.6508444  3
    242    241    244    246     1  0.0000000  0.6508444  3
    242    241    247    248     1  0.0000000  1.2552000  3
    242    241    247    251     1  0.0000000  1.2552000  3
    243    241    244    264     1  0.0000000  0.6508444  3
    243    241    244    245     1  0.0000000  0.6508444  3
    243    241    244    246     1  0.0000000  0.6508444  3
    243    241    247    248     1  0.0000000  1.2552000  3
    243    241    247    251     1  0.0000000  1.2552000  3
    245    244    241    247     1  0.0000000  0.6508444  3
    245    244    264    265     1  0.0000000  0.0000000  2
    246    244    241    247     1  0.0000000  0.6508444  3
    246    244    264    265     1  0.0000000  0.0000000  2
    247    248    257    258     1  0.0000000  0.6508444  3
    247    248    257    259     1  0.0000000  0.6508444  3
    247    251    254    255     1  0.0000000  0.6508444  3
    247    251    254    256     1  0.0000000  0.6508444  3
    248    247    251    252     1  0.0000000  1.2552000  3
    248    247    251    253     1  0.0000000  1.2552000  3
    249    248    247    251     1  0.0000000  1.2552000  3
    249    248    257    261     1  0.0000000  0.6508444  3
    249    248    257    258     1  0.0000000  0.6508444  3
    249    248    257    259     1  0.0000000  0.6508444  3
    250    248    247    251     1  0.0000000  1.2552000  3
    250    248    257    261     1  0.0000000  0.6508444  3
    250    248    257    258     1  0.0000000  0.6508444  3
    250    248    257    259     1  0.0000000  0.6508444  3
    252    251    254    260     1  0.0000000  0.6508444  3
    252    251    254    255     1  0.0000000  0.6508444  3
    252    251    254    256     1  0.0000000  0.6508444  3
    253    251    254    260     1  0.0000000  0.6508444  3
    253    251    254    255     1  0.0000000  0.6508444  3
    253    251    254    256     1  0.0000000  0.6508444  3
    254    260    564    565     1  180.0000771  10.4600000  2
    255    254    260    262     1  0.0000000  3.3472000  1
    255    254    260    262     1  0.0000000  0.0000000  2
    255    254    260    262     1  180.0000771  0.3347200  3
    255    254    260    564     1  180.0000771  0.0000000  2
    256    254    260    262     1  0.0000000  3.3472000  1
    256    254    260    262     1  0.0000000  0.0000000  2
    256    254    260    262     1  180.0000771  0.3347200  3
    256    254    260    564     1  180.0000771  0.0000000  2
    257    261    589    590     1  180.0000771  10.4600000  2
    258    257    261    263     1  0.0000000  3.3472000  1
    258    257    261    263     1  0.0000000  0.0000000  2
    258    257    261    263     1  180.0000771  0.3347200  3
    258    257    261    589     1  180.0000771  0.0000000  2
    259    257    261    263     1  0.0000000  3.3472000  1
    259    257    261    263     1  0.0000000  0.0000000  2
    259    257    261    263     1  180.0000771  0.3347200  3
    259    257    261    589     1  180.0000771  0.0000000  2
    260    564    544    545     1  0.0000000  0.0000000  2
    260    564    544    546     1  0.0000000  0.0000000  2
    261    589    569    570     1  0.0000000  0.0000000  2
    261    589    569    571     1  0.0000000  0.0000000  2
    262    260    564    565     1  0.0000000  8.3680000  1
    262    260    564    565     1  180.0000771  10.4600000  2
    263    261    589    590     1  0.0000000  8.3680000  1
    263    261    589    590     1  180.0000771  10.4600000  2
    266    269    289    290     1  0.0000000  0.0000000  2
    266    272    273    274     1  0.0000000  1.2552000  3
    266    272    273    275     1  0.0000000  1.2552000  3
    266    272    276    277     1  0.0000000  1.2552000  3
    266    272    276    278     1  0.0000000  1.2552000  3
    267    266    269    289     1  0.0000000  0.6508444  3
    267    266    269    270     1  0.0000000  0.6508444  3
    267    266    269    271     1  0.0000000  0.6508444  3
    267    266    272    273     1  0.0000000  1.2552000  3
    267    266    272    276     1  0.0000000  1.2552000  3
    268    266    269    289     1  0.0000000  0.6508444  3
    268    266    269    270     1  0.0000000  0.6508444  3
    268    266    269    271     1  0.0000000  0.6508444  3
    268    266    272    273     1  0.0000000  1.2552000  3
    268    266    272    276     1  0.0000000  1.2552000  3
    270    269    266    272     1  0.0000000  0.6508444  3
    270    269    289    290     1  0.0000000  0.0000000  2
    271    269    266    272     1  0.0000000  0.6508444  3
    271    269    289    290     1  0.0000000  0.0000000  2
    272    273    282    283     1  0.0000000  0.6508444  3
    272    273    282    284     1  0.0000000  0.6508444  3
    272    276    279    280     1  0.0000000  0.6508444  3
    272    276    279    281     1  0.0000000  0.6508444  3
    273    272    276    277     1  0.0000000  1.2552000  3
    273    272    276    278     1  0.0000000  1.2552000  3
    274    273    272    276     1  0.0000000  1.2552000  3
    274    273    282    286     1  0.0000000  0.6508444  3
    274    273    282    283     1  0.0000000  0.6508444  3
    274    273    282    284     1  0.0000000  0.6508444  3
    275    273    272    276     1  0.0000000  1.2552000  3
    275    273    282    286     1  0.0000000  0.6508444  3
    275    273    282    283     1  0.0000000  0.6508444  3
    275    273    282    284     1  0.0000000  0.6508444  3
    277    276    279    285     1  0.0000000  0.6508444  3
    277    276    279    280     1  0.0000000  0.6508444  3
    277    276    279    281     1  0.0000000  0.6508444  3
    278    276    279    285     1  0.0000000  0.6508444  3
    278    276    279    280     1  0.0000000  0.6508444  3
    278    276    279    281     1  0.0000000  0.6508444  3
    279    285    614    615     1  180.0000771  10.4600000  2
    280    279    285    287     1  0.0000000  3.3472000  1
    280    279    285    287     1  0.0000000  0.0000000  2
    280    279    285    287     1  180.0000771  0.3347200  3
    280    279    285    614     1  180.0000771  0.0000000  2
    281    279    285    287     1  0.0000000  3.3472000  1
    281    279    285    287     1  0.0000000  0.0000000  2
    281    279    285    287     1  180.0000771  0.3347200  3
    281    279    285    614     1  180.0000771  0.0000000  2
    282    286    639    640     1  180.0000771  10.4600000  2
    283    282    286    288     1  0.0000000  3.3472000  1
    283    282    286    288     1  0.0000000  0.0000000  2
    283    282    286    288     1  180.0000771  0.3347200  3
    283    282    286    639     1  180.0000771  0.0000000  2
    284    282    286    288     1  0.0000000  3.3472000  1
    284    282    286    288     1  0.0000000  0.0000000  2
    284    282    286    288     1  180.0000771  0.3347200  3
    284    282    286    639     1  180.0000771  0.0000000  2
    285    614    594    595     1  0.0000000  0.0000000  2
    285    614    594    596     1  0.0000000  0.0000000  2
    286    639    619    620     1  0.0000000  0.0000000  2
    286    639    619    621     1  0.0000000  0.0000000  2
    287    285    614    615     1  0.0000000  8.3680000  1
    287    285    614    615     1  180.0000771  10.4600000  2
    288    286    639    640     1  0.0000000  8.3680000  1
    288    286    639    640     1  180.0000771  10.4600000  2
    291    294    314    315     1  0.0000000  0.0000000  2
    291    297    298    299     1  0.0000000  1.2552000  3
    291    297    298    300     1  0.0000000  1.2552000  3
    291    297    301    302     1  0.0000000  1.2552000  3
    291    297    301    303     1  0.0000000  1.2552000  3
    292    291    294    314     1  0.0000000  0.6508444  3
    292    291    294    295     1  0.0000000  0.6508444  3
    292    291    294    296     1  0.0000000  0.6508444  3
    292    291    297    298     1  0.0000000  1.2552000  3
    292    291    297    301     1  0.0000000  1.2552000  3
    293    291    294    314     1  0.0000000  0.6508444  3
    293    291    294    295     1  0.0000000  0.6508444  3
    293    291    294    296     1  0.0000000  0.6508444  3
    293    291    297    298     1  0.0000000  1.2552000  3
    293    291    297    301     1  0.0000000  1.2552000  3
    295    294    291    297     1  0.0000000  0.6508444  3
    295    294    314    315     1  0.0000000  0.0000000  2
    296    294    291    297     1  0.0000000  0.6508444  3
    296    294    314    315     1  0.0000000  0.0000000  2
    297    298    307    308     1  0.0000000  0.6508444  3
    297    298    307    309     1  0.0000000  0.6508444  3
    297    301    304    305     1  0.0000000  0.6508444  3
    297    301    304    306     1  0.0000000  0.6508444  3
    298    297    301    302     1  0.0000000  1.2552000  3
    298    297    301    303     1  0.0000000  1.2552000  3
    299    298    297    301     1  0.0000000  1.2552000  3
    299    298    307    311     1  0.0000000  0.6508444  3
    299    298    307    308     1  0.0000000  0.6508444  3
    299    298    307    309     1  0.0000000  0.6508444  3
    300    298    297    301     1  0.0000000  1.2552000  3
    300    298    307    311     1  0.0000000  0.6508444  3
    300    298    307    308     1  0.0000000  0.6508444  3
    300    298    307    309     1  0.0000000  0.6508444  3
    302    301    304    310     1  0.0000000  0.6508444  3
    302    301    304    305     1  0.0000000  0.6508444  3
    302    301    304    306     1  0.0000000  0.6508444  3
    303    301    304    310     1  0.0000000  0.6508444  3
    303    301    304    305     1  0.0000000  0.6508444  3
    303    301    304    306     1  0.0000000  0.6508444  3
    304    310    664    665     1  180.0000771  10.4600000  2
    305    304    310    312     1  0.0000000  3.3472000  1
    305    304    310    312     1  0.0000000  0.0000000  2
    305    304    310    312     1  180.0000771  0.3347200  3
    305    304    310    664     1  180.0000771  0.0000000  2
    306    304    310    312     1  0.0000000  3.3472000  1
    306    304    310    312     1  0.0000000  0.0000000  2
    306    304    310    312     1  180.0000771  0.3347200  3
    306    304    310    664     1  180.0000771  0.0000000  2
    307    311    689    690     1  180.0000771  10.4600000  2
    308    307    311    313     1  0.0000000  3.3472000  1
    308    307    311    313     1  0.0000000  0.0000000  2
    308    307    311    313     1  180.0000771  0.3347200  3
    308    307    311    689     1  180.0000771  0.0000000  2
    309    307    311    313     1  0.0000000  3.3472000  1
    309    307    311    313     1  0.0000000  0.0000000  2
    309    307    311    313     1  180.0000771  0.3347200  3
    309    307    311    689     1  180.0000771  0.0000000  2
    310    664    644    645     1  0.0000000  0.0000000  2
    310    664    644    646     1  0.0000000  0.0000000  2
    311    689    669    670     1  0.0000000  0.0000000  2
    311    689    669    671     1  0.0000000  0.0000000  2
    312    310    664    665     1  0.0000000  8.3680000  1
    312    310    664    665     1  180.0000771  10.4600000  2
    313    311    689    690     1  0.0000000  8.3680000  1
    313    311    689    690     1  180.0000771  10.4600000  2
    316    319    339    340     1  0.0000000  0.0000000  2
    316    322    323    324     1  0.0000000  1.2552000  3
    316    322    323    325     1  0.0000000  1.2552000  3
    316    322    326    327     1  0.0000000  1.2552000  3
    316    322    326    328     1  0.0000000  1.2552000  3
    317    316    319    339     1  0.0000000  0.6508444  3
    317    316    319    320     1  0.0000000  0.6508444  3
    317    316    319    321     1  0.0000000  0.6508444  3
    317    316    322    323     1  0.0000000  1.2552000  3
    317    316    322    326     1  0.0000000  1.2552000  3
    318    316    319    339     1  0.0000000  0.6508444  3
    318    316    319    320     1  0.0000000  0.6508444  3
    318    316    319    321     1  0.0000000  0.6508444  3
    318    316    322    323     1  0.0000000  1.2552000  3
    318    316    322    326     1  0.0000000  1.2552000  3
    320    319    316    322     1  0.0000000  0.6508444  3
    320    319    339    340     1  0.0000000  0.0000000  2
    321    319    316    322     1  0.0000000  0.6508444  3
    321    319    339    340     1  0.0000000  0.0000000  2
    322    323    332    333     1  0.0000000  0.6508444  3
    322    323    332    334     1  0.0000000  0.6508444  3
    322    326    329    330     1  0.0000000  0.6508444  3
    322    326    329    331     1  0.0000000  0.6508444  3
    323    322    326    327     1  0.0000000  1.2552000  3
    323    322    326    328     1  0.0000000  1.2552000  3
    324    323    322    326     1  0.0000000  1.2552000  3
    324    323    332    336     1  0.0000000  0.6508444  3
    324    323    332    333     1  0.0000000  0.6508444  3
    324    323    332    334     1  0.0000000  0.6508444  3
    325    323    322    326     1  0.0000000  1.2552000  3
    325    323    332    336     1  0.0000000  0.6508444  3
    325    323    332    333     1  0.0000000  0.6508444  3
    325    323    332    334     1  0.0000000  0.6508444  3
    327    326    329    335     1  0.0000000  0.6508444  3
    327    326    329    330     1  0.0000000  0.6508444  3
    327    326    329    331     1  0.0000000  0.6508444  3
    328    326    329    335     1  0.0000000  0.6508444  3
    328    326    329    330     1  0.0000000  0.6508444  3
    328    326    329    331     1  0.0000000  0.6508444  3
    329    335    714    715     1  180.0000771  10.4600000  2
    330    329    335    337     1  0.0000000  3.3472000  1
    330    329    335    337     1  0.0000000  0.0000000  2
    330    329    335    337     1  180.0000771  0.3347200  3
    330    329    335    714     1  180.0000771  0.0000000  2
    331    329    335    337     1  0.0000000  3.3472000  1
    331    329    335    337     1  0.0000000  0.0000000  2
    331    329    335    337     1  180.0000771  0.3347200  3
    331    329    335    714     1  180.0000771  0.0000000  2
    332    336    739    740     1  180.0000771  10.4600000  2
    333    332    336    338     1  0.0000000  3.3472000  1
    333    332    336    338     1  0.0000000  0.0000000  2
    333    332    336    338     1  180.0000771  0.3347200  3
    333    332    336    739     1  180.0000771  0.0000000  2
    334    332    336    338     1  0.0000000  3.3472000  1
    334    332    336    338     1  0.0000000  0.0000000  2
    334    332    336    338     1  180.0000771  0.3347200  3
    334    332    336    739     1  180.0000771  0.0000000  2
    335    714    694    695     1  0.0000000  0.0000000  2
    335    714    694    696     1  0.0000000  0.0000000  2
    336    739    719    720     1  0.0000000  0.0000000  2
    336    739    719    721     1  0.0000000  0.0000000  2
    337    335    714    715     1  0.0000000  8.3680000  1
    337    335    714    715     1  180.0000771  10.4600000  2
    338    336    739    740     1  0.0000000  8.3680000  1
    338    336    739    740     1  180.0000771  10.4600000  2
    341    344    364    365     1  0.0000000  0.0000000  2
    341    347    348    349     1  0.0000000  1.2552000  3
    341    347    348    350     1  0.0000000  1.2552000  3
    341    347    351    352     1  0.0000000  1.2552000  3
    341    347    351    353     1  0.0000000  1.2552000  3
    342    341    344    364     1  0.0000000  0.6508444  3
    342    341    344    345     1  0.0000000  0.6508444  3
    342    341    344    346     1  0.0000000  0.6508444  3
    342    341    347    348     1  0.0000000  1.2552000  3
    342    341    347    351     1  0.0000000  1.2552000  3
    343    341    344    364     1  0.0000000  0.6508444  3
    343    341    344    345     1  0.0000000  0.6508444  3
    343    341    344    346     1  0.0000000  0.6508444  3
    343    341    347    348     1  0.0000000  1.2552000  3
    343    341    347    351     1  0.0000000  1.2552000  3
    345    344    341    347     1  0.0000000  0.6508444  3
    345    344    364    365     1  0.0000000  0.0000000  2
    346    344    341    347     1  0.0000000  0.6508444  3
    346    344    364    365     1  0.0000000  0.0000000  2
    347    348    357    358     1  0.0000000  0.6508444  3
    347    348    357    359     1  0.0000000  0.6508444  3
    347    351    354    355     1  0.0000000  0.6508444  3
    347    351    354    356     1  0.0000000  0.6508444  3
    348    347    351    352     1  0.0000000  1.2552000  3
    348    347    351    353     1  0.0000000  1.2552000  3
    349    348    347    351     1  0.0000000  1.2552000  3
    349    348    357    361     1  0.0000000  0.6508444  3
    349    348    357    358     1  0.0000000  0.6508444  3
    349    348    357    359     1  0.0000000  0.6508444  3
    350    348    347    351     1  0.0000000  1.2552000  3
    350    348    357    361     1  0.0000000  0.6508444  3
    350    348    357    358     1  0.0000000  0.6508444  3
    350    348    357    359     1  0.0000000  0.6508444  3
    352    351    354    360     1  0.0000000  0.6508444  3
    352    351    354    355     1  0.0000000  0.6508444  3
    352    351    354    356     1  0.0000000  0.6508444  3
    353    351    354    360     1  0.0000000  0.6508444  3
    353    351    354    355     1  0.0000000  0.6508444  3
    353    351    354    356     1  0.0000000  0.6508444  3
    354    360    764    765     1  180.0000771  10.4600000  2
    355    354    360    362     1  0.0000000  3.3472000  1
    355    354    360    362     1  0.0000000  0.0000000  2
    355    354    360    362     1  180.0000771  0.3347200  3
    355    354    360    764     1  180.0000771  0.0000000  2
    356    354    360    362     1  0.0000000  3.3472000  1
    356    354    360    362     1  0.0000000  0.0000000  2
    356    354    360    362     1  180.0000771  0.3347200  3
    356    354    360    764     1  180.0000771  0.0000000  2
    357    361    789    790     1  180.0000771  10.4600000  2
    358    357    361    363     1  0.0000000  3.3472000  1
    358    357    361    363     1  0.0000000  0.0000000  2
    358    357    361    363     1  180.0000771  0.3347200  3
    358    357    361    789     1  180.0000771  0.0000000  2
    359    357    361    363     1  0.0000000  3.3472000  1
    359    357    361    363     1  0.0000000  0.0000000  2
    359    357    361    363     1  180.0000771  0.3347200  3
    359    357    361    789     1  180.0000771  0.0000000  2
    360    764    744    745     1  0.0000000  0.0000000  2
    360    764    744    746     1  0.0000000  0.0000000  2
    361    789    769    770     1  0.0000000  0.0000000  2
    361    789    769    771     1  0.0000000  0.0000000  2
    362    360    764    765     1  0.0000000  8.3680000  1
    362    360    764    765     1  180.0000771  10.4600000  2
    363    361    789    790     1  0.0000000  8.3680000  1
    363    361    789    790     1  180.0000771  10.4600000  2
    366    369    389    390     1  0.0000000  0.0000000  2
    366    372    373    374     1  0.0000000  1.2552000  3
    366    372    373    375     1  0.0000000  1.2552000  3
    366    372    376    377     1  0.0000000  1.2552000  3
    366    372    376    378     1  0.0000000  1.2552000  3
    367    366    369    389     1  0.0000000  0.6508444  3
    367    366    369    370     1  0.0000000  0.6508444  3
    367    366    369    371     1  0.0000000  0.6508444  3
    367    366    372    373     1  0.0000000  1.2552000  3
    367    366    372    376     1  0.0000000  1.2552000  3
    368    366    369    389     1  0.0000000  0.6508444  3
    368    366    369    370     1  0.0000000  0.6508444  3
    368    366    369    371     1  0.0000000  0.6508444  3
    368    366    372    373     1  0.0000000  1.2552000  3
    368    366    372    376     1  0.0000000  1.2552000  3
    370    369    366    372     1  0.0000000  0.6508444  3
    370    369    389    390     1  0.0000000  0.0000000  2
    371    369    366    372     1  0.0000000  0.6508444  3
    371    369    389    390     1  0.0000000  0.0000000  2
    372    373    382    383     1  0.0000000  0.6508444  3
    372    373    382    384     1  0.0000000  0.6508444  3
    372    376    379    380     1  0.0000000  0.6508444  3
    372    376    379    381     1  0.0000000  0.6508444  3
    373    372    376    377     1  0.0000000  1.2552000  3
    373    372    376    378     1  0.0000000  1.2552000  3
    374    373    372    376     1  0.0000000  1.2552000  3
    374    373    382    386     1  0.0000000  0.6508444  3
    374    373    382    383     1  0.0000000  0.6508444  3
    374    373    382    384     1  0.0000000  0.6508444  3
    375    373    372    376     1  0.0000000  1.2552000  3
    375    373    382    386     1  0.0000000  0.6508444  3
    375    373    382    383     1  0.0000000  0.6508444  3
    375    373    382    384     1  0.0000000  0.6508444  3
    377    376    379    385     1  0.0000000  0.6508444  3
    377    376    379    380     1  0.0000000  0.6508444  3
    377    376    379    381     1  0.0000000  0.6508444  3
    378    376    379    385     1  0.0000000  0.6508444  3
    378    376    379    380     1  0.0000000  0.6508444  3
    378    376    379    381     1  0.0000000  0.6508444  3
    379    385    814    815     1  180.0000771  10.4600000  2
    380    379    385    387     1  0.0000000  3.3472000  1
    380    379    385    387     1  0.0000000  0.0000000  2
    380    379    385    387     1  180.0000771  0.3347200  3
    380    379    385    814     1  180.0000771  0.0000000  2
    381    379    385    387     1  0.0000000  3.3472000  1
    381    379    385    387     1  0.0000000  0.0000000  2
    381    379    385    387     1  180.0000771  0.3347200  3
    381    379    385    814     1  180.0000771  0.0000000  2
    382    386    839    840     1  180.0000771  10.4600000  2
    383    382    386    388     1  0.0000000  3.3472000  1
    383    382    386    388     1  0.0000000  0.0000000  2
    383    382    386    388     1  180.0000771  0.3347200  3
    383    382    386    839     1  180.0000771  0.0000000  2
    384    382    386    388     1  0.0000000  3.3472000  1
    384    382    386    388     1  0.0000000  0.0000000  2
    384    382    386    388     1  180.0000771  0.3347200  3
    384    382    386    839     1  180.0000771  0.0000000  2
    385    814    794    795     1  0.0000000  0.0000000  2
    385    814    794    796     1  0.0000000  0.0000000  2
    386    839    819    820     1  0.0000000  0.0000000  2
    386    839    819    821     1  0.0000000  0.0000000  2
    387    385    814    815     1  0.0000000  8.3680000  1
    387    385    814    815     1  180.0000771  10.4600000  2
    388    386    839    840     1  0.0000000  8.3680000  1
    388    386    839    840     1  180.0000771  10.4600000  2
    391    394    414    415     1  0.0000000  0.0000000  2
    391    397    398    399     1  0.0000000  1.2552000  3
    391    397    398    400     1  0.0000000  1.2552000  3
    391    397    401    402     1  0.0000000  1.2552000  3
    391    397    401    403     1  0.0000000  1.2552000  3
    392    391    394    414     1  0.0000000  0.6508444  3
    392    391    394    395     1  0.0000000  0.6508444  3
    392    391    394    396     1  0.0000000  0.6508444  3
    392    391    397    398     1  0.0000000  1.2552000  3
    392    391    397    401     1  0.0000000  1.2552000  3
    393    391    394    414     1  0.0000000  0.6508444  3
    393    391    394    395     1  0.0000000  0.6508444  3
    393    391    394    396     1  0.0000000  0.6508444  3
    393    391    397    398     1  0.0000000  1.2552000  3
    393    391    397    401     1  0.0000000  1.2552000  3
    395    394    391    397     1  0.0000000  0.6508444  3
    395    394    414    415     1  0.0000000  0.0000000  2
    396    394    391    397     1  0.0000000  0.6508444  3
    396    394    414    415     1  0.0000000  0.0000000  2
    397    398    407    408     1  0.0000000  0.6508444  3
    397    398    407    409     1  0.0000000  0.6508444  3
    397    401    404    405     1  0.0000000  0.6508444  3
    397    401    404    406     1  0.0000000  0.6508444  3
    398    397    401    402     1  0.0000000  1.2552000  3
    398    397    401    403     1  0.0000000  1.2552000  3
    399    398    397    401     1  0.0000000  1.2552000  3
    399    398    407    411     1  0.0000000  0.6508444  3
    399    398    407    408     1  0.0000000  0.6508444  3
    399    398    407    409     1  0.0000000  0.6508444  3
    400    398    397    401     1  0.0000000  1.2552000  3
    400    398    407    411     1  0.0000000  0.6508444  3
    400    398    407    408     1  0.0000000  0.6508444  3
    400    398    407    409     1  0.0000000  0.6508444  3
    402    401    404    410     1  0.0000000  0.6508444  3
    402    401    404    405     1  0.0000000  0.6508444  3
    402    401    404    406     1  0.0000000  0.6508444  3
    403    401    404    410     1  0.0000000  0.6508444  3
    403    401    404    405     1  0.0000000  0.6508444  3
    403    401    404    406     1  0.0000000  0.6508444  3
    404    410    864    865     1  180.0000771  10.4600000  2
    405    404    410    412     1  0.0000000  3.3472000  1
    405    404    410    412     1  0.0000000  0.0000000  2
    405    404    410    412     1  180.0000771  0.3347200  3
    405    404    410    864     1  180.0000771  0.0000000  2
    406    404    410    412     1  0.0000000  3.3472000  1
    406    404    410    412     1  0.0000000  0.0000000  2
    406    404    410    412     1  180.0000771  0.3347200  3
    406    404    410    864     1  180.0000771  0.0000000  2
    407    411    889    890     1  180.0000771  10.4600000  2
    408    407    411    413     1  0.0000000  3.3472000  1
    408    407    411    413     1  0.0000000  0.0000000  2
    408    407    411    413     1  180.0000771  0.3347200  3
    408    407    411    889     1  180.0000771  0.0000000  2
    409    407    411    413     1  0.0000000  3.3472000  1
    409    407    411    413     1  0.0000000  0.0000000  2
    409    407    411    413     1  180.0000771  0.3347200  3
    409    407    411    889     1  180.0000771  0.0000000  2
    410    864    844    845     1  0.0000000  0.0000000  2
    410    864    844    846     1  0.0000000  0.0000000  2
    411    889    869    870     1  0.0000000  0.0000000  2
    411    889    869    871     1  0.0000000  0.0000000  2
    412    410    864    865     1  0.0000000  8.3680000  1
    412    410    864    865     1  180.0000771  10.4600000  2
    413    411    889    890     1  0.0000000  8.3680000  1
    413    411    889    890     1  180.0000771  10.4600000  2
    416    419    439    440     1  0.0000000  0.0000000  2
    416    422    423    424     1  0.0000000  1.2552000  3
    416    422    423    425     1  0.0000000  1.2552000  3
    416    422    426    427     1  0.0000000  1.2552000  3
    416    422    426    428     1  0.0000000  1.2552000  3
    417    416    419    439     1  0.0000000  0.6508444  3
    417    416    419    420     1  0.0000000  0.6508444  3
    417    416    419    421     1  0.0000000  0.6508444  3
    417    416    422    423     1  0.0000000  1.2552000  3
    417    416    422    426     1  0.0000000  1.2552000  3
    418    416    419    439     1  0.0000000  0.6508444  3
    418    416    419    420     1  0.0000000  0.6508444  3
    418    416    419    421     1  0.0000000  0.6508444  3
    418    416    422    423     1  0.0000000  1.2552000  3
    418    416    422    426     1  0.0000000  1.2552000  3
    420    419    416    422     1  0.0000000  0.6508444  3
    420    419    439    440     1  0.0000000  0.0000000  2
    421    419    416    422     1  0.0000000  0.6508444  3
    421    419    439    440     1  0.0000000  0.0000000  2
    422    423    432    433     1  0.0000000  0.6508444  3
    422    423    432    434     1  0.0000000  0.6508444  3
    422    426    429    430     1  0.0000000  0.6508444  3
    422    426    429    431     1  0.0000000  0.6508444  3
    423    422    426    427     1  0.0000000  1.2552000  3
    423    422    426    428     1  0.0000000  1.2552000  3
    424    423    422    426     1  0.0000000  1.2552000  3
    424    423    432    436     1  0.0000000  0.6508444  3
    424    423    432    433     1  0.0000000  0.6508444  3
    424    423    432    434     1  0.0000000  0.6508444  3
    425    423    422    426     1  0.0000000  1.2552000  3
    425    423    432    436     1  0.0000000  0.6508444  3
    425    423    432    433     1  0.0000000  0.6508444  3
    425    423    432    434     1  0.0000000  0.6508444  3
    427    426    429    435     1  0.0000000  0.6508444  3
    427    426    429    430     1  0.0000000  0.6508444  3
    427    426    429    431     1  0.0000000  0.6508444  3
    428    426    429    435     1  0.0000000  0.6508444  3
    428    426    429    430     1  0.0000000  0.6508444  3
    428    426    429    431     1  0.0000000  0.6508444  3
    429    435    914    915     1  180.0000771  10.4600000  2
    430    429    435    437     1  0.0000000  3.3472000  1
    430    429    435    437     1  0.0000000  0.0000000  2
    430    429    435    437     1  180.0000771  0.3347200  3
    430    429    435    914     1  180.0000771  0.0000000  2
    431    429    435    437     1  0.0000000  3.3472000  1
    431    429    435    437     1  0.0000000  0.0000000  2
    431    429    435    437     1  180.0000771  0.3347200  3
    431    429    435    914     1  180.0000771  0.0000000  2
    432    436    939    940     1  180.0000771  10.4600000  2
    433    432    436    438     1  0.0000000  3.3472000  1
    433    432    436    438     1  0.0000000  0.0000000  2
    433    432    436    438     1  180.0000771  0.3347200  3
    433    432    436    939     1  180.0000771  0.0000000  2
    434    432    436    438     1  0.0000000  3.3472000  1
    434    432    436    438     1  0.0000000  0.0000000  2
    434    432    436    438     1  180.0000771  0.3347200  3
    434    432    436    939     1  180.0000771  0.0000000  2
    435    914    894    895     1  0.0000000  0.0000000  2
    435    914    894    896     1  0.0000000  0.0000000  2
    436    939    919    920     1  0.0000000  0.0000000  2
    436    939    919    921     1  0.0000000  0.0000000  2
    437    435    914    915     1  0.0000000  8.3680000  1
    437    435    914    915     1  180.0000771  10.4600000  2
    438    436    939    940     1  0.0000000  8.3680000  1
    438    436    939    940     1  180.0000771  10.4600000  2
    441    444    464    465     1  0.0000000  0.0000000  2
    441    447    448    449     1  0.0000000  1.2552000  3
    441    447    448    450     1  0.0000000  1.2552000  3
    441    447    451    452     1  0.0000000  1.2552000  3
    441    447    451    453     1  0.0000000  1.2552000  3
    442    441    444    464     1  0.0000000  0.6508444  3
    442    441    444    445     1  0.0000000  0.6508444  3
    442    441    444    446     1  0.0000000  0.6508444  3
    442    441    447    448     1  0.0000000  1.2552000  3
    442    441    447    451     1  0.0000000  1.2552000  3
    443    441    444    464     1  0.0000000  0.6508444  3
    443    441    444    445     1  0.0000000  0.6508444  3
    443    441    444    446     1  0.0000000  0.6508444  3
    443    441    447    448     1  0.0000000  1.2552000  3
    443    441    447    451     1  0.0000000  1.2552000  3
    445    444    441    447     1  0.0000000  0.6508444  3
    445    444    464    465     1  0.0000000  0.0000000  2
    446    444    441    447     1  0.0000000  0.6508444  3
    446    444    464    465     1  0.0000000  0.0000000  2
    447    448    457    458     1  0.0000000  0.6508444  3
    447    448    457    459     1  0.0000000  0.6508444  3
    447    451    454    455     1  0.0000000  0.6508444  3
    447    451    454    456     1  0.0000000  0.6508444  3
    448    447    451    452     1  0.0000000  1.2552000  3
    448    447    451    453     1  0.0000000  1.2552000  3
    449    448    447    451     1  0.0000000  1.2552000  3
    449    448    457    461     1  0.0000000  0.6508444  3
    449    448    457    458     1  0.0000000  0.6508444  3
    449    448    457    459     1  0.0000000  0.6508444  3
    450    448    447    451     1  0.0000000  1.2552000  3
    450    448    457    461     1  0.0000000  0.6508444  3
    450    448    457    458     1  0.0000000  0.6508444  3
    450    448    457    459     1  0.0000000  0.6508444  3
    452    451    454    460     1  0.0000000  0.6508444  3
    452    451    454    455     1  0.0000000  0.6508444  3
    452    451    454    456     1  0.0000000  0.6508444  3
    453    451    454    460     1  0.0000000  0.6508444  3
    453    451    454    455     1  0.0000000  0.6508444  3
    453    451    454    456     1  0.0000000  0.6508444  3
    454    460    964    965     1  180.0000771  10.4600000  2
    455    454    460    462     1  0.0000000  3.3472000  1
    455    454    460    462     1  0.0000000  0.0000000  2
    455    454    460    462     1  180.0000771  0.3347200  3
    455    454    460    964     1  180.0000771  0.0000000  2
    456    454    460    462     1  0.0000000  3.3472000  1
    456    454    460    462     1  0.0000000  0.0000000  2
    456    454    460    462     1  180.0000771  0.3347200  3
    456    454    460    964     1  180.0000771  0.0000000  2
    457    461    989    990     1  180.0000771  10.4600000  2
    458    457    461    463     1  0.0000000  3.3472000  1
    458    457    461    463     1  0.0000000  0.0000000  2
    458    457    461    463     1  180.0000771  0.3347200  3
    458    457    461    989     1  180.0000771  0.0000000  2
    459    457    461    463     1  0.0000000  3.3472000  1
    459    457    461    463     1  0.0000000  0.0000000  2
    459    457    461    463     1  180.0000771  0.3347200  3
    459    457    461    989     1  180.0000771  0.0000000  2
    460    964    944    945     1  0.0000000  0.0000000  2
    460    964    944    946     1  0.0000000  0.0000000  2
    461    989    969    970     1  0.0000000  0.0000000  2
    461    989    969    971     1  0.0000000  0.0000000  2
    462    460    964    965     1  0.0000000  8.3680000  1
    462    460    964    965     1  180.0000771  10.4600000  2
    463    461    989    990     1  0.0000000  8.3680000  1
    463    461    989    990     1  180.0000771  10.4600000  2
    466    469    489    490     1  0.0000000  0.0000000  2
    466    472    473    474     1  0.0000000  1.2552000  3
    466    472    473    475     1  0.0000000  1.2552000  3
    466    472    476    477     1  0.0000000  1.2552000  3
    466    472    476    478     1  0.0000000  1.2552000  3
    467    466    469    489     1  0.0000000  0.6508444  3
    467    466    469    470     1  0.0000000  0.6508444  3
    467    466    469    471     1  0.0000000  0.6508444  3
    467    466    472    473     1  0.0000000  1.2552000  3
    467    466    472    476     1  0.0000000  1.2552000  3
    468    466    469    489     1  0.0000000  0.6508444  3
    468    466    469    470     1  0.0000000  0.6508444  3
    468    466    469    471     1  0.0000000  0.6508444  3
    468    466    472    473     1  0.0000000  1.2552000  3
    468    466    472    476     1  0.0000000  1.2552000  3
    470    469    466    472     1  0.0000000  0.6508444  3
    470    469    489    490     1  0.0000000  0.0000000  2
    471    469    466    472     1  0.0000000  0.6508444  3
    471    469    489    490     1  0.0000000  0.0000000  2
    472    473    482    483     1  0.0000000  0.6508444  3
    472    473    482    484     1  0.0000000  0.6508444  3
    472    476    479    480     1  0.0000000  0.6508444  3
    472    476    479    481     1  0.0000000  0.6508444  3
    473    472    476    477     1  0.0000000  1.2552000  3
    473    472    476    478     1  0.0000000  1.2552000  3
    474    473    472    476     1  0.0000000  1.2552000  3
    474    473    482    486     1  0.0000000  0.6508444  3
    474    473    482    483     1  0.0000000  0.6508444  3
    474    473    482    484     1  0.0000000  0.6508444  3
    475    473    472    476     1  0.0000000  1.2552000  3
    475    473    482    486     1  0.0000000  0.6508444  3
    475    473    482    483     1  0.0000000  0.6508444  3
    475    473    482    484     1  0.0000000  0.6508444  3
    477    476    479    485     1  0.0000000  0.6508444  3
    477    476    479    480     1  0.0000000  0.6508444  3
    477    476    479    481     1  0.0000000  0.6508444  3
    478    476    479    485     1  0.0000000  0.6508444  3
    478    476    479    480     1  0.0000000  0.6508444  3
    478    476    479    481     1  0.0000000  0.6508444  3
    479    485   1014   1015     1  180.0000771  10.4600000  2
    480    479    485    487     1  0.0000000  3.3472000  1
    480    479    485    487     1  0.0000000  0.0000000  2
    480    479    485    487     1  180.0000771  0.3347200  3
    480    479    485   1014     1  180.0000771  0.0000000  2
    481    479    485    487     1  0.0000000  3.3472000  1
    481    479    485    487     1  0.0000000  0.0000000  2
    481    479    485    487     1  180.0000771  0.3347200  3
    481    479    485   1014     1  180.0000771  0.0000000  2
    482    486   1039   1040     1  180.0000771  10.4600000  2
    483    482    486    488     1  0.0000000  3.3472000  1
    483    482    486    488     1  0.0000000  0.0000000  2
    483    482    486    488     1  180.0000771  0.3347200  3
    483    482    486   1039     1  180.0000771  0.0000000  2
    484    482    486    488     1  0.0000000  3.3472000  1
    484    482    486    488     1  0.0000000  0.0000000  2
    484    482    486    488     1  180.0000771  0.3347200  3
    484    482    486   1039     1  180.0000771  0.0000000  2
    485   1014    994    995     1  0.0000000  0.0000000  2
    485   1014    994    996     1  0.0000000  0.0000000  2
    486   1039   1019   1020     1  0.0000000  0.0000000  2
    486   1039   1019   1021     1  0.0000000  0.0000000  2
    487    485   1014   1015     1  0.0000000  8.3680000  1
    487    485   1014   1015     1  180.0000771  10.4600000  2
    488    486   1039   1040     1  0.0000000  8.3680000  1
    488    486   1039   1040     1  180.0000771  10.4600000  2
    491    494    514    515     1  0.0000000  0.0000000  2
    491    497    498    499     1  0.0000000  1.2552000  3
    491    497    498    500     1  0.0000000  1.2552000  3
    491    497    501    502     1  0.0000000  1.2552000  3
    491    497    501    503     1  0.0000000  1.2552000  3
    492    491    494    514     1  0.0000000  0.6508444  3
    492    491    494    495     1  0.0000000  0.6508444  3
    492    491    494    496     1  0.0000000  0.6508444  3
    492    491    497    498     1  0.0000000  1.2552000  3
    492    491    497    501     1  0.0000000  1.2552000  3
    493    491    494    514     1  0.0000000  0.6508444  3
    493    491    494    495     1  0.0000000  0.6508444  3
    493    491    494    496     1  0.0000000  0.6508444  3
    493    491    497    498     1  0.0000000  1.2552000  3
    493    491    497    501     1  0.0000000  1.2552000  3
    495    494    491    497     1  0.0000000  0.6508444  3
    495    494    514    515     1  0.0000000  0.0000000  2
    496    494    491    497     1  0.0000000  0.6508444  3
    496    494    514    515     1  0.0000000  0.0000000  2
    497    498    507    508     1  0.0000000  0.6508444  3
    497    498    507    509     1  0.0000000  0.6508444  3
    497    501    504    505     1  0.0000000  0.6508444  3
    497    501    504    506     1  0.0000000  0.6508444  3
    498    497    501    502     1  0.0000000  1.2552000  3
    498    497    501    503     1  0.0000000  1.2552000  3
    499    498    497    501     1  0.0000000  1.2552000  3
    499    498    507    511     1  0.0000000  0.6508444  3
    499    498    507    508     1  0.0000000  0.6508444  3
    499    498    507    509     1  0.0000000  0.6508444  3
    500    498    497    501     1  0.0000000  1.2552000  3
    500    498    507    511     1  0.0000000  0.6508444  3
    500    498    507    508     1  0.0000000  0.6508444  3
    500    498    507    509     1  0.0000000  0.6508444  3
    502    501    504    510     1  0.0000000  0.6508444  3
    502    501    504    505     1  0.0000000  0.6508444  3
    502    501    504    506     1  0.0000000  0.6508444  3
    503    501    504    510     1  0.0000000  0.6508444  3
    503    501    504    505     1  0.0000000  0.6508444  3
    503    501    504    506     1  0.0000000  0.6508444  3
    504    510   1064   1065     1  180.0000771  10.4600000  2
    505    504    510    512     1  0.0000000  3.3472000  1
    505    504    510    512     1  0.0000000  0.0000000  2
    505    504    510    512     1  180.0000771  0.3347200  3
    505    504    510   1064     1  180.0000771  0.0000000  2
    506    504    510    512     1  0.0000000  3.3472000  1
    506    504    510    512     1  0.0000000  0.0000000  2
    506    504    510    512     1  180.0000771  0.3347200  3
    506    504    510   1064     1  180.0000771  0.0000000  2
    507    511   1089   1090     1  180.0000771  10.4600000  2
    508    507    511    513     1  0.0000000  3.3472000  1
    508    507    511    513     1  0.0000000  0.0000000  2
    508    507    511    513     1  180.0000771  0.3347200  3
    508    507    511   1089     1  180.0000771  0.0000000  2
    509    507    511    513     1  0.0000000  3.3472000  1
    509    507    511    513     1  0.0000000  0.0000000  2
    509    507    511    513     1  180.0000771  0.3347200  3
    509    507    511   1089     1  180.0000771  0.0000000  2
    510   1064   1044   1045     1  0.0000000  0.0000000  2
    510   1064   1044   1046     1  0.0000000  0.0000000  2
    511   1089   1069   1070     1  0.0000000  0.0000000  2
    511   1089   1069   1071     1  0.0000000  0.0000000  2
    512    510   1064   1065     1  0.0000000  8.3680000  1
    512    510   1064   1065     1  180.0000771  10.4600000  2
    513    511   1089   1090     1  0.0000000  8.3680000  1
    513    511   1089   1090     1  180.0000771  10.4600000  2
    516    519    539    540     1  0.0000000  0.0000000  2
    516    522    523    524     1  0.0000000  1.2552000  3
    516    522    523    525     1  0.0000000  1.2552000  3
    516    522    526    527     1  0.0000000  1.2552000  3
    516    522    526    528     1  0.0000000  1.2552000  3
    517    516    519    539     1  0.0000000  0.6508444  3
    517    516    519    520     1  0.0000000  0.6508444  3
    517    516    519    521     1  0.0000000  0.6508444  3
    517    516    522    523     1  0.0000000  1.2552000  3
    517    516    522    526     1  0.0000000  1.2552000  3
    518    516    519    539     1  0.0000000  0.6508444  3
    518    516    519    520     1  0.0000000  0.6508444  3
    518    516    519    521     1  0.0000000  0.6508444  3
    518    516    522    523     1  0.0000000  1.2552000  3
    518    516    522    526     1  0.0000000  1.2552000  3
    520    519    516    522     1  0.0000000  0.6508444  3
    520    519    539    540     1  0.0000000  0.0000000  2
    521    519    516    522     1  0.0000000  0.6508444  3
    521    519    539    540     1  0.0000000  0.0000000  2
    522    523    532    533     1  0.0000000  0.6508444  3
    522    523    532    534     1  0.0000000  0.6508444  3
    522    526    529    530     1  0.0000000  0.6508444  3
    522    526    529    531     1  0.0000000  0.6508444  3
    523    522    526    527     1  0.0000000  1.2552000  3
    523    522    526    528     1  0.0000000  1.2552000  3
    524    523    522    526     1  0.0000000  1.2552000  3
    524    523    532    536     1  0.0000000  0.6508444  3
    524    523    532    533     1  0.0000000  0.6508444  3
    524    523    532    534     1  0.0000000  0.6508444  3
    525    523    522    526     1  0.0000000  1.2552000  3
    525    523    532    536     1  0.0000000  0.6508444  3
    525    523    532    533     1  0.0000000  0.6508444  3
    525    523    532    534     1  0.0000000  0.6508444  3
    527    526    529    535     1  0.0000000  0.6508444  3
    527    526    529    530     1  0.0000000  0.6508444  3
    527    526    529    531     1  0.0000000  0.6508444  3
    528    526    529    535     1  0.0000000  0.6508444  3
    528    526    529    530     1  0.0000000  0.6508444  3
    528    526    529    531     1  0.0000000  0.6508444  3
    529    535   1114   1115     1  180.0000771  10.4600000  2
    530    529    535    537     1  0.0000000  3.3472000  1
    530    529    535    537     1  0.0000000  0.0000000  2
    530    529    535    537     1  180.0000771  0.3347200  3
    530    529    535   1114     1  180.0000771  0.0000000  2
    531    529    535    537     1  0.0000000  3.3472000  1
    531    529    535    537     1  0.0000000  0.0000000  2
    531    529    535    537     1  180.0000771  0.3347200  3
    531    529    535   1114     1  180.0000771  0.0000000  2
    532    536   1139   1140     1  180.0000771  10.4600000  2
    533    532    536    538     1  0.0000000  3.3472000  1
    533    532    536    538     1  0.0000000  0.0000000  2
    533    532    536    538     1  180.0000771  0.3347200  3
    533    532    536   1139     1  180.0000771  0.0000000  2
    534    532    536    538     1  0.0000000  3.3472000  1
    534    532    536    538     1  0.0000000  0.0000000  2
    534    532    536    538     1  180.0000771  0.3347200  3
    534    532    536   1139     1  180.0000771  0.0000000  2
    535   1114   1094   1095     1  0.0000000  0.0000000  2
    535   1114   1094   1096     1  0.0000000  0.0000000  2
    536   1139   1119   1120     1  0.0000000  0.0000000  2
    536   1139   1119   1121     1  0.0000000  0.0000000  2
    537    535   1114   1115     1  0.0000000  8.3680000  1
    537    535   1114   1115     1  180.0000771  10.4600000  2
    538    536   1139   1140     1  0.0000000  8.3680000  1
    538    536   1139   1140     1  180.0000771  10.4600000  2
    541    544    564    565     1  0.0000000  0.0000000  2
    541    547    548    549     1  0.0000000  1.2552000  3
    541    547    548    550     1  0.0000000  1.2552000  3
    541    547    551    552     1  0.0000000  1.2552000  3
    541    547    551    553     1  0.0000000  1.2552000  3
    542    541    544    564     1  0.0000000  0.6508444  3
    542    541    544    545     1  0.0000000  0.6508444  3
    542    541    544    546     1  0.0000000  0.6508444  3
    542    541    547    548     1  0.0000000  1.2552000  3
    542    541    547    551     1  0.0000000  1.2552000  3
    543    541    544    564     1  0.0000000  0.6508444  3
    543    541    544    545     1  0.0000000  0.6508444  3
    543    541    544    546     1  0.0000000  0.6508444  3
    543    541    547    548     1  0.0000000  1.2552000  3
    543    541    547    551     1  0.0000000  1.2552000  3
    545    544    541    547     1  0.0000000  0.6508444  3
    545    544    564    565     1  0.0000000  0.0000000  2
    546    544    541    547     1  0.0000000  0.6508444  3
    546    544    564    565     1  0.0000000  0.0000000  2
    547    548    557    558     1  0.0000000  0.6508444  3
    547    548    557    559     1  0.0000000  0.6508444  3
    547    551    554    555     1  0.0000000  0.6508444  3
    547    551    554    556     1  0.0000000  0.6508444  3
    548    547    551    552     1  0.0000000  1.2552000  3
    548    547    551    553     1  0.0000000  1.2552000  3
    549    548    547    551     1  0.0000000  1.2552000  3
    549    548    557    561     1  0.0000000  0.6508444  3
    549    548    557    558     1  0.0000000  0.6508444  3
    549    548    557    559     1  0.0000000  0.6508444  3
    550    548    547    551     1  0.0000000  1.2552000  3
    550    548    557    561     1  0.0000000  0.6508444  3
    550    548    557    558     1  0.0000000  0.6508444  3
    550    548    557    559     1  0.0000000  0.6508444  3
    552    551    554    560     1  0.0000000  0.6508444  3
    552    551    554    555     1  0.0000000  0.6508444  3
    552    551    554    556     1  0.0000000  0.6508444  3
    553    551    554    560     1  0.0000000  0.6508444  3
    553    551    554    555     1  0.0000000  0.6508444  3
    553    551    554    556     1  0.0000000  0.6508444  3
    554    560   1164   1165     1  180.0000771  10.4600000  2
    555    554    560    562     1  0.0000000  3.3472000  1
    555    554    560    562     1  0.0000000  0.0000000  2
    555    554    560    562     1  180.0000771  0.3347200  3
    555    554    560   1164     1  180.0000771  0.0000000  2
    556    554    560    562     1  0.0000000  3.3472000  1
    556    554    560    562     1  0.0000000  0.0000000  2
    556    554    560    562     1  180.0000771  0.3347200  3
    556    554    560   1164     1  180.0000771  0.0000000  2
    557    561   1189   1190     1  180.0000771  10.4600000  2
    558    557    561    563     1  0.0000000  3.3472000  1
    558    557    561    563     1  0.0000000  0.0000000  2
    558    557    561    563     1  180.0000771  0.3347200  3
    558    557    561   1189     1  180.0000771  0.0000000  2
    559    557    561    563     1  0.0000000  3.3472000  1
    559    557    561    563     1  0.0000000  0.0000000  2
    559    557    561    563     1  180.0000771  0.3347200  3
    559    557    561   1189     1  180.0000771  0.0000000  2
    560   1164   1144   1145     1  0.0000000  0.0000000  2
    560   1164   1144   1146     1  0.0000000  0.0000000  2
    561   1189   1169   1170     1  0.0000000  0.0000000  2
    561   1189   1169   1171     1  0.0000000  0.0000000  2
    562    560   1164   1165     1  0.0000000  8.3680000  1
    562    560   1164   1165     1  180.0000771  10.4600000  2
    563    561   1189   1190     1  0.0000000  8.3680000  1
    563    561   1189   1190     1  180.0000771  10.4600000  2
    566    569    589    590     1  0.0000000  0.0000000  2
    566    572    573    574     1  0.0000000  1.2552000  3
    566    572    573    575     1  0.0000000  1.2552000  3
    566    572    576    577     1  0.0000000  1.2552000  3
    566    572    576    578     1  0.0000000  1.2552000  3
    567    566    569    589     1  0.0000000  0.6508444  3
    567    566    569    570     1  0.0000000  0.6508444  3
    567    566    569    571     1  0.0000000  0.6508444  3
    567    566    572    573     1  0.0000000  1.2552000  3
    567    566    572    576     1  0.0000000  1.2552000  3
    568    566    569    589     1  0.0000000  0.6508444  3
    568    566    569    570     1  0.0000000  0.6508444  3
    568    566    569    571     1  0.0000000  0.6508444  3
    568    566    572    573     1  0.0000000  1.2552000  3
    568    566    572    576     1  0.0000000  1.2552000  3
    570    569    566    572     1  0.0000000  0.6508444  3
    570    569    589    590     1  0.0000000  0.0000000  2
    571    569    566    572     1  0.0000000  0.6508444  3
    571    569    589    590     1  0.0000000  0.0000000  2
    572    573    582    583     1  0.0000000  0.6508444  3
    572    573    582    584     1  0.0000000  0.6508444  3
    572    576    579    580     1  0.0000000  0.6508444  3
    572    576    579    581     1  0.0000000  0.6508444  3
    573    572    576    577     1  0.0000000  1.2552000  3
    573    572    576    578     1  0.0000000  1.2552000  3
    574    573    572    576     1  0.0000000  1.2552000  3
    574    573    582    586     1  0.0000000  0.6508444  3
    574    573    582    583     1  0.0000000  0.6508444  3
    574    573    582    584     1  0.0000000  0.6508444  3
    575    573    572    576     1  0.0000000  1.2552000  3
    575    573    582    586     1  0.0000000  0.6508444  3
    575    573    582    583     1  0.0000000  0.6508444  3
    575    573    582    584     1  0.0000000  0.6508444  3
    577    576    579    585     1  0.0000000  0.6508444  3
    577    576    579    580     1  0.0000000  0.6508444  3
    577    576    579    581     1  0.0000000  0.6508444  3
    578    576    579    585     1  0.0000000  0.6508444  3
    578    576    579    580     1  0.0000000  0.6508444  3
    578    576    579    581     1  0.0000000  0.6508444  3
    579    585   1214   1215     1  180.0000771  10.4600000  2
    580    579    585    587     1  0.0000000  3.3472000  1
    580    579    585    587     1  0.0000000  0.0000000  2
    580    579    585    587     1  180.0000771  0.3347200  3
    580    579    585   1214     1  180.0000771  0.0000000  2
    581    579    585    587     1  0.0000000  3.3472000  1
    581    579    585    587     1  0.0000000  0.0000000  2
    581    579    585    587     1  180.0000771  0.3347200  3
    581    579    585   1214     1  180.0000771  0.0000000  2
    582    586   1239   1240     1  180.0000771  10.4600000  2
    583    582    586    588     1  0.0000000  3.3472000  1
    583    582    586    588     1  0.0000000  0.0000000  2
    583    582    586    588     1  180.0000771  0.3347200  3
    583    582    586   1239     1  180.0000771  0.0000000  2
    584    582    586    588     1  0.0000000  3.3472000  1
    584    582    586    588     1  0.0000000  0.0000000  2
    584    582    586    588     1  180.0000771  0.3347200  3
    584    582    586   1239     1  180.0000771  0.0000000  2
    585   1214   1194   1195     1  0.0000000  0.0000000  2
    585   1214   1194   1196     1  0.0000000  0.0000000  2
    586   1239   1219   1220     1  0.0000000  0.0000000  2
    586   1239   1219   1221     1  0.0000000  0.0000000  2
    587    585   1214   1215     1  0.0000000  8.3680000  1
    587    585   1214   1215     1  180.0000771  10.4600000  2
    588    586   1239   1240     1  0.0000000  8.3680000  1
    588    586   1239   1240     1  180.0000771  10.4600000  2
    591    594    614    615     1  0.0000000  0.0000000  2
    591    597    598    599     1  0.0000000  1.2552000  3
    591    597    598    600     1  0.0000000  1.2552000  3
    591    597    601    602     1  0.0000000  1.2552000  3
    591    597    601    603     1  0.0000000  1.2552000  3
    592    591    594    614     1  0.0000000  0.6508444  3
    592    591    594    595     1  0.0000000  0.6508444  3
    592    591    594    596     1  0.0000000  0.6508444  3
    592    591    597    598     1  0.0000000  1.2552000  3
    592    591    597    601     1  0.0000000  1.2552000  3
    593    591    594    614     1  0.0000000  0.6508444  3
    593    591    594    595     1  0.0000000  0.6508444  3
    593    591    594    596     1  0.0000000  0.6508444  3
    593    591    597    598     1  0.0000000  1.2552000  3
    593    591    597    601     1  0.0000000  1.2552000  3
    595    594    591    597     1  0.0000000  0.6508444  3
    595    594    614    615     1  0.0000000  0.0000000  2
    596    594    591    597     1  0.0000000  0.6508444  3
    596    594    614    615     1  0.0000000  0.0000000  2
    597    598    607    608     1  0.0000000  0.6508444  3
    597    598    607    609     1  0.0000000  0.6508444  3
    597    601    604    605     1  0.0000000  0.6508444  3
    597    601    604    606     1  0.0000000  0.6508444  3
    598    597    601    602     1  0.0000000  1.2552000  3
    598    597    601    603     1  0.0000000  1.2552000  3
    599    598    597    601     1  0.0000000  1.2552000  3
    599    598    607    611     1  0.0000000  0.6508444  3
    599    598    607    608     1  0.0000000  0.6508444  3
    599    598    607    609     1  0.0000000  0.6508444  3
    600    598    597    601     1  0.0000000  1.2552000  3
    600    598    607    611     1  0.0000000  0.6508444  3
    600    598    607    608     1  0.0000000  0.6508444  3
    600    598    607    609     1  0.0000000  0.6508444  3
    602    601    604    610     1  0.0000000  0.6508444  3
    602    601    604    605     1  0.0000000  0.6508444  3
    602    601    604    606     1  0.0000000  0.6508444  3
    603    601    604    610     1  0.0000000  0.6508444  3
    603    601    604    605     1  0.0000000  0.6508444  3
    603    601    604    606     1  0.0000000  0.6508444  3
    604    610   1264   1265     1  180.0000771  10.4600000  2
    605    604    610    612     1  0.0000000  3.3472000  1
    605    604    610    612     1  0.0000000  0.0000000  2
    605    604    610    612     1  180.0000771  0.3347200  3
    605    604    610   1264     1  180.0000771  0.0000000  2
    606    604    610    612     1  0.0000000  3.3472000  1
    606    604    610    612     1  0.0000000  0.0000000  2
    606    604    610    612     1  180.0000771  0.3347200  3
    606    604    610   1264     1  180.0000771  0.0000000  2
    607    611   1289   1290     1  180.0000771  10.4600000  2
    608    607    611    613     1  0.0000000  3.3472000  1
    608    607    611    613     1  0.0000000  0.0000000  2
    608    607    611    613     1  180.0000771  0.3347200  3
    608    607    611   1289     1  180.0000771  0.0000000  2
    609    607    611    613     1  0.0000000  3.3472000  1
    609    607    611    613     1  0.0000000  0.0000000  2
    609    607    611    613     1  180.0000771  0.3347200  3
    609    607    611   1289     1  180.0000771  0.0000000  2
    610   1264   1244   1245     1  0.0000000  0.0000000  2
    610   1264   1244   1246     1  0.0000000  0.0000000  2
    611   1289   1269   1270     1  0.0000000  0.0000000  2
    611   1289   1269   1271     1  0.0000000  0.0000000  2
    612    610   1264   1265     1  0.0000000  8.3680000  1
    612    610   1264   1265     1  180.0000771  10.4600000  2
    613    611   1289   1290     1  0.0000000  8.3680000  1
    613    611   1289   1290     1  180.0000771  10.4600000  2
    616    619    639    640     1  0.0000000  0.0000000  2
    616    622    623    624     1  0.0000000  1.2552000  3
    616    622    623    625     1  0.0000000  1.2552000  3
    616    622    626    627     1  0.0000000  1.2552000  3
    616    622    626    628     1  0.0000000  1.2552000  3
    617    616    619    639     1  0.0000000  0.6508444  3
    617    616    619    620     1  0.0000000  0.6508444  3
    617    616    619    621     1  0.0000000  0.6508444  3
    617    616    622    623     1  0.0000000  1.2552000  3
    617    616    622    626     1  0.0000000  1.2552000  3
    618    616    619    639     1  0.0000000  0.6508444  3
    618    616    619    620     1  0.0000000  0.6508444  3
    618    616    619    621     1  0.0000000  0.6508444  3
    618    616    622    623     1  0.0000000  1.2552000  3
    618    616    622    626     1  0.0000000  1.2552000  3
    620    619    616    622     1  0.0000000  0.6508444  3
    620    619    639    640     1  0.0000000  0.0000000  2
    621    619    616    622     1  0.0000000  0.6508444  3
    621    619    639    640     1  0.0000000  0.0000000  2
    622    623    632    633     1  0.0000000  0.6508444  3
    622    623    632    634     1  0.0000000  0.6508444  3
    622    626    629    630     1  0.0000000  0.6508444  3
    622    626    629    631     1  0.0000000  0.6508444  3
    623    622    626    627     1  0.0000000  1.2552000  3
    623    622    626    628     1  0.0000000  1.2552000  3
    624    623    622    626     1  0.0000000  1.2552000  3
    624    623    632    636     1  0.0000000  0.6508444  3
    624    623    632    633     1  0.0000000  0.6508444  3
    624    623    632    634     1  0.0000000  0.6508444  3
    625    623    622    626     1  0.0000000  1.2552000  3
    625    623    632    636     1  0.0000000  0.6508444  3
    625    623    632    633     1  0.0000000  0.6508444  3
    625    623    632    634     1  0.0000000  0.6508444  3
    627    626    629    635     1  0.0000000  0.6508444  3
    627    626    629    630     1  0.0000000  0.6508444  3
    627    626    629    631     1  0.0000000  0.6508444  3
    628    626    629    635     1  0.0000000  0.6508444  3
    628    626    629    630     1  0.0000000  0.6508444  3
    628    626    629    631     1  0.0000000  0.6508444  3
    629    635   1314   1315     1  180.0000771  10.4600000  2
    630    629    635    637     1  0.0000000  3.3472000  1
    630    629    635    637     1  0.0000000  0.0000000  2
    630    629    635    637     1  180.0000771  0.3347200  3
    630    629    635   1314     1  180.0000771  0.0000000  2
    631    629    635    637     1  0.0000000  3.3472000  1
    631    629    635    637     1  0.0000000  0.0000000  2
    631    629    635    637     1  180.0000771  0.3347200  3
    631    629    635   1314     1  180.0000771  0.0000000  2
    632    636   1339   1340     1  180.0000771  10.4600000  2
    633    632    636    638     1  0.0000000  3.3472000  1
    633    632    636    638     1  0.0000000  0.0000000  2
    633    632    636    638     1  180.0000771  0.3347200  3
    633    632    636   1339     1  180.0000771  0.0000000  2
    634    632    636    638     1  0.0000000  3.3472000  1
    634    632    636    638     1  0.0000000  0.0000000  2
    634    632    636    638     1  180.0000771  0.3347200  3
    634    632    636   1339     1  180.0000771  0.0000000  2
    635   1314   1294   1295     1  0.0000000  0.0000000  2
    635   1314   1294   1296     1  0.0000000  0.0000000  2
    636   1339   1319   1320     1  0.0000000  0.0000000  2
    636   1339   1319   1321     1  0.0000000  0.0000000  2
    637    635   1314   1315     1  0.0000000  8.3680000  1
    637    635   1314   1315     1  180.0000771  10.4600000  2
    638    636   1339   1340     1  0.0000000  8.3680000  1
    638    636   1339   1340     1  180.0000771  10.4600000  2
    641    644    664    665     1  0.0000000  0.0000000  2
    641    647    648    649     1  0.0000000  1.2552000  3
    641    647    648    650     1  0.0000000  1.2552000  3
    641    647    651    652     1  0.0000000  1.2552000  3
    641    647    651    653     1  0.0000000  1.2552000  3
    642    641    644    664     1  0.0000000  0.6508444  3
    642    641    644    645     1  0.0000000  0.6508444  3
    642    641    644    646     1  0.0000000  0.6508444  3
    642    641    647    648     1  0.0000000  1.2552000  3
    642    641    647    651     1  0.0000000  1.2552000  3
    643    641    644    664     1  0.0000000  0.6508444  3
    643    641    644    645     1  0.0000000  0.6508444  3
    643    641    644    646     1  0.0000000  0.6508444  3
    643    641    647    648     1  0.0000000  1.2552000  3
    643    641    647    651     1  0.0000000  1.2552000  3
    645    644    641    647     1  0.0000000  0.6508444  3
    645    644    664    665     1  0.0000000  0.0000000  2
    646    644    641    647     1  0.0000000  0.6508444  3
    646    644    664    665     1  0.0000000  0.0000000  2
    647    648    657    658     1  0.0000000  0.6508444  3
    647    648    657    659     1  0.0000000  0.6508444  3
    647    651    654    655     1  0.0000000  0.6508444  3
    647    651    654    656     1  0.0000000  0.6508444  3
    648    647    651    652     1  0.0000000  1.2552000  3
    648    647    651    653     1  0.0000000  1.2552000  3
    649    648    647    651     1  0.0000000  1.2552000  3
    649    648    657    661     1  0.0000000  0.6508444  3
    649    648    657    658     1  0.0000000  0.6508444  3
    649    648    657    659     1  0.0000000  0.6508444  3
    650    648    647    651     1  0.0000000  1.2552000  3
    650    648    657    661     1  0.0000000  0.6508444  3
    650    648    657    658     1  0.0000000  0.6508444  3
    650    648    657    659     1  0.0000000  0.6508444  3
    652    651    654    660     1  0.0000000  0.6508444  3
    652    651    654    655     1  0.0000000  0.6508444  3
    652    651    654    656     1  0.0000000  0.6508444  3
    653    651    654    660     1  0.0000000  0.6508444  3
    653    651    654    655     1  0.0000000  0.6508444  3
    653    651    654    656     1  0.0000000  0.6508444  3
    654    660   1364   1365     1  180.0000771  10.4600000  2
    655    654    660    662     1  0.0000000  3.3472000  1
    655    654    660    662     1  0.0000000  0.0000000  2
    655    654    660    662     1  180.0000771  0.3347200  3
    655    654    660   1364     1  180.0000771  0.0000000  2
    656    654    660    662     1  0.0000000  3.3472000  1
    656    654    660    662     1  0.0000000  0.0000000  2
    656    654    660    662     1  180.0000771  0.3347200  3
    656    654    660   1364     1  180.0000771  0.0000000  2
    657    661   1389   1390     1  180.0000771  10.4600000  2
    658    657    661    663     1  0.0000000  3.3472000  1
    658    657    661    663     1  0.0000000  0.0000000  2
    658    657    661    663     1  180.0000771  0.3347200  3
    658    657    661   1389     1  180.0000771  0.0000000  2
    659    657    661    663     1  0.0000000  3.3472000  1
    659    657    661    663     1  0.0000000  0.0000000  2
    659    657    661    663     1  180.0000771  0.3347200  3
    659    657    661   1389     1  180.0000771  0.0000000  2
    660   1364   1344   1345     1  0.0000000  0.0000000  2
    660   1364   1344   1346     1  0.0000000  0.0000000  2
    661   1389   1369   1370     1  0.0000000  0.0000000  2
    661   1389   1369   1371     1  0.0000000  0.0000000  2
    662    660   1364   1365     1  0.0000000  8.3680000  1
    662    660   1364   1365     1  180.0000771  10.4600000  2
    663    661   1389   1390     1  0.0000000  8.3680000  1
    663    661   1389   1390     1  180.0000771  10.4600000  2
    666    669    689    690     1  0.0000000  0.0000000  2
    666    672    673    674     1  0.0000000  1.2552000  3
    666    672    673    675     1  0.0000000  1.2552000  3
    666    672    676    677     1  0.0000000  1.2552000  3
    666    672    676    678     1  0.0000000  1.2552000  3
    667    666    669    689     1  0.0000000  0.6508444  3
    667    666    669    670     1  0.0000000  0.6508444  3
    667    666    669    671     1  0.0000000  0.6508444  3
    667    666    672    673     1  0.0000000  1.2552000  3
    667    666    672    676     1  0.0000000  1.2552000  3
    668    666    669    689     1  0.0000000  0.6508444  3
    668    666    669    670     1  0.0000000  0.6508444  3
    668    666    669    671     1  0.0000000  0.6508444  3
    668    666    672    673     1  0.0000000  1.2552000  3
    668    666    672    676     1  0.0000000  1.2552000  3
    670    669    666    672     1  0.0000000  0.6508444  3
    670    669    689    690     1  0.0000000  0.0000000  2
    671    669    666    672     1  0.0000000  0.6508444  3
    671    669    689    690     1  0.0000000  0.0000000  2
    672    673    682    683     1  0.0000000  0.6508444  3
    672    673    682    684     1  0.0000000  0.6508444  3
    672    676    679    680     1  0.0000000  0.6508444  3
    672    676    679    681     1  0.0000000  0.6508444  3
    673    672    676    677     1  0.0000000  1.2552000  3
    673    672    676    678     1  0.0000000  1.2552000  3
    674    673    672    676     1  0.0000000  1.2552000  3
    674    673    682    686     1  0.0000000  0.6508444  3
    674    673    682    683     1  0.0000000  0.6508444  3
    674    673    682    684     1  0.0000000  0.6508444  3
    675    673    672    676     1  0.0000000  1.2552000  3
    675    673    682    686     1  0.0000000  0.6508444  3
    675    673    682    683     1  0.0000000  0.6508444  3
    675    673    682    684     1  0.0000000  0.6508444  3
    677    676    679    685     1  0.0000000  0.6508444  3
    677    676    679    680     1  0.0000000  0.6508444  3
    677    676    679    681     1  0.0000000  0.6508444  3
    678    676    679    685     1  0.0000000  0.6508444  3
    678    676    679    680     1  0.0000000  0.6508444  3
    678    676    679    681     1  0.0000000  0.6508444  3
    679    685   1414   1415     1  180.0000771  10.4600000  2
    680    679    685    687     1  0.0000000  3.3472000  1
    680    679    685    687     1  0.0000000  0.0000000  2
    680    679    685    687     1  180.0000771  0.3347200  3
    680    679    685   1414     1  180.0000771  0.0000000  2
    681    679    685    687     1  0.0000000  3.3472000  1
    681    679    685    687     1  0.0000000  0.0000000  2
    681    679    685    687     1  180.0000771  0.3347200  3
    681    679    685   1414     1  180.0000771  0.0000000  2
    682    686   1439   1440     1  180.0000771  10.4600000  2
    683    682    686    688     1  0.0000000  3.3472000  1
    683    682    686    688     1  0.0000000  0.0000000  2
    683    682    686    688     1  180.0000771  0.3347200  3
    683    682    686   1439     1  180.0000771  0.0000000  2
    684    682    686    688     1  0.0000000  3.3472000  1
    684    682    686    688     1  0.0000000  0.0000000  2
    684    682    686    688     1  180.0000771  0.3347200  3
    684    682    686   1439     1  180.0000771  0.0000000  2
    685   1414   1394   1395     1  0.0000000  0.0000000  2
    685   1414   1394   1396     1  0.0000000  0.0000000  2
    686   1439   1419   1420     1  0.0000000  0.0000000  2
    686   1439   1419   1421     1  0.0000000  0.0000000  2
    687    685   1414   1415     1  0.0000000  8.3680000  1
    687    685   1414   1415     1  180.0000771  10.4600000  2
    688    686   1439   1440     1  0.0000000  8.3680000  1
    688    686   1439   1440     1  180.0000771  10.4600000  2
    691    694    714    715     1  0.0000000  0.0000000  2
    691    697    698    699     1  0.0000000  1.2552000  3
    691    697    698    700     1  0.0000000  1.2552000  3
    691    697    701    702     1  0.0000000  1.2552000  3
    691    697    701    703     1  0.0000000  1.2552000  3
    692    691    694    714     1  0.0000000  0.6508444  3
    692    691    694    695     1  0.0000000  0.6508444  3
    692    691    694    696     1  0.0000000  0.6508444  3
    692    691    697    698     1  0.0000000  1.2552000  3
    692    691    697    701     1  0.0000000  1.2552000  3
    693    691    694    714     1  0.0000000  0.6508444  3
    693    691    694    695     1  0.0000000  0.6508444  3
    693    691    694    696     1  0.0000000  0.6508444  3
    693    691    697    698     1  0.0000000  1.2552000  3
    693    691    697    701     1  0.0000000  1.2552000  3
    695    694    691    697     1  0.0000000  0.6508444  3
    695    694    714    715     1  0.0000000  0.0000000  2
    696    694    691    697     1  0.0000000  0.6508444  3
    696    694    714    715     1  0.0000000  0.0000000  2
    697    698    707    708     1  0.0000000  0.6508444  3
    697    698    707    709     1  0.0000000  0.6508444  3
    697    701    704    705     1  0.0000000  0.6508444  3
    697    701    704    706     1  0.0000000  0.6508444  3
    698    697    701    702     1  0.0000000  1.2552000  3
    698    697    701    703     1  0.0000000  1.2552000  3
    699    698    697    701     1  0.0000000  1.2552000  3
    699    698    707    711     1  0.0000000  0.6508444  3
    699    698    707    708     1  0.0000000  0.6508444  3
    699    698    707    709     1  0.0000000  0.6508444  3
    700    698    697    701     1  0.0000000  1.2552000  3
    700    698    707    711     1  0.0000000  0.6508444  3
    700    698    707    708     1  0.0000000  0.6508444  3
    700    698    707    709     1  0.0000000  0.6508444  3
    702    701    704    710     1  0.0000000  0.6508444  3
    702    701    704    705     1  0.0000000  0.6508444  3
    702    701    704    706     1  0.0000000  0.6508444  3
    703    701    704    710     1  0.0000000  0.6508444  3
    703    701    704    705     1  0.0000000  0.6508444  3
    703    701    704    706     1  0.0000000  0.6508444  3
    704    710   1464   1465     1  180.0000771  10.4600000  2
    705    704    710    712     1  0.0000000  3.3472000  1
    705    704    710    712     1  0.0000000  0.0000000  2
    705    704    710    712     1  180.0000771  0.3347200  3
    705    704    710   1464     1  180.0000771  0.0000000  2
    706    704    710    712     1  0.0000000  3.3472000  1
    706    704    710    712     1  0.0000000  0.0000000  2
    706    704    710    712     1  180.0000771  0.3347200  3
    706    704    710   1464     1  180.0000771  0.0000000  2
    707    711   1489   1490     1  180.0000771  10.4600000  2
    708    707    711    713     1  0.0000000  3.3472000  1
    708    707    711    713     1  0.0000000  0.0000000  2
    708    707    711    713     1  180.0000771  0.3347200  3
    708    707    711   1489     1  180.0000771  0.0000000  2
    709    707    711    713     1  0.0000000  3.3472000  1
    709    707    711    713     1  0.0000000  0.0000000  2
    709    707    711    713     1  180.0000771  0.3347200  3
    709    707    711   1489     1  180.0000771  0.0000000  2
    710   1464   1444   1445     1  0.0000000  0.0000000  2
    710   1464   1444   1446     1  0.0000000  0.0000000  2
    711   1489   1469   1470     1  0.0000000  0.0000000  2
    711   1489   1469   1471     1  0.0000000  0.0000000  2
    712    710   1464   1465     1  0.0000000  8.3680000  1
    712    710   1464   1465     1  180.0000771  10.4600000  2
    713    711   1489   1490     1  0.0000000  8.3680000  1
    713    711   1489   1490     1  180.0000771  10.4600000  2
    716    719    739    740     1  0.0000000  0.0000000  2
    716    722    723    724     1  0.0000000  1.2552000  3
    716    722    723    725     1  0.0000000  1.2552000  3
    716    722    726    727     1  0.0000000  1.2552000  3
    716    722    726    728     1  0.0000000  1.2552000  3
    717    716    719    739     1  0.0000000  0.6508444  3
    717    716    719    720     1  0.0000000  0.6508444  3
    717    716    719    721     1  0.0000000  0.6508444  3
    717    716    722    723     1  0.0000000  1.2552000  3
    717    716    722    726     1  0.0000000  1.2552000  3
    718    716    719    739     1  0.0000000  0.6508444  3
    718    716    719    720     1  0.0000000  0.6508444  3
    718    716    719    721     1  0.0000000  0.6508444  3
    718    716    722    723     1  0.0000000  1.2552000  3
    718    716    722    726     1  0.0000000  1.2552000  3
    720    719    716    722     1  0.0000000  0.6508444  3
    720    719    739    740     1  0.0000000  0.0000000  2
    721    719    716    722     1  0.0000000  0.6508444  3
    721    719    739    740     1  0.0000000  0.0000000  2
    722    723    732    733     1  0.0000000  0.6508444  3
    722    723    732    734     1  0.0000000  0.6508444  3
    722    726    729    730     1  0.0000000  0.6508444  3
    722    726    729    731     1  0.0000000  0.6508444  3
    723    722    726    727     1  0.0000000  1.2552000  3
    723    722    726    728     1  0.0000000  1.2552000  3
    724    723    722    726     1  0.0000000  1.2552000  3
    724    723    732    736     1  0.0000000  0.6508444  3
    724    723    732    733     1  0.0000000  0.6508444  3
    724    723    732    734     1  0.0000000  0.6508444  3
    725    723    722    726     1  0.0000000  1.2552000  3
    725    723    732    736     1  0.0000000  0.6508444  3
    725    723    732    733     1  0.0000000  0.6508444  3
    725    723    732    734     1  0.0000000  0.6508444  3
    727    726    729    735     1  0.0000000  0.6508444  3
    727    726    729    730     1  0.0000000  0.6508444  3
    727    726    729    731     1  0.0000000  0.6508444  3
    728    726    729    735     1  0.0000000  0.6508444  3
    728    726    729    730     1  0.0000000  0.6508444  3
    728    726    729    731     1  0.0000000  0.6508444  3
    729    735   1514   1515     1  180.0000771  10.4600000  2
    730    729    735    737     1  0.0000000  3.3472000  1
    730    729    735    737     1  0.0000000  0.0000000  2
    730    729    735    737     1  180.0000771  0.3347200  3
    730    729    735   1514     1  180.0000771  0.0000000  2
    731    729    735    737     1  0.0000000  3.3472000  1
    731    729    735    737     1  0.0000000  0.0000000  2
    731    729    735    737     1  180.0000771  0.3347200  3
    731    729    735   1514     1  180.0000771  0.0000000  2
    732    736   1539   1540     1  180.0000771  10.4600000  2
    733    732    736    738     1  0.0000000  3.3472000  1
    733    732    736    738     1  0.0000000  0.0000000  2
    733    732    736    738     1  180.0000771  0.3347200  3
    733    732    736   1539     1  180.0000771  0.0000000  2
    734    732    736    738     1  0.0000000  3.3472000  1
    734    732    736    738     1  0.0000000  0.0000000  2
    734    732    736    738     1  180.0000771  0.3347200  3
    734    732    736   1539     1  180.0000771  0.0000000  2
    735   1514   1494   1495     1  0.0000000  0.0000000  2
    735   1514   1494   1496     1  0.0000000  0.0000000  2
    736   1539   1519   1520     1  0.0000000  0.0000000  2
    736   1539   1519   1521     1  0.0000000  0.0000000  2
    737    735   1514   1515     1  0.0000000  8.3680000  1
    737    735   1514   1515     1  180.0000771  10.4600000  2
    738    736   1539   1540     1  0.0000000  8.3680000  1
    738    736   1539   1540     1  180.0000771  10.4600000  2
    741    744    764    765     1  0.0000000  0.0000000  2
    741    747    748    749     1  0.0000000  1.2552000  3
    741    747    748    750     1  0.0000000  1.2552000  3
    741    747    751    752     1  0.0000000  1.2552000  3
    741    747    751    753     1  0.0000000  1.2552000  3
    742    741    744    764     1  0.0000000  0.6508444  3
    742    741    744    745     1  0.0000000  0.6508444  3
    742    741    744    746     1  0.0000000  0.6508444  3
    742    741    747    748     1  0.0000000  1.2552000  3
    742    741    747    751     1  0.0000000  1.2552000  3
    743    741    744    764     1  0.0000000  0.6508444  3
    743    741    744    745     1  0.0000000  0.6508444  3
    743    741    744    746     1  0.0000000  0.6508444  3
    743    741    747    748     1  0.0000000  1.2552000  3
    743    741    747    751     1  0.0000000  1.2552000  3
    745    744    741    747     1  0.0000000  0.6508444  3
    745    744    764    765     1  0.0000000  0.0000000  2
    746    744    741    747     1  0.0000000  0.6508444  3
    746    744    764    765     1  0.0000000  0.0000000  2
    747    748    757    758     1  0.0000000  0.6508444  3
    747    748    757    759     1  0.0000000  0.6508444  3
    747    751    754    755     1  0.0000000  0.6508444  3
    747    751    754    756     1  0.0000000  0.6508444  3
    748    747    751    752     1  0.0000000  1.2552000  3
    748    747    751    753     1  0.0000000  1.2552000  3
    749    748    747    751     1  0.0000000  1.2552000  3
    749    748    757    761     1  0.0000000  0.6508444  3
    749    748    757    758     1  0.0000000  0.6508444  3
    749    748    757    759     1  0.0000000  0.6508444  3
    750    748    747    751     1  0.0000000  1.2552000  3
    750    748    757    761     1  0.0000000  0.6508444  3
    750    748    757    758     1  0.0000000  0.6508444  3
    750    748    757    759     1  0.0000000  0.6508444  3
    752    751    754    760     1  0.0000000  0.6508444  3
    752    751    754    755     1  0.0000000  0.6508444  3
    752    751    754    756     1  0.0000000  0.6508444  3
    753    751    754    760     1  0.0000000  0.6508444  3
    753    751    754    755     1  0.0000000  0.6508444  3
    753    751    754    756     1  0.0000000  0.6508444  3
    754    760   1550   1551     1  180.0000771  10.4600000  2
    755    754    760   1550     1  180.0000771  0.0000000  2
    755    754    760    762     1  0.0000000  3.3472000  1
    755    754    760    762     1  0.0000000  0.0000000  2
    755    754    760    762     1  180.0000771  0.3347200  3
    756    754    760   1550     1  180.0000771  0.0000000  2
    756    754    760    762     1  0.0000000  3.3472000  1
    756    754    760    762     1  0.0000000  0.0000000  2
    756    754    760    762     1  180.0000771  0.3347200  3
    757    761   1561   1562     1  180.0000771  10.4600000  2
    758    757    761    763     1  0.0000000  3.3472000  1
    758    757    761    763     1  0.0000000  0.0000000  2
    758    757    761    763     1  180.0000771  0.3347200  3
    758    757    761   1561     1  180.0000771  0.0000000  2
    759    757    761    763     1  0.0000000  3.3472000  1
    759    757    761    763     1  0.0000000  0.0000000  2
    759    757    761    763     1  180.0000771  0.3347200  3
    759    757    761   1561     1  180.0000771  0.0000000  2
    760   1550   1541   1542     1  0.0000000  0.0000000  2
    760   1550   1541   1543     1  0.0000000  0.0000000  2
    761   1561   1552   1553     1  0.0000000  0.0000000  2
    761   1561   1552   1554     1  0.0000000  0.0000000  2
    762    760   1550   1551     1  0.0000000  8.3680000  1
    762    760   1550   1551     1  180.0000771  10.4600000  2
    763    761   1561   1562     1  0.0000000  8.3680000  1
    763    761   1561   1562     1  180.0000771  10.4600000  2
    766    769    789    790     1  0.0000000  0.0000000  2
    766    772    773    774     1  0.0000000  1.2552000  3
    766    772    773    775     1  0.0000000  1.2552000  3
    766    772    776    777     1  0.0000000  1.2552000  3
    766    772    776    778     1  0.0000000  1.2552000  3
    767    766    769    789     1  0.0000000  0.6508444  3
    767    766    769    770     1  0.0000000  0.6508444  3
    767    766    769    771     1  0.0000000  0.6508444  3
    767    766    772    773     1  0.0000000  1.2552000  3
    767    766    772    776     1  0.0000000  1.2552000  3
    768    766    769    789     1  0.0000000  0.6508444  3
    768    766    769    770     1  0.0000000  0.6508444  3
    768    766    769    771     1  0.0000000  0.6508444  3
    768    766    772    773     1  0.0000000  1.2552000  3
    768    766    772    776     1  0.0000000  1.2552000  3
    770    769    766    772     1  0.0000000  0.6508444  3
    770    769    789    790     1  0.0000000  0.0000000  2
    771    769    766    772     1  0.0000000  0.6508444  3
    771    769    789    790     1  0.0000000  0.0000000  2
    772    773    782    783     1  0.0000000  0.6508444  3
    772    773    782    784     1  0.0000000  0.6508444  3
    772    776    779    780     1  0.0000000  0.6508444  3
    772    776    779    781     1  0.0000000  0.6508444  3
    773    772    776    777     1  0.0000000  1.2552000  3
    773    772    776    778     1  0.0000000  1.2552000  3
    774    773    772    776     1  0.0000000  1.2552000  3
    774    773    782    786     1  0.0000000  0.6508444  3
    774    773    782    783     1  0.0000000  0.6508444  3
    774    773    782    784     1  0.0000000  0.6508444  3
    775    773    772    776     1  0.0000000  1.2552000  3
    775    773    782    786     1  0.0000000  0.6508444  3
    775    773    782    783     1  0.0000000  0.6508444  3
    775    773    782    784     1  0.0000000  0.6508444  3
    777    776    779    785     1  0.0000000  0.6508444  3
    777    776    779    780     1  0.0000000  0.6508444  3
    777    776    779    781     1  0.0000000  0.6508444  3
    778    776    779    785     1  0.0000000  0.6508444  3
    778    776    779    780     1  0.0000000  0.6508444  3
    778    776    779    781     1  0.0000000  0.6508444  3
    779    785   1572   1573     1  180.0000771  10.4600000  2
    780    779    785   1572     1  180.0000771  0.0000000  2
    780    779    785    787     1  0.0000000  3.3472000  1
    780    779    785    787     1  0.0000000  0.0000000  2
    780    779    785    787     1  180.0000771  0.3347200  3
    781    779    785   1572     1  180.0000771  0.0000000  2
    781    779    785    787     1  0.0000000  3.3472000  1
    781    779    785    787     1  0.0000000  0.0000000  2
    781    779    785    787     1  180.0000771  0.3347200  3
    782    786   1583   1584     1  180.0000771  10.4600000  2
    783    782    786    788     1  0.0000000  3.3472000  1
    783    782    786    788     1  0.0000000  0.0000000  2
    783    782    786    788     1  180.0000771  0.3347200  3
    783    782    786   1583     1  180.0000771  0.0000000  2
    784    782    786    788     1  0.0000000  3.3472000  1
    784    782    786    788     1  0.0000000  0.0000000  2
    784    782    786    788     1  180.0000771  0.3347200  3
    784    782    786   1583     1  180.0000771  0.0000000  2
    785   1572   1563   1564     1  0.0000000  0.0000000  2
    785   1572   1563   1565     1  0.0000000  0.0000000  2
    786   1583   1574   1575     1  0.0000000  0.0000000  2
    786   1583   1574   1576     1  0.0000000  0.0000000  2
    787    785   1572   1573     1  0.0000000  8.3680000  1
    787    785   1572   1573     1  180.0000771  10.4600000  2
    788    786   1583   1584     1  0.0000000  8.3680000  1
    788    786   1583   1584     1  180.0000771  10.4600000  2
    791    794    814    815     1  0.0000000  0.0000000  2
    791    797    798    799     1  0.0000000  1.2552000  3
    791    797    798    800     1  0.0000000  1.2552000  3
    791    797    801    802     1  0.0000000  1.2552000  3
    791    797    801    803     1  0.0000000  1.2552000  3
    792    791    794    814     1  0.0000000  0.6508444  3
    792    791    794    795     1  0.0000000  0.6508444  3
    792    791    794    796     1  0.0000000  0.6508444  3
    792    791    797    798     1  0.0000000  1.2552000  3
    792    791    797    801     1  0.0000000  1.2552000  3
    793    791    794    814     1  0.0000000  0.6508444  3
    793    791    794    795     1  0.0000000  0.6508444  3
    793    791    794    796     1  0.0000000  0.6508444  3
    793    791    797    798     1  0.0000000  1.2552000  3
    793    791    797    801     1  0.0000000  1.2552000  3
    795    794    791    797     1  0.0000000  0.6508444  3
    795    794    814    815     1  0.0000000  0.0000000  2
    796    794    791    797     1  0.0000000  0.6508444  3
    796    794    814    815     1  0.0000000  0.0000000  2
    797    798    807    808     1  0.0000000  0.6508444  3
    797    798    807    809     1  0.0000000  0.6508444  3
    797    801    804    805     1  0.0000000  0.6508444  3
    797    801    804    806     1  0.0000000  0.6508444  3
    798    797    801    802     1  0.0000000  1.2552000  3
    798    797    801    803     1  0.0000000  1.2552000  3
    799    798    797    801     1  0.0000000  1.2552000  3
    799    798    807    811     1  0.0000000  0.6508444  3
    799    798    807    808     1  0.0000000  0.6508444  3
    799    798    807    809     1  0.0000000  0.6508444  3
    800    798    797    801     1  0.0000000  1.2552000  3
    800    798    807    811     1  0.0000000  0.6508444  3
    800    798    807    808     1  0.0000000  0.6508444  3
    800    798    807    809     1  0.0000000  0.6508444  3
    802    801    804    810     1  0.0000000  0.6508444  3
    802    801    804    805     1  0.0000000  0.6508444  3
    802    801    804    806     1  0.0000000  0.6508444  3
    803    801    804    810     1  0.0000000  0.6508444  3
    803    801    804    805     1  0.0000000  0.6508444  3
    803    801    804    806     1  0.0000000  0.6508444  3
    804    810   1594   1595     1  180.0000771  10.4600000  2
    805    804    810   1594     1  180.0000771  0.0000000  2
    805    804    810    812     1  0.0000000  3.3472000  1
    805    804    810    812     1  0.0000000  0.0000000  2
    805    804    810    812     1  180.0000771  0.3347200  3
    806    804    810   1594     1  180.0000771  0.0000000  2
    806    804    810    812     1  0.0000000  3.3472000  1
    806    804    810    812     1  0.0000000  0.0000000  2
    806    804    810    812     1  180.0000771  0.3347200  3
    807    811   1605   1606     1  180.0000771  10.4600000  2
    808    807    811    813     1  0.0000000  3.3472000  1
    808    807    811    813     1  0.0000000  0.0000000  2
    808    807    811    813     1  180.0000771  0.3347200  3
    808    807    811   1605     1  180.0000771  0.0000000  2
    809    807    811    813     1  0.0000000  3.3472000  1
    809    807    811    813     1  0.0000000  0.0000000  2
    809    807    811    813     1  180.0000771  0.3347200  3
    809    807    811   1605     1  180.0000771  0.0000000  2
    810   1594   1585   1586     1  0.0000000  0.0000000  2
    810   1594   1585   1587     1  0.0000000  0.0000000  2
    811   1605   1596   1597     1  0.0000000  0.0000000  2
    811   1605   1596   1598     1  0.0000000  0.0000000  2
    812    810   1594   1595     1  0.0000000  8.3680000  1
    812    810   1594   1595     1  180.0000771  10.4600000  2
    813    811   1605   1606     1  0.0000000  8.3680000  1
    813    811   1605   1606     1  180.0000771  10.4600000  2
    816    819    839    840     1  0.0000000  0.0000000  2
    816    822    823    824     1  0.0000000  1.2552000  3
    816    822    823    825     1  0.0000000  1.2552000  3
    816    822    826    827     1  0.0000000  1.2552000  3
    816    822    826    828     1  0.0000000  1.2552000  3
    817    816    819    839     1  0.0000000  0.6508444  3
    817    816    819    820     1  0.0000000  0.6508444  3
    817    816    819    821     1  0.0000000  0.6508444  3
    817    816    822    823     1  0.0000000  1.2552000  3
    817    816    822    826     1  0.0000000  1.2552000  3
    818    816    819    839     1  0.0000000  0.6508444  3
    818    816    819    820     1  0.0000000  0.6508444  3
    818    816    819    821     1  0.0000000  0.6508444  3
    818    816    822    823     1  0.0000000  1.2552000  3
    818    816    822    826     1  0.0000000  1.2552000  3
    820    819    816    822     1  0.0000000  0.6508444  3
    820    819    839    840     1  0.0000000  0.0000000  2
    821    819    816    822     1  0.0000000  0.6508444  3
    821    819    839    840     1  0.0000000  0.0000000  2
    822    823    832    833     1  0.0000000  0.6508444  3
    822    823    832    834     1  0.0000000  0.6508444  3
    822    826    829    830     1  0.0000000  0.6508444  3
    822    826    829    831     1  0.0000000  0.6508444  3
    823    822    826    827     1  0.0000000  1.2552000  3
    823    822    826    828     1  0.0000000  1.2552000  3
    824    823    822    826     1  0.0000000  1.2552000  3
    824    823    832    836     1  0.0000000  0.6508444  3
    824    823    832    833     1  0.0000000  0.6508444  3
    824    823    832    834     1  0.0000000  0.6508444  3
    825    823    822    826     1  0.0000000  1.2552000  3
    825    823    832    836     1  0.0000000  0.6508444  3
    825    823    832    833     1  0.0000000  0.6508444  3
    825    823    832    834     1  0.0000000  0.6508444  3
    827    826    829    835     1  0.0000000  0.6508444  3
    827    826    829    830     1  0.0000000  0.6508444  3
    827    826    829    831     1  0.0000000  0.6508444  3
    828    826    829    835     1  0.0000000  0.6508444  3
    828    826    829    830     1  0.0000000  0.6508444  3
    828    826    829    831     1  0.0000000  0.6508444  3
    829    835   1616   1617     1  180.0000771  10.4600000  2
    830    829    835   1616     1  180.0000771  0.0000000  2
    830    829    835    837     1  0.0000000  3.3472000  1
    830    829    835    837     1  0.0000000  0.0000000  2
    830    829    835    837     1  180.0000771  0.3347200  3
    831    829    835   1616     1  180.0000771  0.0000000  2
    831    829    835    837     1  0.0000000  3.3472000  1
    831    829    835    837     1  0.0000000  0.0000000  2
    831    829    835    837     1  180.0000771  0.3347200  3
    832    836   1627   1628     1  180.0000771  10.4600000  2
    833    832    836    838     1  0.0000000  3.3472000  1
    833    832    836    838     1  0.0000000  0.0000000  2
    833    832    836    838     1  180.0000771  0.3347200  3
    833    832    836   1627     1  180.0000771  0.0000000  2
    834    832    836    838     1  0.0000000  3.3472000  1
    834    832    836    838     1  0.0000000  0.0000000  2
    834    832    836    838     1  180.0000771  0.3347200  3
    834    832    836   1627     1  180.0000771  0.0000000  2
    835   1616   1607   1608     1  0.0000000  0.0000000  2
    835   1616   1607   1609     1  0.0000000  0.0000000  2
    836   1627   1618   1619     1  0.0000000  0.0000000  2
    836   1627   1618   1620     1  0.0000000  0.0000000  2
    837    835   1616   1617     1  0.0000000  8.3680000  1
    837    835   1616   1617     1  180.0000771  10.4600000  2
    838    836   1627   1628     1  0.0000000  8.3680000  1
    838    836   1627   1628     1  180.0000771  10.4600000  2
    841    844    864    865     1  0.0000000  0.0000000  2
    841    847    848    849     1  0.0000000  1.2552000  3
    841    847    848    850     1  0.0000000  1.2552000  3
    841    847    851    852     1  0.0000000  1.2552000  3
    841    847    851    853     1  0.0000000  1.2552000  3
    842    841    844    864     1  0.0000000  0.6508444  3
    842    841    844    845     1  0.0000000  0.6508444  3
    842    841    844    846     1  0.0000000  0.6508444  3
    842    841    847    848     1  0.0000000  1.2552000  3
    842    841    847    851     1  0.0000000  1.2552000  3
    843    841    844    864     1  0.0000000  0.6508444  3
    843    841    844    845     1  0.0000000  0.6508444  3
    843    841    844    846     1  0.0000000  0.6508444  3
    843    841    847    848     1  0.0000000  1.2552000  3
    843    841    847    851     1  0.0000000  1.2552000  3
    845    844    841    847     1  0.0000000  0.6508444  3
    845    844    864    865     1  0.0000000  0.0000000  2
    846    844    841    847     1  0.0000000  0.6508444  3
    846    844    864    865     1  0.0000000  0.0000000  2
    847    848    857    858     1  0.0000000  0.6508444  3
    847    848    857    859     1  0.0000000  0.6508444  3
    847    851    854    855     1  0.0000000  0.6508444  3
    847    851    854    856     1  0.0000000  0.6508444  3
    848    847    851    852     1  0.0000000  1.2552000  3
    848    847    851    853     1  0.0000000  1.2552000  3
    849    848    847    851     1  0.0000000  1.2552000  3
    849    848    857    861     1  0.0000000  0.6508444  3
    849    848    857    858     1  0.0000000  0.6508444  3
    849    848    857    859     1  0.0000000  0.6508444  3
    850    848    847    851     1  0.0000000  1.2552000  3
    850    848    857    861     1  0.0000000  0.6508444  3
    850    848    857    858     1  0.0000000  0.6508444  3
    850    848    857    859     1  0.0000000  0.6508444  3
    852    851    854    860     1  0.0000000  0.6508444  3
    852    851    854    855     1  0.0000000  0.6508444  3
    852    851    854    856     1  0.0000000  0.6508444  3
    853    851    854    860     1  0.0000000  0.6508444  3
    853    851    854    855     1  0.0000000  0.6508444  3
    853    851    854    856     1  0.0000000  0.6508444  3
    854    860   1638   1639     1  180.0000771  10.4600000  2
    855    854    860   1638     1  180.0000771  0.0000000  2
    855    854    860    862     1  0.0000000  3.3472000  1
    855    854    860    862     1  0.0000000  0.0000000  2
    855    854    860    862     1  180.0000771  0.3347200  3
    856    854    860   1638     1  180.0000771  0.0000000  2
    856    854    860    862     1  0.0000000  3.3472000  1
    856    854    860    862     1  0.0000000  0.0000000  2
    856    854    860    862     1  180.0000771  0.3347200  3
    857    861   1649   1650     1  180.0000771  10.4600000  2
    858    857    861    863     1  0.0000000  3.3472000  1
    858    857    861    863     1  0.0000000  0.0000000  2
    858    857    861    863     1  180.0000771  0.3347200  3
    858    857    861   1649     1  180.0000771  0.0000000  2
    859    857    861    863     1  0.0000000  3.3472000  1
    859    857    861    863     1  0.0000000  0.0000000  2
    859    857    861    863     1  180.0000771  0.3347200  3
    859    857    861   1649     1  180.0000771  0.0000000  2
    860   1638   1629   1630     1  0.0000000  0.0000000  2
    860   1638   1629   1631     1  0.0000000  0.0000000  2
    861   1649   1640   1641     1  0.0000000  0.0000000  2
    861   1649   1640   1642     1  0.0000000  0.0000000  2
    862    860   1638   1639     1  0.0000000  8.3680000  1
    862    860   1638   1639     1  180.0000771  10.4600000  2
    863    861   1649   1650     1  0.0000000  8.3680000  1
    863    861   1649   1650     1  180.0000771  10.4600000  2
    866    869    889    890     1  0.0000000  0.0000000  2
    866    872    873    874     1  0.0000000  1.2552000  3
    866    872    873    875     1  0.0000000  1.2552000  3
    866    872    876    877     1  0.0000000  1.2552000  3
    866    872    876    878     1  0.0000000  1.2552000  3
    867    866    869    889     1  0.0000000  0.6508444  3
    867    866    869    870     1  0.0000000  0.6508444  3
    867    866    869    871     1  0.0000000  0.6508444  3
    867    866    872    873     1  0.0000000  1.2552000  3
    867    866    872    876     1  0.0000000  1.2552000  3
    868    866    869    889     1  0.0000000  0.6508444  3
    868    866    869    870     1  0.0000000  0.6508444  3
    868    866    869    871     1  0.0000000  0.6508444  3
    868    866    872    873     1  0.0000000  1.2552000  3
    868    866    872    876     1  0.0000000  1.2552000  3
    870    869    866    872     1  0.0000000  0.6508444  3
    870    869    889    890     1  0.0000000  0.0000000  2
    871    869    866    872     1  0.0000000  0.6508444  3
    871    869    889    890     1  0.0000000  0.0000000  2
    872    873    882    883     1  0.0000000  0.6508444  3
    872    873    882    884     1  0.0000000  0.6508444  3
    872    876    879    880     1  0.0000000  0.6508444  3
    872    876    879    881     1  0.0000000  0.6508444  3
    873    872    876    877     1  0.0000000  1.2552000  3
    873    872    876    878     1  0.0000000  1.2552000  3
    874    873    872    876     1  0.0000000  1.2552000  3
    874    873    882    886     1  0.0000000  0.6508444  3
    874    873    882    883     1  0.0000000  0.6508444  3
    874    873    882    884     1  0.0000000  0.6508444  3
    875    873    872    876     1  0.0000000  1.2552000  3
    875    873    882    886     1  0.0000000  0.6508444  3
    875    873    882    883     1  0.0000000  0.6508444  3
    875    873    882    884     1  0.0000000  0.6508444  3
    877    876    879    885     1  0.0000000  0.6508444  3
    877    876    879    880     1  0.0000000  0.6508444  3
    877    876    879    881     1  0.0000000  0.6508444  3
    878    876    879    885     1  0.0000000  0.6508444  3
    878    876    879    880     1  0.0000000  0.6508444  3
    878    876    879    881     1  0.0000000  0.6508444  3
    879    885   1660   1661     1  180.0000771  10.4600000  2
    880    879    885   1660     1  180.0000771  0.0000000  2
    880    879    885    887     1  0.0000000  3.3472000  1
    880    879    885    887     1  0.0000000  0.0000000  2
    880    879    885    887     1  180.0000771  0.3347200  3
    881    879    885   1660     1  180.0000771  0.0000000  2
    881    879    885    887     1  0.0000000  3.3472000  1
    881    879    885    887     1  0.0000000  0.0000000  2
    881    879    885    887     1  180.0000771  0.3347200  3
    882    886   1671   1672     1  180.0000771  10.4600000  2
    883    882    886    888     1  0.0000000  3.3472000  1
    883    882    886    888     1  0.0000000  0.0000000  2
    883    882    886    888     1  180.0000771  0.3347200  3
    883    882    886   1671     1  180.0000771  0.0000000  2
    884    882    886    888     1  0.0000000  3.3472000  1
    884    882    886    888     1  0.0000000  0.0000000  2
    884    882    886    888     1  180.0000771  0.3347200  3
    884    882    886   1671     1  180.0000771  0.0000000  2
    885   1660   1651   1652     1  0.0000000  0.0000000  2
    885   1660   1651   1653     1  0.0000000  0.0000000  2
    886   1671   1662   1663     1  0.0000000  0.0000000  2
    886   1671   1662   1664     1  0.0000000  0.0000000  2
    887    885   1660   1661     1  0.0000000  8.3680000  1
    887    885   1660   1661     1  180.0000771  10.4600000  2
    888    886   1671   1672     1  0.0000000  8.3680000  1
    888    886   1671   1672     1  180.0000771  10.4600000  2
    891    894    914    915     1  0.0000000  0.0000000  2
    891    897    898    899     1  0.0000000  1.2552000  3
    891    897    898    900     1  0.0000000  1.2552000  3
    891    897    901    902     1  0.0000000  1.2552000  3
    891    897    901    903     1  0.0000000  1.2552000  3
    892    891    894    914     1  0.0000000  0.6508444  3
    892    891    894    895     1  0.0000000  0.6508444  3
    892    891    894    896     1  0.0000000  0.6508444  3
    892    891    897    898     1  0.0000000  1.2552000  3
    892    891    897    901     1  0.0000000  1.2552000  3
    893    891    894    914     1  0.0000000  0.6508444  3
    893    891    894    895     1  0.0000000  0.6508444  3
    893    891    894    896     1  0.0000000  0.6508444  3
    893    891    897    898     1  0.0000000  1.2552000  3
    893    891    897    901     1  0.0000000  1.2552000  3
    895    894    891    897     1  0.0000000  0.6508444  3
    895    894    914    915     1  0.0000000  0.0000000  2
    896    894    891    897     1  0.0000000  0.6508444  3
    896    894    914    915     1  0.0000000  0.0000000  2
    897    898    907    908     1  0.0000000  0.6508444  3
    897    898    907    909     1  0.0000000  0.6508444  3
    897    901    904    905     1  0.0000000  0.6508444  3
    897    901    904    906     1  0.0000000  0.6508444  3
    898    897    901    902     1  0.0000000  1.2552000  3
    898    897    901    903     1  0.0000000  1.2552000  3
    899    898    897    901     1  0.0000000  1.2552000  3
    899    898    907    911     1  0.0000000  0.6508444  3
    899    898    907    908     1  0.0000000  0.6508444  3
    899    898    907    909     1  0.0000000  0.6508444  3
    900    898    897    901     1  0.0000000  1.2552000  3
    900    898    907    911     1  0.0000000  0.6508444  3
    900    898    907    908     1  0.0000000  0.6508444  3
    900    898    907    909     1  0.0000000  0.6508444  3
    902    901    904    910     1  0.0000000  0.6508444  3
    902    901    904    905     1  0.0000000  0.6508444  3
    902    901    904    906     1  0.0000000  0.6508444  3
    903    901    904    910     1  0.0000000  0.6508444  3
    903    901    904    905     1  0.0000000  0.6508444  3
    903    901    904    906     1  0.0000000  0.6508444  3
    904    910   1682   1683     1  180.0000771  10.4600000  2
    905    904    910   1682     1  180.0000771  0.0000000  2
    905    904    910    912     1  0.0000000  3.3472000  1
    905    904    910    912     1  0.0000000  0.0000000  2
    905    904    910    912     1  180.0000771  0.3347200  3
    906    904    910   1682     1  180.0000771  0.0000000  2
    906    904    910    912     1  0.0000000  3.3472000  1
    906    904    910    912     1  0.0000000  0.0000000  2
    906    904    910    912     1  180.0000771  0.3347200  3
    907    911   1693   1694     1  180.0000771  10.4600000  2
    908    907    911    913     1  0.0000000  3.3472000  1
    908    907    911    913     1  0.0000000  0.0000000  2
    908    907    911    913     1  180.0000771  0.3347200  3
    908    907    911   1693     1  180.0000771  0.0000000  2
    909    907    911    913     1  0.0000000  3.3472000  1
    909    907    911    913     1  0.0000000  0.0000000  2
    909    907    911    913     1  180.0000771  0.3347200  3
    909    907    911   1693     1  180.0000771  0.0000000  2
    910   1682   1673   1674     1  0.0000000  0.0000000  2
    910   1682   1673   1675     1  0.0000000  0.0000000  2
    911   1693   1684   1685     1  0.0000000  0.0000000  2
    911   1693   1684   1686     1  0.0000000  0.0000000  2
    912    910   1682   1683     1  0.0000000  8.3680000  1
    912    910   1682   1683     1  180.0000771  10.4600000  2
    913    911   1693   1694     1  0.0000000  8.3680000  1
    913    911   1693   1694     1  180.0000771  10.4600000  2
    916    919    939    940     1  0.0000000  0.0000000  2
    916    922    923    924     1  0.0000000  1.2552000  3
    916    922    923    925     1  0.0000000  1.2552000  3
    916    922    926    927     1  0.0000000  1.2552000  3
    916    922    926    928     1  0.0000000  1.2552000  3
    917    916    919    939     1  0.0000000  0.6508444  3
    917    916    919    920     1  0.0000000  0.6508444  3
    917    916    919    921     1  0.0000000  0.6508444  3
    917    916    922    923     1  0.0000000  1.2552000  3
    917    916    922    926     1  0.0000000  1.2552000  3
    918    916    919    939     1  0.0000000  0.6508444  3
    918    916    919    920     1  0.0000000  0.6508444  3
    918    916    919    921     1  0.0000000  0.6508444  3
    918    916    922    923     1  0.0000000  1.2552000  3
    918    916    922    926     1  0.0000000  1.2552000  3
    920    919    916    922     1  0.0000000  0.6508444  3
    920    919    939    940     1  0.0000000  0.0000000  2
    921    919    916    922     1  0.0000000  0.6508444  3
    921    919    939    940     1  0.0000000  0.0000000  2
    922    923    932    933     1  0.0000000  0.6508444  3
    922    923    932    934     1  0.0000000  0.6508444  3
    922    926    929    930     1  0.0000000  0.6508444  3
    922    926    929    931     1  0.0000000  0.6508444  3
    923    922    926    927     1  0.0000000  1.2552000  3
    923    922    926    928     1  0.0000000  1.2552000  3
    924    923    922    926     1  0.0000000  1.2552000  3
    924    923    932    936     1  0.0000000  0.6508444  3
    924    923    932    933     1  0.0000000  0.6508444  3
    924    923    932    934     1  0.0000000  0.6508444  3
    925    923    922    926     1  0.0000000  1.2552000  3
    925    923    932    936     1  0.0000000  0.6508444  3
    925    923    932    933     1  0.0000000  0.6508444  3
    925    923    932    934     1  0.0000000  0.6508444  3
    927    926    929    935     1  0.0000000  0.6508444  3
    927    926    929    930     1  0.0000000  0.6508444  3
    927    926    929    931     1  0.0000000  0.6508444  3
    928    926    929    935     1  0.0000000  0.6508444  3
    928    926    929    930     1  0.0000000  0.6508444  3
    928    926    929    931     1  0.0000000  0.6508444  3
    929    935   1704   1705     1  180.0000771  10.4600000  2
    930    929    935   1704     1  180.0000771  0.0000000  2
    930    929    935    937     1  0.0000000  3.3472000  1
    930    929    935    937     1  0.0000000  0.0000000  2
    930    929    935    937     1  180.0000771  0.3347200  3
    931    929    935   1704     1  180.0000771  0.0000000  2
    931    929    935    937     1  0.0000000  3.3472000  1
    931    929    935    937     1  0.0000000  0.0000000  2
    931    929    935    937     1  180.0000771  0.3347200  3
    932    936   1715   1716     1  180.0000771  10.4600000  2
    933    932    936    938     1  0.0000000  3.3472000  1
    933    932    936    938     1  0.0000000  0.0000000  2
    933    932    936    938     1  180.0000771  0.3347200  3
    933    932    936   1715     1  180.0000771  0.0000000  2
    934    932    936    938     1  0.0000000  3.3472000  1
    934    932    936    938     1  0.0000000  0.0000000  2
    934    932    936    938     1  180.0000771  0.3347200  3
    934    932    936   1715     1  180.0000771  0.0000000  2
    935   1704   1695   1696     1  0.0000000  0.0000000  2
    935   1704   1695   1697     1  0.0000000  0.0000000  2
    936   1715   1706   1707     1  0.0000000  0.0000000  2
    936   1715   1706   1708     1  0.0000000  0.0000000  2
    937    935   1704   1705     1  0.0000000  8.3680000  1
    937    935   1704   1705     1  180.0000771  10.4600000  2
    938    936   1715   1716     1  0.0000000  8.3680000  1
    938    936   1715   1716     1  180.0000771  10.4600000  2
    941    944    964    965     1  0.0000000  0.0000000  2
    941    947    948    949     1  0.0000000  1.2552000  3
    941    947    948    950     1  0.0000000  1.2552000  3
    941    947    951    952     1  0.0000000  1.2552000  3
    941    947    951    953     1  0.0000000  1.2552000  3
    942    941    944    964     1  0.0000000  0.6508444  3
    942    941    944    945     1  0.0000000  0.6508444  3
    942    941    944    946     1  0.0000000  0.6508444  3
    942    941    947    948     1  0.0000000  1.2552000  3
    942    941    947    951     1  0.0000000  1.2552000  3
    943    941    944    964     1  0.0000000  0.6508444  3
    943    941    944    945     1  0.0000000  0.6508444  3
    943    941    944    946     1  0.0000000  0.6508444  3
    943    941    947    948     1  0.0000000  1.2552000  3
    943    941    947    951     1  0.0000000  1.2552000  3
    945    944    941    947     1  0.0000000  0.6508444  3
    945    944    964    965     1  0.0000000  0.0000000  2
    946    944    941    947     1  0.0000000  0.6508444  3
    946    944    964    965     1  0.0000000  0.0000000  2
    947    948    957    958     1  0.0000000  0.6508444  3
    947    948    957    959     1  0.0000000  0.6508444  3
    947    951    954    955     1  0.0000000  0.6508444  3
    947    951    954    956     1  0.0000000  0.6508444  3
    948    947    951    952     1  0.0000000  1.2552000  3
    948    947    951    953     1  0.0000000  1.2552000  3
    949    948    947    951     1  0.0000000  1.2552000  3
    949    948    957    961     1  0.0000000  0.6508444  3
    949    948    957    958     1  0.0000000  0.6508444  3
    949    948    957    959     1  0.0000000  0.6508444  3
    950    948    947    951     1  0.0000000  1.2552000  3
    950    948    957    961     1  0.0000000  0.6508444  3
    950    948    957    958     1  0.0000000  0.6508444  3
    950    948    957    959     1  0.0000000  0.6508444  3
    952    951    954    960     1  0.0000000  0.6508444  3
    952    951    954    955     1  0.0000000  0.6508444  3
    952    951    954    956     1  0.0000000  0.6508444  3
    953    951    954    960     1  0.0000000  0.6508444  3
    953    951    954    955     1  0.0000000  0.6508444  3
    953    951    954    956     1  0.0000000  0.6508444  3
    954    960   1726   1727     1  180.0000771  10.4600000  2
    955    954    960   1726     1  180.0000771  0.0000000  2
    955    954    960    962     1  0.0000000  3.3472000  1
    955    954    960    962     1  0.0000000  0.0000000  2
    955    954    960    962     1  180.0000771  0.3347200  3
    956    954    960   1726     1  180.0000771  0.0000000  2
    956    954    960    962     1  0.0000000  3.3472000  1
    956    954    960    962     1  0.0000000  0.0000000  2
    956    954    960    962     1  180.0000771  0.3347200  3
    957    961   1737   1738     1  180.0000771  10.4600000  2
    958    957    961    963     1  0.0000000  3.3472000  1
    958    957    961    963     1  0.0000000  0.0000000  2
    958    957    961    963     1  180.0000771  0.3347200  3
    958    957    961   1737     1  180.0000771  0.0000000  2
    959    957    961    963     1  0.0000000  3.3472000  1
    959    957    961    963     1  0.0000000  0.0000000  2
    959    957    961    963     1  180.0000771  0.3347200  3
    959    957    961   1737     1  180.0000771  0.0000000  2
    960   1726   1717   1718     1  0.0000000  0.0000000  2
    960   1726   1717   1719     1  0.0000000  0.0000000  2
    961   1737   1728   1729     1  0.0000000  0.0000000  2
    961   1737   1728   1730     1  0.0000000  0.0000000  2
    962    960   1726   1727     1  0.0000000  8.3680000  1
    962    960   1726   1727     1  180.0000771  10.4600000  2
    963    961   1737   1738     1  0.0000000  8.3680000  1
    963    961   1737   1738     1  180.0000771  10.4600000  2
    966    969    989    990     1  0.0000000  0.0000000  2
    966    972    973    974     1  0.0000000  1.2552000  3
    966    972    973    975     1  0.0000000  1.2552000  3
    966    972    976    977     1  0.0000000  1.2552000  3
    966    972    976    978     1  0.0000000  1.2552000  3
    967    966    969    989     1  0.0000000  0.6508444  3
    967    966    969    970     1  0.0000000  0.6508444  3
    967    966    969    971     1  0.0000000  0.6508444  3
    967    966    972    973     1  0.0000000  1.2552000  3
    967    966    972    976     1  0.0000000  1.2552000  3
    968    966    969    989     1  0.0000000  0.6508444  3
    968    966    969    970     1  0.0000000  0.6508444  3
    968    966    969    971     1  0.0000000  0.6508444  3
    968    966    972    973     1  0.0000000  1.2552000  3
    968    966    972    976     1  0.0000000  1.2552000  3
    970    969    966    972     1  0.0000000  0.6508444  3
    970    969    989    990     1  0.0000000  0.0000000  2
    971    969    966    972     1  0.0000000  0.6508444  3
    971    969    989    990     1  0.0000000  0.0000000  2
    972    973    982    983     1  0.0000000  0.6508444  3
    972    973    982    984     1  0.0000000  0.6508444  3
    972    976    979    980     1  0.0000000  0.6508444  3
    972    976    979    981     1  0.0000000  0.6508444  3
    973    972    976    977     1  0.0000000  1.2552000  3
    973    972    976    978     1  0.0000000  1.2552000  3
    974    973    972    976     1  0.0000000  1.2552000  3
    974    973    982    986     1  0.0000000  0.6508444  3
    974    973    982    983     1  0.0000000  0.6508444  3
    974    973    982    984     1  0.0000000  0.6508444  3
    975    973    972    976     1  0.0000000  1.2552000  3
    975    973    982    986     1  0.0000000  0.6508444  3
    975    973    982    983     1  0.0000000  0.6508444  3
    975    973    982    984     1  0.0000000  0.6508444  3
    977    976    979    985     1  0.0000000  0.6508444  3
    977    976    979    980     1  0.0000000  0.6508444  3
    977    976    979    981     1  0.0000000  0.6508444  3
    978    976    979    985     1  0.0000000  0.6508444  3
    978    976    979    980     1  0.0000000  0.6508444  3
    978    976    979    981     1  0.0000000  0.6508444  3
    979    985   1748   1749     1  180.0000771  10.4600000  2
    980    979    985   1748     1  180.0000771  0.0000000  2
    980    979    985    987     1  0.0000000  3.3472000  1
    980    979    985    987     1  0.0000000  0.0000000  2
    980    979    985    987     1  180.0000771  0.3347200  3
    981    979    985   1748     1  180.0000771  0.0000000  2
    981    979    985    987     1  0.0000000  3.3472000  1
    981    979    985    987     1  0.0000000  0.0000000  2
    981    979    985    987     1  180.0000771  0.3347200  3
    982    986   1759   1760     1  180.0000771  10.4600000  2
    983    982    986    988     1  0.0000000  3.3472000  1
    983    982    986    988     1  0.0000000  0.0000000  2
    983    982    986    988     1  180.0000771  0.3347200  3
    983    982    986   1759     1  180.0000771  0.0000000  2
    984    982    986    988     1  0.0000000  3.3472000  1
    984    982    986    988     1  0.0000000  0.0000000  2
    984    982    986    988     1  180.0000771  0.3347200  3
    984    982    986   1759     1  180.0000771  0.0000000  2
    985   1748   1739   1740     1  0.0000000  0.0000000  2
    985   1748   1739   1741     1  0.0000000  0.0000000  2
    986   1759   1750   1751     1  0.0000000  0.0000000  2
    986   1759   1750   1752     1  0.0000000  0.0000000  2
    987    985   1748   1749     1  0.0000000  8.3680000  1
    987    985   1748   1749     1  180.0000771  10.4600000  2
    988    986   1759   1760     1  0.0000000  8.3680000  1
    988    986   1759   1760     1  180.0000771  10.4600000  2
    991    994   1014   1015     1  0.0000000  0.0000000  2
    991    997    998    999     1  0.0000000  1.2552000  3
    991    997    998   1000     1  0.0000000  1.2552000  3
    991    997   1001   1002     1  0.0000000  1.2552000  3
    991    997   1001   1003     1  0.0000000  1.2552000  3
    992    991    994   1014     1  0.0000000  0.6508444  3
    992    991    994    995     1  0.0000000  0.6508444  3
    992    991    994    996     1  0.0000000  0.6508444  3
    992    991    997    998     1  0.0000000  1.2552000  3
    992    991    997   1001     1  0.0000000  1.2552000  3
    993    991    994   1014     1  0.0000000  0.6508444  3
    993    991    994    995     1  0.0000000  0.6508444  3
    993    991    994    996     1  0.0000000  0.6508444  3
    993    991    997    998     1  0.0000000  1.2552000  3
    993    991    997   1001     1  0.0000000  1.2552000  3
    995    994    991    997     1  0.0000000  0.6508444  3
    995    994   1014   1015     1  0.0000000  0.0000000  2
    996    994    991    997     1  0.0000000  0.6508444  3
    996    994   1014   1015     1  0.0000000  0.0000000  2
    997    998   1007   1008     1  0.0000000  0.6508444  3
    997    998   1007   1009     1  0.0000000  0.6508444  3
    997   1001   1004   1005     1  0.0000000  0.6508444  3
    997   1001   1004   1006     1  0.0000000  0.6508444  3
    998    997   1001   1002     1  0.0000000  1.2552000  3
    998    997   1001   1003     1  0.0000000  1.2552000  3
    999    998    997   1001     1  0.0000000  1.2552000  3
    999    998   1007   1011     1  0.0000000  0.6508444  3
    999    998   1007   1008     1  0.0000000  0.6508444  3
    999    998   1007   1009     1  0.0000000  0.6508444  3
   1000    998    997   1001     1  0.0000000  1.2552000  3
   1000    998   1007   1011     1  0.0000000  0.6508444  3
   1000    998   1007   1008     1  0.0000000  0.6508444  3
   1000    998   1007   1009     1  0.0000000  0.6508444  3
   1002   1001   1004   1010     1  0.0000000  0.6508444  3
   1002   1001   1004   1005     1  0.0000000  0.6508444  3
   1002   1001   1004   1006     1  0.0000000  0.6508444  3
   1003   1001   1004   1010     1  0.0000000  0.6508444  3
   1003   1001   1004   1005     1  0.0000000  0.6508444  3
   1003   1001   1004   1006     1  0.0000000  0.6508444  3
   1004   1010   1770   1771     1  180.0000771  10.4600000  2
   1005   1004   1010   1770     1  180.0000771  0.0000000  2
   1005   1004   1010   1012     1  0.0000000  3.3472000  1
   1005   1004   1010   1012     1  0.0000000  0.0000000  2
   1005   1004   1010   1012     1  180.0000771  0.3347200  3
   1006   1004   1010   1770     1  180.0000771  0.0000000  2
   1006   1004   1010   1012     1  0.0000000  3.3472000  1
   1006   1004   1010   1012     1  0.0000000  0.0000000  2
   1006   1004   1010   1012     1  180.0000771  0.3347200  3
   1007   1011   1781   1782     1  180.0000771  10.4600000  2
   1008   1007   1011   1013     1  0.0000000  3.3472000  1
   1008   1007   1011   1013     1  0.0000000  0.0000000  2
   1008   1007   1011   1013     1  180.0000771  0.3347200  3
   1008   1007   1011   1781     1  180.0000771  0.0000000  2
   1009   1007   1011   1013     1  0.0000000  3.3472000  1
   1009   1007   1011   1013     1  0.0000000  0.0000000  2
   1009   1007   1011   1013     1  180.0000771  0.3347200  3
   1009   1007   1011   1781     1  180.0000771  0.0000000  2
   1010   1770   1761   1762     1  0.0000000  0.0000000  2
   1010   1770   1761   1763     1  0.0000000  0.0000000  2
   1011   1781   1772   1773     1  0.0000000  0.0000000  2
   1011   1781   1772   1774     1  0.0000000  0.0000000  2
   1012   1010   1770   1771     1  0.0000000  8.3680000  1
   1012   1010   1770   1771     1  180.0000771  10.4600000  2
   1013   1011   1781   1782     1  0.0000000  8.3680000  1
   1013   1011   1781   1782     1  180.0000771  10.4600000  2
   1016   1019   1039   1040     1  0.0000000  0.0000000  2
   1016   1022   1023   1024     1  0.0000000  1.2552000  3
   1016   1022   1023   1025     1  0.0000000  1.2552000  3
   1016   1022   1026   1027     1  0.0000000  1.2552000  3
   1016   1022   1026   1028     1  0.0000000  1.2552000  3
   1017   1016   1019   1039     1  0.0000000  0.6508444  3
   1017   1016   1019   1020     1  0.0000000  0.6508444  3
   1017   1016   1019   1021     1  0.0000000  0.6508444  3
   1017   1016   1022   1023     1  0.0000000  1.2552000  3
   1017   1016   1022   1026     1  0.0000000  1.2552000  3
   1018   1016   1019   1039     1  0.0000000  0.6508444  3
   1018   1016   1019   1020     1  0.0000000  0.6508444  3
   1018   1016   1019   1021     1  0.0000000  0.6508444  3
   1018   1016   1022   1023     1  0.0000000  1.2552000  3
   1018   1016   1022   1026     1  0.0000000  1.2552000  3
   1020   1019   1016   1022     1  0.0000000  0.6508444  3
   1020   1019   1039   1040     1  0.0000000  0.0000000  2
   1021   1019   1016   1022     1  0.0000000  0.6508444  3
   1021   1019   1039   1040     1  0.0000000  0.0000000  2
   1022   1023   1032   1033     1  0.0000000  0.6508444  3
   1022   1023   1032   1034     1  0.0000000  0.6508444  3
   1022   1026   1029   1030     1  0.0000000  0.6508444  3
   1022   1026   1029   1031     1  0.0000000  0.6508444  3
   1023   1022   1026   1027     1  0.0000000  1.2552000  3
   1023   1022   1026   1028     1  0.0000000  1.2552000  3
   1024   1023   1022   1026     1  0.0000000  1.2552000  3
   1024   1023   1032   1036     1  0.0000000  0.6508444  3
   1024   1023   1032   1033     1  0.0000000  0.6508444  3
   1024   1023   1032   1034     1  0.0000000  0.6508444  3
   1025   1023   1022   1026     1  0.0000000  1.2552000  3
   1025   1023   1032   1036     1  0.0000000  0.6508444  3
   1025   1023   1032   1033     1  0.0000000  0.6508444  3
   1025   1023   1032   1034     1  0.0000000  0.6508444  3
   1027   1026   1029   1035     1  0.0000000  0.6508444  3
   1027   1026   1029   1030     1  0.0000000  0.6508444  3
   1027   1026   1029   1031     1  0.0000000  0.6508444  3
   1028   1026   1029   1035     1  0.0000000  0.6508444  3
   1028   1026   1029   1030     1  0.0000000  0.6508444  3
   1028   1026   1029   1031     1  0.0000000  0.6508444  3
   1029   1035   1792   1793     1  180.0000771  10.4600000  2
   1030   1029   1035   1792     1  180.0000771  0.0000000  2
   1030   1029   1035   1037     1  0.0000000  3.3472000  1
   1030   1029   1035   1037     1  0.0000000  0.0000000  2
   1030   1029   1035   1037     1  180.0000771  0.3347200  3
   1031   1029   1035   1792     1  180.0000771  0.0000000  2
   1031   1029   1035   1037     1  0.0000000  3.3472000  1
   1031   1029   1035   1037     1  0.0000000  0.0000000  2
   1031   1029   1035   1037     1  180.0000771  0.3347200  3
   1032   1036   1803   1804     1  180.0000771  10.4600000  2
   1033   1032   1036   1038     1  0.0000000  3.3472000  1
   1033   1032   1036   1038     1  0.0000000  0.0000000  2
   1033   1032   1036   1038     1  180.0000771  0.3347200  3
   1033   1032   1036   1803     1  180.0000771  0.0000000  2
   1034   1032   1036   1038     1  0.0000000  3.3472000  1
   1034   1032   1036   1038     1  0.0000000  0.0000000  2
   1034   1032   1036   1038     1  180.0000771  0.3347200  3
   1034   1032   1036   1803     1  180.0000771  0.0000000  2
   1035   1792   1783   1784     1  0.0000000  0.0000000  2
   1035   1792   1783   1785     1  0.0000000  0.0000000  2
   1036   1803   1794   1795     1  0.0000000  0.0000000  2
   1036   1803   1794   1796     1  0.0000000  0.0000000  2
   1037   1035   1792   1793     1  0.0000000  8.3680000  1
   1037   1035   1792   1793     1  180.0000771  10.4600000  2
   1038   1036   1803   1804     1  0.0000000  8.3680000  1
   1038   1036   1803   1804     1  180.0000771  10.4600000  2
   1041   1044   1064   1065     1  0.0000000  0.0000000  2
   1041   1047   1048   1049     1  0.0000000  1.2552000  3
   1041   1047   1048   1050     1  0.0000000  1.2552000  3
   1041   1047   1051   1052     1  0.0000000  1.2552000  3
   1041   1047   1051   1053     1  0.0000000  1.2552000  3
   1042   1041   1044   1064     1  0.0000000  0.6508444  3
   1042   1041   1044   1045     1  0.0000000  0.6508444  3
   1042   1041   1044   1046     1  0.0000000  0.6508444  3
   1042   1041   1047   1048     1  0.0000000  1.2552000  3
   1042   1041   1047   1051     1  0.0000000  1.2552000  3
   1043   1041   1044   1064     1  0.0000000  0.6508444  3
   1043   1041   1044   1045     1  0.0000000  0.6508444  3
   1043   1041   1044   1046     1  0.0000000  0.6508444  3
   1043   1041   1047   1048     1  0.0000000  1.2552000  3
   1043   1041   1047   1051     1  0.0000000  1.2552000  3
   1045   1044   1041   1047     1  0.0000000  0.6508444  3
   1045   1044   1064   1065     1  0.0000000  0.0000000  2
   1046   1044   1041   1047     1  0.0000000  0.6508444  3
   1046   1044   1064   1065     1  0.0000000  0.0000000  2
   1047   1048   1057   1058     1  0.0000000  0.6508444  3
   1047   1048   1057   1059     1  0.0000000  0.6508444  3
   1047   1051   1054   1055     1  0.0000000  0.6508444  3
   1047   1051   1054   1056     1  0.0000000  0.6508444  3
   1048   1047   1051   1052     1  0.0000000  1.2552000  3
   1048   1047   1051   1053     1  0.0000000  1.2552000  3
   1049   1048   1047   1051     1  0.0000000  1.2552000  3
   1049   1048   1057   1061     1  0.0000000  0.6508444  3
   1049   1048   1057   1058     1  0.0000000  0.6508444  3
   1049   1048   1057   1059     1  0.0000000  0.6508444  3
   1050   1048   1047   1051     1  0.0000000  1.2552000  3
   1050   1048   1057   1061     1  0.0000000  0.6508444  3
   1050   1048   1057   1058     1  0.0000000  0.6508444  3
   1050   1048   1057   1059     1  0.0000000  0.6508444  3
   1052   1051   1054   1060     1  0.0000000  0.6508444  3
   1052   1051   1054   1055     1  0.0000000  0.6508444  3
   1052   1051   1054   1056     1  0.0000000  0.6508444  3
   1053   1051   1054   1060     1  0.0000000  0.6508444  3
   1053   1051   1054   1055     1  0.0000000  0.6508444  3
   1053   1051   1054   1056     1  0.0000000  0.6508444  3
   1054   1060   1814   1815     1  180.0000771  10.4600000  2
   1055   1054   1060   1814     1  180.0000771  0.0000000  2
   1055   1054   1060   1062     1  0.0000000  3.3472000  1
   1055   1054   1060   1062     1  0.0000000  0.0000000  2
   1055   1054   1060   1062     1  180.0000771  0.3347200  3
   1056   1054   1060   1814     1  180.0000771  0.0000000  2
   1056   1054   1060   1062     1  0.0000000  3.3472000  1
   1056   1054   1060   1062     1  0.0000000  0.0000000  2
   1056   1054   1060   1062     1  180.0000771  0.3347200  3
   1057   1061   1825   1826     1  180.0000771  10.4600000  2
   1058   1057   1061   1063     1  0.0000000  3.3472000  1
   1058   1057   1061   1063     1  0.0000000  0.0000000  2
   1058   1057   1061   1063     1  180.0000771  0.3347200  3
   1058   1057   1061   1825     1  180.0000771  0.0000000  2
   1059   1057   1061   1063     1  0.0000000  3.3472000  1
   1059   1057   1061   1063     1  0.0000000  0.0000000  2
   1059   1057   1061   1063     1  180.0000771  0.3347200  3
   1059   1057   1061   1825     1  180.0000771  0.0000000  2
   1060   1814   1805   1806     1  0.0000000  0.0000000  2
   1060   1814   1805   1807     1  0.0000000  0.0000000  2
   1061   1825   1816   1817     1  0.0000000  0.0000000  2
   1061   1825   1816   1818     1  0.0000000  0.0000000  2
   1062   1060   1814   1815     1  0.0000000  8.3680000  1
   1062   1060   1814   1815     1  180.0000771  10.4600000  2
   1063   1061   1825   1826     1  0.0000000  8.3680000  1
   1063   1061   1825   1826     1  180.0000771  10.4600000  2
   1066   1069   1089   1090     1  0.0000000  0.0000000  2
   1066   1072   1073   1074     1  0.0000000  1.2552000  3
   1066   1072   1073   1075     1  0.0000000  1.2552000  3
   1066   1072   1076   1077     1  0.0000000  1.2552000  3
   1066   1072   1076   1078     1  0.0000000  1.2552000  3
   1067   1066   1069   1089     1  0.0000000  0.6508444  3
   1067   1066   1069   1070     1  0.0000000  0.6508444  3
   1067   1066   1069   1071     1  0.0000000  0.6508444  3
   1067   1066   1072   1073     1  0.0000000  1.2552000  3
   1067   1066   1072   1076     1  0.0000000  1.2552000  3
   1068   1066   1069   1089     1  0.0000000  0.6508444  3
   1068   1066   1069   1070     1  0.0000000  0.6508444  3
   1068   1066   1069   1071     1  0.0000000  0.6508444  3
   1068   1066   1072   1073     1  0.0000000  1.2552000  3
   1068   1066   1072   1076     1  0.0000000  1.2552000  3
   1070   1069   1066   1072     1  0.0000000  0.6508444  3
   1070   1069   1089   1090     1  0.0000000  0.0000000  2
   1071   1069   1066   1072     1  0.0000000  0.6508444  3
   1071   1069   1089   1090     1  0.0000000  0.0000000  2
   1072   1073   1082   1083     1  0.0000000  0.6508444  3
   1072   1073   1082   1084     1  0.0000000  0.6508444  3
   1072   1076   1079   1080     1  0.0000000  0.6508444  3
   1072   1076   1079   1081     1  0.0000000  0.6508444  3
   1073   1072   1076   1077     1  0.0000000  1.2552000  3
   1073   1072   1076   1078     1  0.0000000  1.2552000  3
   1074   1073   1072   1076     1  0.0000000  1.2552000  3
   1074   1073   1082   1086     1  0.0000000  0.6508444  3
   1074   1073   1082   1083     1  0.0000000  0.6508444  3
   1074   1073   1082   1084     1  0.0000000  0.6508444  3
   1075   1073   1072   1076     1  0.0000000  1.2552000  3
   1075   1073   1082   1086     1  0.0000000  0.6508444  3
   1075   1073   1082   1083     1  0.0000000  0.6508444  3
   1075   1073   1082   1084     1  0.0000000  0.6508444  3
   1077   1076   1079   1085     1  0.0000000  0.6508444  3
   1077   1076   1079   1080     1  0.0000000  0.6508444  3
   1077   1076   1079   1081     1  0.0000000  0.6508444  3
   1078   1076   1079   1085     1  0.0000000  0.6508444  3
   1078   1076   1079   1080     1  0.0000000  0.6508444  3
   1078   1076   1079   1081     1  0.0000000  0.6508444  3
   1079   1085   1836   1837     1  180.0000771  10.4600000  2
   1080   1079   1085   1836     1  180.0000771  0.0000000  2
   1080   1079   1085   1087     1  0.0000000  3.3472000  1
   1080   1079   1085   1087     1  0.0000000  0.0000000  2
   1080   1079   1085   1087     1  180.0000771  0.3347200  3
   1081   1079   1085   1836     1  180.0000771  0.0000000  2
   1081   1079   1085   1087     1  0.0000000  3.3472000  1
   1081   1079   1085   1087     1  0.0000000  0.0000000  2
   1081   1079   1085   1087     1  180.0000771  0.3347200  3
   1082   1086   1847   1848     1  180.0000771  10.4600000  2
   1083   1082   1086   1088     1  0.0000000  3.3472000  1
   1083   1082   1086   1088     1  0.0000000  0.0000000  2
   1083   1082   1086   1088     1  180.0000771  0.3347200  3
   1083   1082   1086   1847     1  180.0000771  0.0000000  2
   1084   1082   1086   1088     1  0.0000000  3.3472000  1
   1084   1082   1086   1088     1  0.0000000  0.0000000  2
   1084   1082   1086   1088     1  180.0000771  0.3347200  3
   1084   1082   1086   1847     1  180.0000771  0.0000000  2
   1085   1836   1827   1828     1  0.0000000  0.0000000  2
   1085   1836   1827   1829     1  0.0000000  0.0000000  2
   1086   1847   1838   1839     1  0.0000000  0.0000000  2
   1086   1847   1838   1840     1  0.0000000  0.0000000  2
   1087   1085   1836   1837     1  0.0000000  8.3680000  1
   1087   1085   1836   1837     1  180.0000771  10.4600000  2
   1088   1086   1847   1848     1  0.0000000  8.3680000  1
   1088   1086   1847   1848     1  180.0000771  10.4600000  2
   1091   1094   1114   1115     1  0.0000000  0.0000000  2
   1091   1097   1098   1099     1  0.0000000  1.2552000  3
   1091   1097   1098   1100     1  0.0000000  1.2552000  3
   1091   1097   1101   1102     1  0.0000000  1.2552000  3
   1091   1097   1101   1103     1  0.0000000  1.2552000  3
   1092   1091   1094   1114     1  0.0000000  0.6508444  3
   1092   1091   1094   1095     1  0.0000000  0.6508444  3
   1092   1091   1094   1096     1  0.0000000  0.6508444  3
   1092   1091   1097   1098     1  0.0000000  1.2552000  3
   1092   1091   1097   1101     1  0.0000000  1.2552000  3
   1093   1091   1094   1114     1  0.0000000  0.6508444  3
   1093   1091   1094   1095     1  0.0000000  0.6508444  3
   1093   1091   1094   1096     1  0.0000000  0.6508444  3
   1093   1091   1097   1098     1  0.0000000  1.2552000  3
   1093   1091   1097   1101     1  0.0000000  1.2552000  3
   1095   1094   1091   1097     1  0.0000000  0.6508444  3
   1095   1094   1114   1115     1  0.0000000  0.0000000  2
   1096   1094   1091   1097     1  0.0000000  0.6508444  3
   1096   1094   1114   1115     1  0.0000000  0.0000000  2
   1097   1098   1107   1108     1  0.0000000  0.6508444  3
   1097   1098   1107   1109     1  0.0000000  0.6508444  3
   1097   1101   1104   1105     1  0.0000000  0.6508444  3
   1097   1101   1104   1106     1  0.0000000  0.6508444  3
   1098   1097   1101   1102     1  0.0000000  1.2552000  3
   1098   1097   1101   1103     1  0.0000000  1.2552000  3
   1099   1098   1097   1101     1  0.0000000  1.2552000  3
   1099   1098   1107   1111     1  0.0000000  0.6508444  3
   1099   1098   1107   1108     1  0.0000000  0.6508444  3
   1099   1098   1107   1109     1  0.0000000  0.6508444  3
   1100   1098   1097   1101     1  0.0000000  1.2552000  3
   1100   1098   1107   1111     1  0.0000000  0.6508444  3
   1100   1098   1107   1108     1  0.0000000  0.6508444  3
   1100   1098   1107   1109     1  0.0000000  0.6508444  3
   1102   1101   1104   1110     1  0.0000000  0.6508444  3
   1102   1101   1104   1105     1  0.0000000  0.6508444  3
   1102   1101   1104   1106     1  0.0000000  0.6508444  3
   1103   1101   1104   1110     1  0.0000000  0.6508444  3
   1103   1101   1104   1105     1  0.0000000  0.6508444  3
   1103   1101   1104   1106     1  0.0000000  0.6508444  3
   1104   1110   1858   1859     1  180.0000771  10.4600000  2
   1105   1104   1110   1858     1  180.0000771  0.0000000  2
   1105   1104   1110   1112     1  0.0000000  3.3472000  1
   1105   1104   1110   1112     1  0.0000000  0.0000000  2
   1105   1104   1110   1112     1  180.0000771  0.3347200  3
   1106   1104   1110   1858     1  180.0000771  0.0000000  2
   1106   1104   1110   1112     1  0.0000000  3.3472000  1
   1106   1104   1110   1112     1  0.0000000  0.0000000  2
   1106   1104   1110   1112     1  180.0000771  0.3347200  3
   1107   1111   1869   1870     1  180.0000771  10.4600000  2
   1108   1107   1111   1113     1  0.0000000  3.3472000  1
   1108   1107   1111   1113     1  0.0000000  0.0000000  2
   1108   1107   1111   1113     1  180.0000771  0.3347200  3
   1108   1107   1111   1869     1  180.0000771  0.0000000  2
   1109   1107   1111   1113     1  0.0000000  3.3472000  1
   1109   1107   1111   1113     1  0.0000000  0.0000000  2
   1109   1107   1111   1113     1  180.0000771  0.3347200  3
   1109   1107   1111   1869     1  180.0000771  0.0000000  2
   1110   1858   1849   1850     1  0.0000000  0.0000000  2
   1110   1858   1849   1851     1  0.0000000  0.0000000  2
   1111   1869   1860   1861     1  0.0000000  0.0000000  2
   1111   1869   1860   1862     1  0.0000000  0.0000000  2
   1112   1110   1858   1859     1  0.0000000  8.3680000  1
   1112   1110   1858   1859     1  180.0000771  10.4600000  2
   1113   1111   1869   1870     1  0.0000000  8.3680000  1
   1113   1111   1869   1870     1  180.0000771  10.4600000  2
   1116   1119   1139   1140     1  0.0000000  0.0000000  2
   1116   1122   1123   1124     1  0.0000000  1.2552000  3
   1116   1122   1123   1125     1  0.0000000  1.2552000  3
   1116   1122   1126   1127     1  0.0000000  1.2552000  3
   1116   1122   1126   1128     1  0.0000000  1.2552000  3
   1117   1116   1119   1139     1  0.0000000  0.6508444  3
   1117   1116   1119   1120     1  0.0000000  0.6508444  3
   1117   1116   1119   1121     1  0.0000000  0.6508444  3
   1117   1116   1122   1123     1  0.0000000  1.2552000  3
   1117   1116   1122   1126     1  0.0000000  1.2552000  3
   1118   1116   1119   1139     1  0.0000000  0.6508444  3
   1118   1116   1119   1120     1  0.0000000  0.6508444  3
   1118   1116   1119   1121     1  0.0000000  0.6508444  3
   1118   1116   1122   1123     1  0.0000000  1.2552000  3
   1118   1116   1122   1126     1  0.0000000  1.2552000  3
   1120   1119   1116   1122     1  0.0000000  0.6508444  3
   1120   1119   1139   1140     1  0.0000000  0.0000000  2
   1121   1119   1116   1122     1  0.0000000  0.6508444  3
   1121   1119   1139   1140     1  0.0000000  0.0000000  2
   1122   1123   1132   1133     1  0.0000000  0.6508444  3
   1122   1123   1132   1134     1  0.0000000  0.6508444  3
   1122   1126   1129   1130     1  0.0000000  0.6508444  3
   1122   1126   1129   1131     1  0.0000000  0.6508444  3
   1123   1122   1126   1127     1  0.0000000  1.2552000  3
   1123   1122   1126   1128     1  0.0000000  1.2552000  3
   1124   1123   1122   1126     1  0.0000000  1.2552000  3
   1124   1123   1132   1136     1  0.0000000  0.6508444  3
   1124   1123   1132   1133     1  0.0000000  0.6508444  3
   1124   1123   1132   1134     1  0.0000000  0.6508444  3
   1125   1123   1122   1126     1  0.0000000  1.2552000  3
   1125   1123   1132   1136     1  0.0000000  0.6508444  3
   1125   1123   1132   1133     1  0.0000000  0.6508444  3
   1125   1123   1132   1134     1  0.0000000  0.6508444  3
   1127   1126   1129   1135     1  0.0000000  0.6508444  3
   1127   1126   1129   1130     1  0.0000000  0.6508444  3
   1127   1126   1129   1131     1  0.0000000  0.6508444  3
   1128   1126   1129   1135     1  0.0000000  0.6508444  3
   1128   1126   1129   1130     1  0.0000000  0.6508444  3
   1128   1126   1129   1131     1  0.0000000  0.6508444  3
   1129   1135   1880   1881     1  180.0000771  10.4600000  2
   1130   1129   1135   1880     1  180.0000771  0.0000000  2
   1130   1129   1135   1137     1  0.0000000  3.3472000  1
   1130   1129   1135   1137     1  0.0000000  0.0000000  2
   1130   1129   1135   1137     1  180.0000771  0.3347200  3
   1131   1129   1135   1880     1  180.0000771  0.0000000  2
   1131   1129   1135   1137     1  0.0000000  3.3472000  1
   1131   1129   1135   1137     1  0.0000000  0.0000000  2
   1131   1129   1135   1137     1  180.0000771  0.3347200  3
   1132   1136   1891   1892     1  180.0000771  10.4600000  2
   1133   1132   1136   1138     1  0.0000000  3.3472000  1
   1133   1132   1136   1138     1  0.0000000  0.0000000  2
   1133   1132   1136   1138     1  180.0000771  0.3347200  3
   1133   1132   1136   1891     1  180.0000771  0.0000000  2
   1134   1132   1136   1138     1  0.0000000  3.3472000  1
   1134   1132   1136   1138     1  0.0000000  0.0000000  2
   1134   1132   1136   1138     1  180.0000771  0.3347200  3
   1134   1132   1136   1891     1  180.0000771  0.0000000  2
   1135   1880   1871   1872     1  0.0000000  0.0000000  2
   1135   1880   1871   1873     1  0.0000000  0.0000000  2
   1136   1891   1882   1883     1  0.0000000  0.0000000  2
   1136   1891   1882   1884     1  0.0000000  0.0000000  2
   1137   1135   1880   1881     1  0.0000000  8.3680000  1
   1137   1135   1880   1881     1  180.0000771  10.4600000  2
   1138   1136   1891   1892     1  0.0000000  8.3680000  1
   1138   1136   1891   1892     1  180.0000771  10.4600000  2
   1141   1144   1164   1165     1  0.0000000  0.0000000  2
   1141   1147   1148   1149     1  0.0000000  1.2552000  3
   1141   1147   1148   1150     1  0.0000000  1.2552000  3
   1141   1147   1151   1152     1  0.0000000  1.2552000  3
   1141   1147   1151   1153     1  0.0000000  1.2552000  3
   1142   1141   1144   1164     1  0.0000000  0.6508444  3
   1142   1141   1144   1145     1  0.0000000  0.6508444  3
   1142   1141   1144   1146     1  0.0000000  0.6508444  3
   1142   1141   1147   1148     1  0.0000000  1.2552000  3
   1142   1141   1147   1151     1  0.0000000  1.2552000  3
   1143   1141   1144   1164     1  0.0000000  0.6508444  3
   1143   1141   1144   1145     1  0.0000000  0.6508444  3
   1143   1141   1144   1146     1  0.0000000  0.6508444  3
   1143   1141   1147   1148     1  0.0000000  1.2552000  3
   1143   1141   1147   1151     1  0.0000000  1.2552000  3
   1145   1144   1141   1147     1  0.0000000  0.6508444  3
   1145   1144   1164   1165     1  0.0000000  0.0000000  2
   1146   1144   1141   1147     1  0.0000000  0.6508444  3
   1146   1144   1164   1165     1  0.0000000  0.0000000  2
   1147   1148   1157   1158     1  0.0000000  0.6508444  3
   1147   1148   1157   1159     1  0.0000000  0.6508444  3
   1147   1151   1154   1155     1  0.0000000  0.6508444  3
   1147   1151   1154   1156     1  0.0000000  0.6508444  3
   1148   1147   1151   1152     1  0.0000000  1.2552000  3
   1148   1147   1151   1153     1  0.0000000  1.2552000  3
   1149   1148   1147   1151     1  0.0000000  1.2552000  3
   1149   1148   1157   1161     1  0.0000000  0.6508444  3
   1149   1148   1157   1158     1  0.0000000  0.6508444  3
   1149   1148   1157   1159     1  0.0000000  0.6508444  3
   1150   1148   1147   1151     1  0.0000000  1.2552000  3
   1150   1148   1157   1161     1  0.0000000  0.6508444  3
   1150   1148   1157   1158     1  0.0000000  0.6508444  3
   1150   1148   1157   1159     1  0.0000000  0.6508444  3
   1152   1151   1154   1160     1  0.0000000  0.6508444  3
   1152   1151   1154   1155     1  0.0000000  0.6508444  3
   1152   1151   1154   1156     1  0.0000000  0.6508444  3
   1153   1151   1154   1160     1  0.0000000  0.6508444  3
   1153   1151   1154   1155     1  0.0000000  0.6508444  3
   1153   1151   1154   1156     1  0.0000000  0.6508444  3
   1154   1160   1902   1903     1  180.0000771  10.4600000  2
   1155   1154   1160   1902     1  180.0000771  0.0000000  2
   1155   1154   1160   1162     1  0.0000000  3.3472000  1
   1155   1154   1160   1162     1  0.0000000  0.0000000  2
   1155   1154   1160   1162     1  180.0000771  0.3347200  3
   1156   1154   1160   1902     1  180.0000771  0.0000000  2
   1156   1154   1160   1162     1  0.0000000  3.3472000  1
   1156   1154   1160   1162     1  0.0000000  0.0000000  2
   1156   1154   1160   1162     1  180.0000771  0.3347200  3
   1157   1161   1913   1914     1  180.0000771  10.4600000  2
   1158   1157   1161   1163     1  0.0000000  3.3472000  1
   1158   1157   1161   1163     1  0.0000000  0.0000000  2
   1158   1157   1161   1163     1  180.0000771  0.3347200  3
   1158   1157   1161   1913     1  180.0000771  0.0000000  2
   1159   1157   1161   1163     1  0.0000000  3.3472000  1
   1159   1157   1161   1163     1  0.0000000  0.0000000  2
   1159   1157   1161   1163     1  180.0000771  0.3347200  3
   1159   1157   1161   1913     1  180.0000771  0.0000000  2
   1160   1902   1893   1894     1  0.0000000  0.0000000  2
   1160   1902   1893   1895     1  0.0000000  0.0000000  2
   1161   1913   1904   1905     1  0.0000000  0.0000000  2
   1161   1913   1904   1906     1  0.0000000  0.0000000  2
   1162   1160   1902   1903     1  0.0000000  8.3680000  1
   1162   1160   1902   1903     1  180.0000771  10.4600000  2
   1163   1161   1913   1914     1  0.0000000  8.3680000  1
   1163   1161   1913   1914     1  180.0000771  10.4600000  2
   1166   1169   1189   1190     1  0.0000000  0.0000000  2
   1166   1172   1173   1174     1  0.0000000  1.2552000  3
   1166   1172   1173   1175     1  0.0000000  1.2552000  3
   1166   1172   1176   1177     1  0.0000000  1.2552000  3
   1166   1172   1176   1178     1  0.0000000  1.2552000  3
   1167   1166   1169   1189     1  0.0000000  0.6508444  3
   1167   1166   1169   1170     1  0.0000000  0.6508444  3
   1167   1166   1169   1171     1  0.0000000  0.6508444  3
   1167   1166   1172   1173     1  0.0000000  1.2552000  3
   1167   1166   1172   1176     1  0.0000000  1.2552000  3
   1168   1166   1169   1189     1  0.0000000  0.6508444  3
   1168   1166   1169   1170     1  0.0000000  0.6508444  3
   1168   1166   1169   1171     1  0.0000000  0.6508444  3
   1168   1166   1172   1173     1  0.0000000  1.2552000  3
   1168   1166   1172   1176     1  0.0000000  1.2552000  3
   1170   1169   1166   1172     1  0.0000000  0.6508444  3
   1170   1169   1189   1190     1  0.0000000  0.0000000  2
   1171   1169   1166   1172     1  0.0000000  0.6508444  3
   1171   1169   1189   1190     1  0.0000000  0.0000000  2
   1172   1173   1182   1183     1  0.0000000  0.6508444  3
   1172   1173   1182   1184     1  0.0000000  0.6508444  3
   1172   1176   1179   1180     1  0.0000000  0.6508444  3
   1172   1176   1179   1181     1  0.0000000  0.6508444  3
   1173   1172   1176   1177     1  0.0000000  1.2552000  3
   1173   1172   1176   1178     1  0.0000000  1.2552000  3
   1174   1173   1172   1176     1  0.0000000  1.2552000  3
   1174   1173   1182   1186     1  0.0000000  0.6508444  3
   1174   1173   1182   1183     1  0.0000000  0.6508444  3
   1174   1173   1182   1184     1  0.0000000  0.6508444  3
   1175   1173   1172   1176     1  0.0000000  1.2552000  3
   1175   1173   1182   1186     1  0.0000000  0.6508444  3
   1175   1173   1182   1183     1  0.0000000  0.6508444  3
   1175   1173   1182   1184     1  0.0000000  0.6508444  3
   1177   1176   1179   1185     1  0.0000000  0.6508444  3
   1177   1176   1179   1180     1  0.0000000  0.6508444  3
   1177   1176   1179   1181     1  0.0000000  0.6508444  3
   1178   1176   1179   1185     1  0.0000000  0.6508444  3
   1178   1176   1179   1180     1  0.0000000  0.6508444  3
   1178   1176   1179   1181     1  0.0000000  0.6508444  3
   1179   1185   1924   1925     1  180.0000771  10.4600000  2
   1180   1179   1185   1924     1  180.0000771  0.0000000  2
   1180   1179   1185   1187     1  0.0000000  3.3472000  1
   1180   1179   1185   1187     1  0.0000000  0.0000000  2
   1180   1179   1185   1187     1  180.0000771  0.3347200  3
   1181   1179   1185   1924     1  180.0000771  0.0000000  2
   1181   1179   1185   1187     1  0.0000000  3.3472000  1
   1181   1179   1185   1187     1  0.0000000  0.0000000  2
   1181   1179   1185   1187     1  180.0000771  0.3347200  3
   1182   1186   1935   1936     1  180.0000771  10.4600000  2
   1183   1182   1186   1188     1  0.0000000  3.3472000  1
   1183   1182   1186   1188     1  0.0000000  0.0000000  2
   1183   1182   1186   1188     1  180.0000771  0.3347200  3
   1183   1182   1186   1935     1  180.0000771  0.0000000  2
   1184   1182   1186   1188     1  0.0000000  3.3472000  1
   1184   1182   1186   1188     1  0.0000000  0.0000000  2
   1184   1182   1186   1188     1  180.0000771  0.3347200  3
   1184   1182   1186   1935     1  180.0000771  0.0000000  2
   1185   1924   1915   1916     1  0.0000000  0.0000000  2
   1185   1924   1915   1917     1  0.0000000  0.0000000  2
   1186   1935   1926   1927     1  0.0000000  0.0000000  2
   1186   1935   1926   1928     1  0.0000000  0.0000000  2
   1187   1185   1924   1925     1  0.0000000  8.3680000  1
   1187   1185   1924   1925     1  180.0000771  10.4600000  2
   1188   1186   1935   1936     1  0.0000000  8.3680000  1
   1188   1186   1935   1936     1  180.0000771  10.4600000  2
   1191   1194   1214   1215     1  0.0000000  0.0000000  2
   1191   1197   1198   1199     1  0.0000000  1.2552000  3
   1191   1197   1198   1200     1  0.0000000  1.2552000  3
   1191   1197   1201   1202     1  0.0000000  1.2552000  3
   1191   1197   1201   1203     1  0.0000000  1.2552000  3
   1192   1191   1194   1214     1  0.0000000  0.6508444  3
   1192   1191   1194   1195     1  0.0000000  0.6508444  3
   1192   1191   1194   1196     1  0.0000000  0.6508444  3
   1192   1191   1197   1198     1  0.0000000  1.2552000  3
   1192   1191   1197   1201     1  0.0000000  1.2552000  3
   1193   1191   1194   1214     1  0.0000000  0.6508444  3
   1193   1191   1194   1195     1  0.0000000  0.6508444  3
   1193   1191   1194   1196     1  0.0000000  0.6508444  3
   1193   1191   1197   1198     1  0.0000000  1.2552000  3
   1193   1191   1197   1201     1  0.0000000  1.2552000  3
   1195   1194   1191   1197     1  0.0000000  0.6508444  3
   1195   1194   1214   1215     1  0.0000000  0.0000000  2
   1196   1194   1191   1197     1  0.0000000  0.6508444  3
   1196   1194   1214   1215     1  0.0000000  0.0000000  2
   1197   1198   1207   1208     1  0.0000000  0.6508444  3
   1197   1198   1207   1209     1  0.0000000  0.6508444  3
   1197   1201   1204   1205     1  0.0000000  0.6508444  3
   1197   1201   1204   1206     1  0.0000000  0.6508444  3
   1198   1197   1201   1202     1  0.0000000  1.2552000  3
   1198   1197   1201   1203     1  0.0000000  1.2552000  3
   1199   1198   1197   1201     1  0.0000000  1.2552000  3
   1199   1198   1207   1211     1  0.0000000  0.6508444  3
   1199   1198   1207   1208     1  0.0000000  0.6508444  3
   1199   1198   1207   1209     1  0.0000000  0.6508444  3
   1200   1198   1197   1201     1  0.0000000  1.2552000  3
   1200   1198   1207   1211     1  0.0000000  0.6508444  3
   1200   1198   1207   1208     1  0.0000000  0.6508444  3
   1200   1198   1207   1209     1  0.0000000  0.6508444  3
   1202   1201   1204   1210     1  0.0000000  0.6508444  3
   1202   1201   1204   1205     1  0.0000000  0.6508444  3
   1202   1201   1204   1206     1  0.0000000  0.6508444  3
   1203   1201   1204   1210     1  0.0000000  0.6508444  3
   1203   1201   1204   1205     1  0.0000000  0.6508444  3
   1203   1201   1204   1206     1  0.0000000  0.6508444  3
   1204   1210   1946   1947     1  180.0000771  10.4600000  2
   1205   1204   1210   1946     1  180.0000771  0.0000000  2
   1205   1204   1210   1212     1  0.0000000  3.3472000  1
   1205   1204   1210   1212     1  0.0000000  0.0000000  2
   1205   1204   1210   1212     1  180.0000771  0.3347200  3
   1206   1204   1210   1946     1  180.0000771  0.0000000  2
   1206   1204   1210   1212     1  0.0000000  3.3472000  1
   1206   1204   1210   1212     1  0.0000000  0.0000000  2
   1206   1204   1210   1212     1  180.0000771  0.3347200  3
   1207   1211   1957   1958     1  180.0000771  10.4600000  2
   1208   1207   1211   1213     1  0.0000000  3.3472000  1
   1208   1207   1211   1213     1  0.0000000  0.0000000  2
   1208   1207   1211   1213     1  180.0000771  0.3347200  3
   1208   1207   1211   1957     1  180.0000771  0.0000000  2
   1209   1207   1211   1213     1  0.0000000  3.3472000  1
   1209   1207   1211   1213     1  0.0000000  0.0000000  2
   1209   1207   1211   1213     1  180.0000771  0.3347200  3
   1209   1207   1211   1957     1  180.0000771  0.0000000  2
   1210   1946   1937   1938     1  0.0000000  0.0000000  2
   1210   1946   1937   1939     1  0.0000000  0.0000000  2
   1211   1957   1948   1949     1  0.0000000  0.0000000  2
   1211   1957   1948   1950     1  0.0000000  0.0000000  2
   1212   1210   1946   1947     1  0.0000000  8.3680000  1
   1212   1210   1946   1947     1  180.0000771  10.4600000  2
   1213   1211   1957   1958     1  0.0000000  8.3680000  1
   1213   1211   1957   1958     1  180.0000771  10.4600000  2
   1216   1219   1239   1240     1  0.0000000  0.0000000  2
   1216   1222   1223   1224     1  0.0000000  1.2552000  3
   1216   1222   1223   1225     1  0.0000000  1.2552000  3
   1216   1222   1226   1227     1  0.0000000  1.2552000  3
   1216   1222   1226   1228     1  0.0000000  1.2552000  3
   1217   1216   1219   1239     1  0.0000000  0.6508444  3
   1217   1216   1219   1220     1  0.0000000  0.6508444  3
   1217   1216   1219   1221     1  0.0000000  0.6508444  3
   1217   1216   1222   1223     1  0.0000000  1.2552000  3
   1217   1216   1222   1226     1  0.0000000  1.2552000  3
   1218   1216   1219   1239     1  0.0000000  0.6508444  3
   1218   1216   1219   1220     1  0.0000000  0.6508444  3
   1218   1216   1219   1221     1  0.0000000  0.6508444  3
   1218   1216   1222   1223     1  0.0000000  1.2552000  3
   1218   1216   1222   1226     1  0.0000000  1.2552000  3
   1220   1219   1216   1222     1  0.0000000  0.6508444  3
   1220   1219   1239   1240     1  0.0000000  0.0000000  2
   1221   1219   1216   1222     1  0.0000000  0.6508444  3
   1221   1219   1239   1240     1  0.0000000  0.0000000  2
   1222   1223   1232   1233     1  0.0000000  0.6508444  3
   1222   1223   1232   1234     1  0.0000000  0.6508444  3
   1222   1226   1229   1230     1  0.0000000  0.6508444  3
   1222   1226   1229   1231     1  0.0000000  0.6508444  3
   1223   1222   1226   1227     1  0.0000000  1.2552000  3
   1223   1222   1226   1228     1  0.0000000  1.2552000  3
   1224   1223   1222   1226     1  0.0000000  1.2552000  3
   1224   1223   1232   1236     1  0.0000000  0.6508444  3
   1224   1223   1232   1233     1  0.0000000  0.6508444  3
   1224   1223   1232   1234     1  0.0000000  0.6508444  3
   1225   1223   1222   1226     1  0.0000000  1.2552000  3
   1225   1223   1232   1236     1  0.0000000  0.6508444  3
   1225   1223   1232   1233     1  0.0000000  0.6508444  3
   1225   1223   1232   1234     1  0.0000000  0.6508444  3
   1227   1226   1229   1235     1  0.0000000  0.6508444  3
   1227   1226   1229   1230     1  0.0000000  0.6508444  3
   1227   1226   1229   1231     1  0.0000000  0.6508444  3
   1228   1226   1229   1235     1  0.0000000  0.6508444  3
   1228   1226   1229   1230     1  0.0000000  0.6508444  3
   1228   1226   1229   1231     1  0.0000000  0.6508444  3
   1229   1235   1968   1969     1  180.0000771  10.4600000  2
   1230   1229   1235   1968     1  180.0000771  0.0000000  2
   1230   1229   1235   1237     1  0.0000000  3.3472000  1
   1230   1229   1235   1237     1  0.0000000  0.0000000  2
   1230   1229   1235   1237     1  180.0000771  0.3347200  3
   1231   1229   1235   1968     1  180.0000771  0.0000000  2
   1231   1229   1235   1237     1  0.0000000  3.3472000  1
   1231   1229   1235   1237     1  0.0000000  0.0000000  2
   1231   1229   1235   1237     1  180.0000771  0.3347200  3
   1232   1236   1979   1980     1  180.0000771  10.4600000  2
   1233   1232   1236   1238     1  0.0000000  3.3472000  1
   1233   1232   1236   1238     1  0.0000000  0.0000000  2
   1233   1232   1236   1238     1  180.0000771  0.3347200  3
   1233   1232   1236   1979     1  180.0000771  0.0000000  2
   1234   1232   1236   1238     1  0.0000000  3.3472000  1
   1234   1232   1236   1238     1  0.0000000  0.0000000  2
   1234   1232   1236   1238     1  180.0000771  0.3347200  3
   1234   1232   1236   1979     1  180.0000771  0.0000000  2
   1235   1968   1959   1960     1  0.0000000  0.0000000  2
   1235   1968   1959   1961     1  0.0000000  0.0000000  2
   1236   1979   1970   1971     1  0.0000000  0.0000000  2
   1236   1979   1970   1972     1  0.0000000  0.0000000  2
   1237   1235   1968   1969     1  0.0000000  8.3680000  1
   1237   1235   1968   1969     1  180.0000771  10.4600000  2
   1238   1236   1979   1980     1  0.0000000  8.3680000  1
   1238   1236   1979   1980     1  180.0000771  10.4600000  2
   1241   1244   1264   1265     1  0.0000000  0.0000000  2
   1241   1247   1248   1249     1  0.0000000  1.2552000  3
   1241   1247   1248   1250     1  0.0000000  1.2552000  3
   1241   1247   1251   1252     1  0.0000000  1.2552000  3
   1241   1247   1251   1253     1  0.0000000  1.2552000  3
   1242   1241   1244   1264     1  0.0000000  0.6508444  3
   1242   1241   1244   1245     1  0.0000000  0.6508444  3
   1242   1241   1244   1246     1  0.0000000  0.6508444  3
   1242   1241   1247   1248     1  0.0000000  1.2552000  3
   1242   1241   1247   1251     1  0.0000000  1.2552000  3
   1243   1241   1244   1264     1  0.0000000  0.6508444  3
   1243   1241   1244   1245     1  0.0000000  0.6508444  3
   1243   1241   1244   1246     1  0.0000000  0.6508444  3
   1243   1241   1247   1248     1  0.0000000  1.2552000  3
   1243   1241   1247   1251     1  0.0000000  1.2552000  3
   1245   1244   1241   1247     1  0.0000000  0.6508444  3
   1245   1244   1264   1265     1  0.0000000  0.0000000  2
   1246   1244   1241   1247     1  0.0000000  0.6508444  3
   1246   1244   1264   1265     1  0.0000000  0.0000000  2
   1247   1248   1257   1258     1  0.0000000  0.6508444  3
   1247   1248   1257   1259     1  0.0000000  0.6508444  3
   1247   1251   1254   1255     1  0.0000000  0.6508444  3
   1247   1251   1254   1256     1  0.0000000  0.6508444  3
   1248   1247   1251   1252     1  0.0000000  1.2552000  3
   1248   1247   1251   1253     1  0.0000000  1.2552000  3
   1249   1248   1247   1251     1  0.0000000  1.2552000  3
   1249   1248   1257   1261     1  0.0000000  0.6508444  3
   1249   1248   1257   1258     1  0.0000000  0.6508444  3
   1249   1248   1257   1259     1  0.0000000  0.6508444  3
   1250   1248   1247   1251     1  0.0000000  1.2552000  3
   1250   1248   1257   1261     1  0.0000000  0.6508444  3
   1250   1248   1257   1258     1  0.0000000  0.6508444  3
   1250   1248   1257   1259     1  0.0000000  0.6508444  3
   1252   1251   1254   1260     1  0.0000000  0.6508444  3
   1252   1251   1254   1255     1  0.0000000  0.6508444  3
   1252   1251   1254   1256     1  0.0000000  0.6508444  3
   1253   1251   1254   1260     1  0.0000000  0.6508444  3
   1253   1251   1254   1255     1  0.0000000  0.6508444  3
   1253   1251   1254   1256     1  0.0000000  0.6508444  3
   1254   1260   1990   1991     1  180.0000771  10.4600000  2
   1255   1254   1260   1990     1  180.0000771  0.0000000  2
   1255   1254   1260   1262     1  0.0000000  3.3472000  1
   1255   1254   1260   1262     1  0.0000000  0.0000000  2
   1255   1254   1260   1262     1  180.0000771  0.3347200  3
   1256   1254   1260   1990     1  180.0000771  0.0000000  2
   1256   1254   1260   1262     1  0.0000000  3.3472000  1
   1256   1254   1260   1262     1  0.0000000  0.0000000  2
   1256   1254   1260   1262     1  180.0000771  0.3347200  3
   1257   1261   2001   2002     1  180.0000771  10.4600000  2
   1258   1257   1261   1263     1  0.0000000  3.3472000  1
   1258   1257   1261   1263     1  0.0000000  0.0000000  2
   1258   1257   1261   1263     1  180.0000771  0.3347200  3
   1258   1257   1261   2001     1  180.0000771  0.0000000  2
   1259   1257   1261   1263     1  0.0000000  3.3472000  1
   1259   1257   1261   1263     1  0.0000000  0.0000000  2
   1259   1257   1261   1263     1  180.0000771  0.3347200  3
   1259   1257   1261   2001     1  180.0000771  0.0000000  2
   1260   1990   1981   1982     1  0.0000000  0.0000000  2
   1260   1990   1981   1983     1  0.0000000  0.0000000  2
   1261   2001   1992   1993     1  0.0000000  0.0000000  2
   1261   2001   1992   1994     1  0.0000000  0.0000000  2
   1262   1260   1990   1991     1  0.0000000  8.3680000  1
   1262   1260   1990   1991     1  180.0000771  10.4600000  2
   1263   1261   2001   2002     1  0.0000000  8.3680000  1
   1263   1261   2001   2002     1  180.0000771  10.4600000  2
   1266   1269   1289   1290     1  0.0000000  0.0000000  2
   1266   1272   1273   1274     1  0.0000000  1.2552000  3
   1266   1272   1273   1275     1  0.0000000  1.2552000  3
   1266   1272   1276   1277     1  0.0000000  1.2552000  3
   1266   1272   1276   1278     1  0.0000000  1.2552000  3
   1267   1266   1269   1289     1  0.0000000  0.6508444  3
   1267   1266   1269   1270     1  0.0000000  0.6508444  3
   1267   1266   1269   1271     1  0.0000000  0.6508444  3
   1267   1266   1272   1273     1  0.0000000  1.2552000  3
   1267   1266   1272   1276     1  0.0000000  1.2552000  3
   1268   1266   1269   1289     1  0.0000000  0.6508444  3
   1268   1266   1269   1270     1  0.0000000  0.6508444  3
   1268   1266   1269   1271     1  0.0000000  0.6508444  3
   1268   1266   1272   1273     1  0.0000000  1.2552000  3
   1268   1266   1272   1276     1  0.0000000  1.2552000  3
   1270   1269   1266   1272     1  0.0000000  0.6508444  3
   1270   1269   1289   1290     1  0.0000000  0.0000000  2
   1271   1269   1266   1272     1  0.0000000  0.6508444  3
   1271   1269   1289   1290     1  0.0000000  0.0000000  2
   1272   1273   1282   1283     1  0.0000000  0.6508444  3
   1272   1273   1282   1284     1  0.0000000  0.6508444  3
   1272   1276   1279   1280     1  0.0000000  0.6508444  3
   1272   1276   1279   1281     1  0.0000000  0.6508444  3
   1273   1272   1276   1277     1  0.0000000  1.2552000  3
   1273   1272   1276   1278     1  0.0000000  1.2552000  3
   1274   1273   1272   1276     1  0.0000000  1.2552000  3
   1274   1273   1282   1286     1  0.0000000  0.6508444  3
   1274   1273   1282   1283     1  0.0000000  0.6508444  3
   1274   1273   1282   1284     1  0.0000000  0.6508444  3
   1275   1273   1272   1276     1  0.0000000  1.2552000  3
   1275   1273   1282   1286     1  0.0000000  0.6508444  3
   1275   1273   1282   1283     1  0.0000000  0.6508444  3
   1275   1273   1282   1284     1  0.0000000  0.6508444  3
   1277   1276   1279   1285     1  0.0000000  0.6508444  3
   1277   1276   1279   1280     1  0.0000000  0.6508444  3
   1277   1276   1279   1281     1  0.0000000  0.6508444  3
   1278   1276   1279   1285     1  0.0000000  0.6508444  3
   1278   1276   1279   1280     1  0.0000000  0.6508444  3
   1278   1276   1279   1281     1  0.0000000  0.6508444  3
   1279   1285   2012   2013     1  180.0000771  10.4600000  2
   1280   1279   1285   2012     1  180.0000771  0.0000000  2
   1280   1279   1285   1287     1  0.0000000  3.3472000  1
   1280   1279   1285   1287     1  0.0000000  0.0000000  2
   1280   1279   1285   1287     1  180.0000771  0.3347200  3
   1281   1279   1285   2012     1  180.0000771  0.0000000  2
   1281   1279   1285   1287     1  0.0000000  3.3472000  1
   1281   1279   1285   1287     1  0.0000000  0.0000000  2
   1281   1279   1285   1287     1  180.0000771  0.3347200  3
   1282   1286   2023   2024     1  180.0000771  10.4600000  2
   1283   1282   1286   1288     1  0.0000000  3.3472000  1
   1283   1282   1286   1288     1  0.0000000  0.0000000  2
   1283   1282   1286   1288     1  180.0000771  0.3347200  3
   1283   1282   1286   2023     1  180.0000771  0.0000000  2
   1284   1282   1286   1288     1  0.0000000  3.3472000  1
   1284   1282   1286   1288     1  0.0000000  0.0000000  2
   1284   1282   1286   1288     1  180.0000771  0.3347200  3
   1284   1282   1286   2023     1  180.0000771  0.0000000  2
   1285   2012   2003   2004     1  0.0000000  0.0000000  2
   1285   2012   2003   2005     1  0.0000000  0.0000000  2
   1286   2023   2014   2015     1  0.0000000  0.0000000  2
   1286   2023   2014   2016     1  0.0000000  0.0000000  2
   1287   1285   2012   2013     1  0.0000000  8.3680000  1
   1287   1285   2012   2013     1  180.0000771  10.4600000  2
   1288   1286   2023   2024     1  0.0000000  8.3680000  1
   1288   1286   2023   2024     1  180.0000771  10.4600000  2
   1291   1294   1314   1315     1  0.0000000  0.0000000  2
   1291   1297   1298   1299     1  0.0000000  1.2552000  3
   1291   1297   1298   1300     1  0.0000000  1.2552000  3
   1291   1297   1301   1302     1  0.0000000  1.2552000  3
   1291   1297   1301   1303     1  0.0000000  1.2552000  3
   1292   1291   1294   1314     1  0.0000000  0.6508444  3
   1292   1291   1294   1295     1  0.0000000  0.6508444  3
   1292   1291   1294   1296     1  0.0000000  0.6508444  3
   1292   1291   1297   1298     1  0.0000000  1.2552000  3
   1292   1291   1297   1301     1  0.0000000  1.2552000  3
   1293   1291   1294   1314     1  0.0000000  0.6508444  3
   1293   1291   1294   1295     1  0.0000000  0.6508444  3
   1293   1291   1294   1296     1  0.0000000  0.6508444  3
   1293   1291   1297   1298     1  0.0000000  1.2552000  3
   1293   1291   1297   1301     1  0.0000000  1.2552000  3
   1295   1294   1291   1297     1  0.0000000  0.6508444  3
   1295   1294   1314   1315     1  0.0000000  0.0000000  2
   1296   1294   1291   1297     1  0.0000000  0.6508444  3
   1296   1294   1314   1315     1  0.0000000  0.0000000  2
   1297   1298   1307   1308     1  0.0000000  0.6508444  3
   1297   1298   1307   1309     1  0.0000000  0.6508444  3
   1297   1301   1304   1305     1  0.0000000  0.6508444  3
   1297   1301   1304   1306     1  0.0000000  0.6508444  3
   1298   1297   1301   1302     1  0.0000000  1.2552000  3
   1298   1297   1301   1303     1  0.0000000  1.2552000  3
   1299   1298   1297   1301     1  0.0000000  1.2552000  3
   1299   1298   1307   1311     1  0.0000000  0.6508444  3
   1299   1298   1307   1308     1  0.0000000  0.6508444  3
   1299   1298   1307   1309     1  0.0000000  0.6508444  3
   1300   1298   1297   1301     1  0.0000000  1.2552000  3
   1300   1298   1307   1311     1  0.0000000  0.6508444  3
   1300   1298   1307   1308     1  0.0000000  0.6508444  3
   1300   1298   1307   1309     1  0.0000000  0.6508444  3
   1302   1301   1304   1310     1  0.0000000  0.6508444  3
   1302   1301   1304   1305     1  0.0000000  0.6508444  3
   1302   1301   1304   1306     1  0.0000000  0.6508444  3
   1303   1301   1304   1310     1  0.0000000  0.6508444  3
   1303   1301   1304   1305     1  0.0000000  0.6508444  3
   1303   1301   1304   1306     1  0.0000000  0.6508444  3
   1304   1310   2034   2035     1  180.0000771  10.4600000  2
   1305   1304   1310   2034     1  180.0000771  0.0000000  2
   1305   1304   1310   1312     1  0.0000000  3.3472000  1
   1305   1304   1310   1312     1  0.0000000  0.0000000  2
   1305   1304   1310   1312     1  180.0000771  0.3347200  3
   1306   1304   1310   2034     1  180.0000771  0.0000000  2
   1306   1304   1310   1312     1  0.0000000  3.3472000  1
   1306   1304   1310   1312     1  0.0000000  0.0000000  2
   1306   1304   1310   1312     1  180.0000771  0.3347200  3
   1307   1311   2045   2046     1  180.0000771  10.4600000  2
   1308   1307   1311   1313     1  0.0000000  3.3472000  1
   1308   1307   1311   1313     1  0.0000000  0.0000000  2
   1308   1307   1311   1313     1  180.0000771  0.3347200  3
   1308   1307   1311   2045     1  180.0000771  0.0000000  2
   1309   1307   1311   1313     1  0.0000000  3.3472000  1
   1309   1307   1311   1313     1  0.0000000  0.0000000  2
   1309   1307   1311   1313     1  180.0000771  0.3347200  3
   1309   1307   1311   2045     1  180.0000771  0.0000000  2
   1310   2034   2025   2026     1  0.0000000  0.0000000  2
   1310   2034   2025   2027     1  0.0000000  0.0000000  2
   1311   2045   2036   2037     1  0.0000000  0.0000000  2
   1311   2045   2036   2038     1  0.0000000  0.0000000  2
   1312   1310   2034   2035     1  0.0000000  8.3680000  1
   1312   1310   2034   2035     1  180.0000771  10.4600000  2
   1313   1311   2045   2046     1  0.0000000  8.3680000  1
   1313   1311   2045   2046     1  180.0000771  10.4600000  2
   1316   1319   1339   1340     1  0.0000000  0.0000000  2
   1316   1322   1323   1324     1  0.0000000  1.2552000  3
   1316   1322   1323   1325     1  0.0000000  1.2552000  3
   1316   1322   1326   1327     1  0.0000000  1.2552000  3
   1316   1322   1326   1328     1  0.0000000  1.2552000  3
   1317   1316   1319   1339     1  0.0000000  0.6508444  3
   1317   1316   1319   1320     1  0.0000000  0.6508444  3
   1317   1316   1319   1321     1  0.0000000  0.6508444  3
   1317   1316   1322   1323     1  0.0000000  1.2552000  3
   1317   1316   1322   1326     1  0.0000000  1.2552000  3
   1318   1316   1319   1339     1  0.0000000  0.6508444  3
   1318   1316   1319   1320     1  0.0000000  0.6508444  3
   1318   1316   1319   1321     1  0.0000000  0.6508444  3
   1318   1316   1322   1323     1  0.0000000  1.2552000  3
   1318   1316   1322   1326     1  0.0000000  1.2552000  3
   1320   1319   1316   1322     1  0.0000000  0.6508444  3
   1320   1319   1339   1340     1  0.0000000  0.0000000  2
   1321   1319   1316   1322     1  0.0000000  0.6508444  3
   1321   1319   1339   1340     1  0.0000000  0.0000000  2
   1322   1323   1332   1333     1  0.0000000  0.6508444  3
   1322   1323   1332   1334     1  0.0000000  0.6508444  3
   1322   1326   1329   1330     1  0.0000000  0.6508444  3
   1322   1326   1329   1331     1  0.0000000  0.6508444  3
   1323   1322   1326   1327     1  0.0000000  1.2552000  3
   1323   1322   1326   1328     1  0.0000000  1.2552000  3
   1324   1323   1322   1326     1  0.0000000  1.2552000  3
   1324   1323   1332   1336     1  0.0000000  0.6508444  3
   1324   1323   1332   1333     1  0.0000000  0.6508444  3
   1324   1323   1332   1334     1  0.0000000  0.6508444  3
   1325   1323   1322   1326     1  0.0000000  1.2552000  3
   1325   1323   1332   1336     1  0.0000000  0.6508444  3
   1325   1323   1332   1333     1  0.0000000  0.6508444  3
   1325   1323   1332   1334     1  0.0000000  0.6508444  3
   1327   1326   1329   1335     1  0.0000000  0.6508444  3
   1327   1326   1329   1330     1  0.0000000  0.6508444  3
   1327   1326   1329   1331     1  0.0000000  0.6508444  3
   1328   1326   1329   1335     1  0.0000000  0.6508444  3
   1328   1326   1329   1330     1  0.0000000  0.6508444  3
   1328   1326   1329   1331     1  0.0000000  0.6508444  3
   1329   1335   2056   2057     1  180.0000771  10.4600000  2
   1330   1329   1335   2056     1  180.0000771  0.0000000  2
   1330   1329   1335   1337     1  0.0000000  3.3472000  1
   1330   1329   1335   1337     1  0.0000000  0.0000000  2
   1330   1329   1335   1337     1  180.0000771  0.3347200  3
   1331   1329   1335   2056     1  180.0000771  0.0000000  2
   1331   1329   1335   1337     1  0.0000000  3.3472000  1
   1331   1329   1335   1337     1  0.0000000  0.0000000  2
   1331   1329   1335   1337     1  180.0000771  0.3347200  3
   1332   1336   2067   2068     1  180.0000771  10.4600000  2
   1333   1332   1336   1338     1  0.0000000  3.3472000  1
   1333   1332   1336   1338     1  0.0000000  0.0000000  2
   1333   1332   1336   1338     1  180.0000771  0.3347200  3
   1333   1332   1336   2067     1  180.0000771  0.0000000  2
   1334   1332   1336   1338     1  0.0000000  3.3472000  1
   1334   1332   1336   1338     1  0.0000000  0.0000000  2
   1334   1332   1336   1338     1  180.0000771  0.3347200  3
   1334   1332   1336   2067     1  180.0000771  0.0000000  2
   1335   2056   2047   2048     1  0.0000000  0.0000000  2
   1335   2056   2047   2049     1  0.0000000  0.0000000  2
   1336   2067   2058   2059     1  0.0000000  0.0000000  2
   1336   2067   2058   2060     1  0.0000000  0.0000000  2
   1337   1335   2056   2057     1  0.0000000  8.3680000  1
   1337   1335   2056   2057     1  180.0000771  10.4600000  2
   1338   1336   2067   2068     1  0.0000000  8.3680000  1
   1338   1336   2067   2068     1  180.0000771  10.4600000  2
   1341   1344   1364   1365     1  0.0000000  0.0000000  2
   1341   1347   1348   1349     1  0.0000000  1.2552000  3
   1341   1347   1348   1350     1  0.0000000  1.2552000  3
   1341   1347   1351   1352     1  0.0000000  1.2552000  3
   1341   1347   1351   1353     1  0.0000000  1.2552000  3
   1342   1341   1344   1364     1  0.0000000  0.6508444  3
   1342   1341   1344   1345     1  0.0000000  0.6508444  3
   1342   1341   1344   1346     1  0.0000000  0.6508444  3
   1342   1341   1347   1348     1  0.0000000  1.2552000  3
   1342   1341   1347   1351     1  0.0000000  1.2552000  3
   1343   1341   1344   1364     1  0.0000000  0.6508444  3
   1343   1341   1344   1345     1  0.0000000  0.6508444  3
   1343   1341   1344   1346     1  0.0000000  0.6508444  3
   1343   1341   1347   1348     1  0.0000000  1.2552000  3
   1343   1341   1347   1351     1  0.0000000  1.2552000  3
   1345   1344   1341   1347     1  0.0000000  0.6508444  3
   1345   1344   1364   1365     1  0.0000000  0.0000000  2
   1346   1344   1341   1347     1  0.0000000  0.6508444  3
   1346   1344   1364   1365     1  0.0000000  0.0000000  2
   1347   1348   1357   1358     1  0.0000000  0.6508444  3
   1347   1348   1357   1359     1  0.0000000  0.6508444  3
   1347   1351   1354   1355     1  0.0000000  0.6508444  3
   1347   1351   1354   1356     1  0.0000000  0.6508444  3
   1348   1347   1351   1352     1  0.0000000  1.2552000  3
   1348   1347   1351   1353     1  0.0000000  1.2552000  3
   1349   1348   1347   1351     1  0.0000000  1.2552000  3
   1349   1348   1357   1361     1  0.0000000  0.6508444  3
   1349   1348   1357   1358     1  0.0000000  0.6508444  3
   1349   1348   1357   1359     1  0.0000000  0.6508444  3
   1350   1348   1347   1351     1  0.0000000  1.2552000  3
   1350   1348   1357   1361     1  0.0000000  0.6508444  3
   1350   1348   1357   1358     1  0.0000000  0.6508444  3
   1350   1348   1357   1359     1  0.0000000  0.6508444  3
   1352   1351   1354   1360     1  0.0000000  0.6508444  3
   1352   1351   1354   1355     1  0.0000000  0.6508444  3
   1352   1351   1354   1356     1  0.0000000  0.6508444  3
   1353   1351   1354   1360     1  0.0000000  0.6508444  3
   1353   1351   1354   1355     1  0.0000000  0.6508444  3
   1353   1351   1354   1356     1  0.0000000  0.6508444  3
   1354   1360   2078   2079     1  180.0000771  10.4600000  2
   1355   1354   1360   2078     1  180.0000771  0.0000000  2
   1355   1354   1360   1362     1  0.0000000  3.3472000  1
   1355   1354   1360   1362     1  0.0000000  0.0000000  2
   1355   1354   1360   1362     1  180.0000771  0.3347200  3
   1356   1354   1360   2078     1  180.0000771  0.0000000  2
   1356   1354   1360   1362     1  0.0000000  3.3472000  1
   1356   1354   1360   1362     1  0.0000000  0.0000000  2
   1356   1354   1360   1362     1  180.0000771  0.3347200  3
   1357   1361   2089   2090     1  180.0000771  10.4600000  2
   1358   1357   1361   1363     1  0.0000000  3.3472000  1
   1358   1357   1361   1363     1  0.0000000  0.0000000  2
   1358   1357   1361   1363     1  180.0000771  0.3347200  3
   1358   1357   1361   2089     1  180.0000771  0.0000000  2
   1359   1357   1361   1363     1  0.0000000  3.3472000  1
   1359   1357   1361   1363     1  0.0000000  0.0000000  2
   1359   1357   1361   1363     1  180.0000771  0.3347200  3
   1359   1357   1361   2089     1  180.0000771  0.0000000  2
   1360   2078   2069   2070     1  0.0000000  0.0000000  2
   1360   2078   2069   2071     1  0.0000000  0.0000000  2
   1361   2089   2080   2081     1  0.0000000  0.0000000  2
   1361   2089   2080   2082     1  0.0000000  0.0000000  2
   1362   1360   2078   2079     1  0.0000000  8.3680000  1
   1362   1360   2078   2079     1  180.0000771  10.4600000  2
   1363   1361   2089   2090     1  0.0000000  8.3680000  1
   1363   1361   2089   2090     1  180.0000771  10.4600000  2
   1366   1369   1389   1390     1  0.0000000  0.0000000  2
   1366   1372   1373   1374     1  0.0000000  1.2552000  3
   1366   1372   1373   1375     1  0.0000000  1.2552000  3
   1366   1372   1376   1377     1  0.0000000  1.2552000  3
   1366   1372   1376   1378     1  0.0000000  1.2552000  3
   1367   1366   1369   1389     1  0.0000000  0.6508444  3
   1367   1366   1369   1370     1  0.0000000  0.6508444  3
   1367   1366   1369   1371     1  0.0000000  0.6508444  3
   1367   1366   1372   1373     1  0.0000000  1.2552000  3
   1367   1366   1372   1376     1  0.0000000  1.2552000  3
   1368   1366   1369   1389     1  0.0000000  0.6508444  3
   1368   1366   1369   1370     1  0.0000000  0.6508444  3
   1368   1366   1369   1371     1  0.0000000  0.6508444  3
   1368   1366   1372   1373     1  0.0000000  1.2552000  3
   1368   1366   1372   1376     1  0.0000000  1.2552000  3
   1370   1369   1366   1372     1  0.0000000  0.6508444  3
   1370   1369   1389   1390     1  0.0000000  0.0000000  2
   1371   1369   1366   1372     1  0.0000000  0.6508444  3
   1371   1369   1389   1390     1  0.0000000  0.0000000  2
   1372   1373   1382   1383     1  0.0000000  0.6508444  3
   1372   1373   1382   1384     1  0.0000000  0.6508444  3
   1372   1376   1379   1380     1  0.0000000  0.6508444  3
   1372   1376   1379   1381     1  0.0000000  0.6508444  3
   1373   1372   1376   1377     1  0.0000000  1.2552000  3
   1373   1372   1376   1378     1  0.0000000  1.2552000  3
   1374   1373   1372   1376     1  0.0000000  1.2552000  3
   1374   1373   1382   1386     1  0.0000000  0.6508444  3
   1374   1373   1382   1383     1  0.0000000  0.6508444  3
   1374   1373   1382   1384     1  0.0000000  0.6508444  3
   1375   1373   1372   1376     1  0.0000000  1.2552000  3
   1375   1373   1382   1386     1  0.0000000  0.6508444  3
   1375   1373   1382   1383     1  0.0000000  0.6508444  3
   1375   1373   1382   1384     1  0.0000000  0.6508444  3
   1377   1376   1379   1385     1  0.0000000  0.6508444  3
   1377   1376   1379   1380     1  0.0000000  0.6508444  3
   1377   1376   1379   1381     1  0.0000000  0.6508444  3
   1378   1376   1379   1385     1  0.0000000  0.6508444  3
   1378   1376   1379   1380     1  0.0000000  0.6508444  3
   1378   1376   1379   1381     1  0.0000000  0.6508444  3
   1379   1385   2100   2101     1  180.0000771  10.4600000  2
   1380   1379   1385   2100     1  180.0000771  0.0000000  2
   1380   1379   1385   1387     1  0.0000000  3.3472000  1
   1380   1379   1385   1387     1  0.0000000  0.0000000  2
   1380   1379   1385   1387     1  180.0000771  0.3347200  3
   1381   1379   1385   2100     1  180.0000771  0.0000000  2
   1381   1379   1385   1387     1  0.0000000  3.3472000  1
   1381   1379   1385   1387     1  0.0000000  0.0000000  2
   1381   1379   1385   1387     1  180.0000771  0.3347200  3
   1382   1386   2111   2112     1  180.0000771  10.4600000  2
   1383   1382   1386   1388     1  0.0000000  3.3472000  1
   1383   1382   1386   1388     1  0.0000000  0.0000000  2
   1383   1382   1386   1388     1  180.0000771  0.3347200  3
   1383   1382   1386   2111     1  180.0000771  0.0000000  2
   1384   1382   1386   1388     1  0.0000000  3.3472000  1
   1384   1382   1386   1388     1  0.0000000  0.0000000  2
   1384   1382   1386   1388     1  180.0000771  0.3347200  3
   1384   1382   1386   2111     1  180.0000771  0.0000000  2
   1385   2100   2091   2092     1  0.0000000  0.0000000  2
   1385   2100   2091   2093     1  0.0000000  0.0000000  2
   1386   2111   2102   2103     1  0.0000000  0.0000000  2
   1386   2111   2102   2104     1  0.0000000  0.0000000  2
   1387   1385   2100   2101     1  0.0000000  8.3680000  1
   1387   1385   2100   2101     1  180.0000771  10.4600000  2
   1388   1386   2111   2112     1  0.0000000  8.3680000  1
   1388   1386   2111   2112     1  180.0000771  10.4600000  2
   1391   1394   1414   1415     1  0.0000000  0.0000000  2
   1391   1397   1398   1399     1  0.0000000  1.2552000  3
   1391   1397   1398   1400     1  0.0000000  1.2552000  3
   1391   1397   1401   1402     1  0.0000000  1.2552000  3
   1391   1397   1401   1403     1  0.0000000  1.2552000  3
   1392   1391   1394   1414     1  0.0000000  0.6508444  3
   1392   1391   1394   1395     1  0.0000000  0.6508444  3
   1392   1391   1394   1396     1  0.0000000  0.6508444  3
   1392   1391   1397   1398     1  0.0000000  1.2552000  3
   1392   1391   1397   1401     1  0.0000000  1.2552000  3
   1393   1391   1394   1414     1  0.0000000  0.6508444  3
   1393   1391   1394   1395     1  0.0000000  0.6508444  3
   1393   1391   1394   1396     1  0.0000000  0.6508444  3
   1393   1391   1397   1398     1  0.0000000  1.2552000  3
   1393   1391   1397   1401     1  0.0000000  1.2552000  3
   1395   1394   1391   1397     1  0.0000000  0.6508444  3
   1395   1394   1414   1415     1  0.0000000  0.0000000  2
   1396   1394   1391   1397     1  0.0000000  0.6508444  3
   1396   1394   1414   1415     1  0.0000000  0.0000000  2
   1397   1398   1407   1408     1  0.0000000  0.6508444  3
   1397   1398   1407   1409     1  0.0000000  0.6508444  3
   1397   1401   1404   1405     1  0.0000000  0.6508444  3
   1397   1401   1404   1406     1  0.0000000  0.6508444  3
   1398   1397   1401   1402     1  0.0000000  1.2552000  3
   1398   1397   1401   1403     1  0.0000000  1.2552000  3
   1399   1398   1397   1401     1  0.0000000  1.2552000  3
   1399   1398   1407   1411     1  0.0000000  0.6508444  3
   1399   1398   1407   1408     1  0.0000000  0.6508444  3
   1399   1398   1407   1409     1  0.0000000  0.6508444  3
   1400   1398   1397   1401     1  0.0000000  1.2552000  3
   1400   1398   1407   1411     1  0.0000000  0.6508444  3
   1400   1398   1407   1408     1  0.0000000  0.6508444  3
   1400   1398   1407   1409     1  0.0000000  0.6508444  3
   1402   1401   1404   1410     1  0.0000000  0.6508444  3
   1402   1401   1404   1405     1  0.0000000  0.6508444  3
   1402   1401   1404   1406     1  0.0000000  0.6508444  3
   1403   1401   1404   1410     1  0.0000000  0.6508444  3
   1403   1401   1404   1405     1  0.0000000  0.6508444  3
   1403   1401   1404   1406     1  0.0000000  0.6508444  3
   1404   1410   2122   2123     1  180.0000771  10.4600000  2
   1405   1404   1410   2122     1  180.0000771  0.0000000  2
   1405   1404   1410   1412     1  0.0000000  3.3472000  1
   1405   1404   1410   1412     1  0.0000000  0.0000000  2
   1405   1404   1410   1412     1  180.0000771  0.3347200  3
   1406   1404   1410   2122     1  180.0000771  0.0000000  2
   1406   1404   1410   1412     1  0.0000000  3.3472000  1
   1406   1404   1410   1412     1  0.0000000  0.0000000  2
   1406   1404   1410   1412     1  180.0000771  0.3347200  3
   1407   1411   2133   2134     1  180.0000771  10.4600000  2
   1408   1407   1411   1413     1  0.0000000  3.3472000  1
   1408   1407   1411   1413     1  0.0000000  0.0000000  2
   1408   1407   1411   1413     1  180.0000771  0.3347200  3
   1408   1407   1411   2133     1  180.0000771  0.0000000  2
   1409   1407   1411   1413     1  0.0000000  3.3472000  1
   1409   1407   1411   1413     1  0.0000000  0.0000000  2
   1409   1407   1411   1413     1  180.0000771  0.3347200  3
   1409   1407   1411   2133     1  180.0000771  0.0000000  2
   1410   2122   2113   2114     1  0.0000000  0.0000000  2
   1410   2122   2113   2115     1  0.0000000  0.0000000  2
   1411   2133   2124   2125     1  0.0000000  0.0000000  2
   1411   2133   2124   2126     1  0.0000000  0.0000000  2
   1412   1410   2122   2123     1  0.0000000  8.3680000  1
   1412   1410   2122   2123     1  180.0000771  10.4600000  2
   1413   1411   2133   2134     1  0.0000000  8.3680000  1
   1413   1411   2133   2134     1  180.0000771  10.4600000  2
   1416   1419   1439   1440     1  0.0000000  0.0000000  2
   1416   1422   1423   1424     1  0.0000000  1.2552000  3
   1416   1422   1423   1425     1  0.0000000  1.2552000  3
   1416   1422   1426   1427     1  0.0000000  1.2552000  3
   1416   1422   1426   1428     1  0.0000000  1.2552000  3
   1417   1416   1419   1439     1  0.0000000  0.6508444  3
   1417   1416   1419   1420     1  0.0000000  0.6508444  3
   1417   1416   1419   1421     1  0.0000000  0.6508444  3
   1417   1416   1422   1423     1  0.0000000  1.2552000  3
   1417   1416   1422   1426     1  0.0000000  1.2552000  3
   1418   1416   1419   1439     1  0.0000000  0.6508444  3
   1418   1416   1419   1420     1  0.0000000  0.6508444  3
   1418   1416   1419   1421     1  0.0000000  0.6508444  3
   1418   1416   1422   1423     1  0.0000000  1.2552000  3
   1418   1416   1422   1426     1  0.0000000  1.2552000  3
   1420   1419   1416   1422     1  0.0000000  0.6508444  3
   1420   1419   1439   1440     1  0.0000000  0.0000000  2
   1421   1419   1416   1422     1  0.0000000  0.6508444  3
   1421   1419   1439   1440     1  0.0000000  0.0000000  2
   1422   1423   1432   1433     1  0.0000000  0.6508444  3
   1422   1423   1432   1434     1  0.0000000  0.6508444  3
   1422   1426   1429   1430     1  0.0000000  0.6508444  3
   1422   1426   1429   1431     1  0.0000000  0.6508444  3
   1423   1422   1426   1427     1  0.0000000  1.2552000  3
   1423   1422   1426   1428     1  0.0000000  1.2552000  3
   1424   1423   1422   1426     1  0.0000000  1.2552000  3
   1424   1423   1432   1436     1  0.0000000  0.6508444  3
   1424   1423   1432   1433     1  0.0000000  0.6508444  3
   1424   1423   1432   1434     1  0.0000000  0.6508444  3
   1425   1423   1422   1426     1  0.0000000  1.2552000  3
   1425   1423   1432   1436     1  0.0000000  0.6508444  3
   1425   1423   1432   1433     1  0.0000000  0.6508444  3
   1425   1423   1432   1434     1  0.0000000  0.6508444  3
   1427   1426   1429   1435     1  0.0000000  0.6508444  3
   1427   1426   1429   1430     1  0.0000000  0.6508444  3
   1427   1426   1429   1431     1  0.0000000  0.6508444  3
   1428   1426   1429   1435     1  0.0000000  0.6508444  3
   1428   1426   1429   1430     1  0.0000000  0.6508444  3
   1428   1426   1429   1431     1  0.0000000  0.6508444  3
   1429   1435   2144   2145     1  180.0000771  10.4600000  2
   1430   1429   1435   2144     1  180.0000771  0.0000000  2
   1430   1429   1435   1437     1  0.0000000  3.3472000  1
   1430   1429   1435   1437     1  0.0000000  0.0000000  2
   1430   1429   1435   1437     1  180.0000771  0.3347200  3
   1431   1429   1435   2144     1  180.0000771  0.0000000  2
   1431   1429   1435   1437     1  0.0000000  3.3472000  1
   1431   1429   1435   1437     1  0.0000000  0.0000000  2
   1431   1429   1435   1437     1  180.0000771  0.3347200  3
   1432   1436   2155   2156     1  180.0000771  10.4600000  2
   1433   1432   1436   1438     1  0.0000000  3.3472000  1
   1433   1432   1436   1438     1  0.0000000  0.0000000  2
   1433   1432   1436   1438     1  180.0000771  0.3347200  3
   1433   1432   1436   2155     1  180.0000771  0.0000000  2
   1434   1432   1436   1438     1  0.0000000  3.3472000  1
   1434   1432   1436   1438     1  0.0000000  0.0000000  2
   1434   1432   1436   1438     1  180.0000771  0.3347200  3
   1434   1432   1436   2155     1  180.0000771  0.0000000  2
   1435   2144   2135   2136     1  0.0000000  0.0000000  2
   1435   2144   2135   2137     1  0.0000000  0.0000000  2
   1436   2155   2146   2147     1  0.0000000  0.0000000  2
   1436   2155   2146   2148     1  0.0000000  0.0000000  2
   1437   1435   2144   2145     1  0.0000000  8.3680000  1
   1437   1435   2144   2145     1  180.0000771  10.4600000  2
   1438   1436   2155   2156     1  0.0000000  8.3680000  1
   1438   1436   2155   2156     1  180.0000771  10.4600000  2
   1441   1444   1464   1465     1  0.0000000  0.0000000  2
   1441   1447   1448   1449     1  0.0000000  1.2552000  3
   1441   1447   1448   1450     1  0.0000000  1.2552000  3
   1441   1447   1451   1452     1  0.0000000  1.2552000  3
   1441   1447   1451   1453     1  0.0000000  1.2552000  3
   1442   1441   1444   1464     1  0.0000000  0.6508444  3
   1442   1441   1444   1445     1  0.0000000  0.6508444  3
   1442   1441   1444   1446     1  0.0000000  0.6508444  3
   1442   1441   1447   1448     1  0.0000000  1.2552000  3
   1442   1441   1447   1451     1  0.0000000  1.2552000  3
   1443   1441   1444   1464     1  0.0000000  0.6508444  3
   1443   1441   1444   1445     1  0.0000000  0.6508444  3
   1443   1441   1444   1446     1  0.0000000  0.6508444  3
   1443   1441   1447   1448     1  0.0000000  1.2552000  3
   1443   1441   1447   1451     1  0.0000000  1.2552000  3
   1445   1444   1441   1447     1  0.0000000  0.6508444  3
   1445   1444   1464   1465     1  0.0000000  0.0000000  2
   1446   1444   1441   1447     1  0.0000000  0.6508444  3
   1446   1444   1464   1465     1  0.0000000  0.0000000  2
   1447   1448   1457   1458     1  0.0000000  0.6508444  3
   1447   1448   1457   1459     1  0.0000000  0.6508444  3
   1447   1451   1454   1455     1  0.0000000  0.6508444  3
   1447   1451   1454   1456     1  0.0000000  0.6508444  3
   1448   1447   1451   1452     1  0.0000000  1.2552000  3
   1448   1447   1451   1453     1  0.0000000  1.2552000  3
   1449   1448   1447   1451     1  0.0000000  1.2552000  3
   1449   1448   1457   1461     1  0.0000000  0.6508444  3
   1449   1448   1457   1458     1  0.0000000  0.6508444  3
   1449   1448   1457   1459     1  0.0000000  0.6508444  3
   1450   1448   1447   1451     1  0.0000000  1.2552000  3
   1450   1448   1457   1461     1  0.0000000  0.6508444  3
   1450   1448   1457   1458     1  0.0000000  0.6508444  3
   1450   1448   1457   1459     1  0.0000000  0.6508444  3
   1452   1451   1454   1460     1  0.0000000  0.6508444  3
   1452   1451   1454   1455     1  0.0000000  0.6508444  3
   1452   1451   1454   1456     1  0.0000000  0.6508444  3
   1453   1451   1454   1460     1  0.0000000  0.6508444  3
   1453   1451   1454   1455     1  0.0000000  0.6508444  3
   1453   1451   1454   1456     1  0.0000000  0.6508444  3
   1454   1460   2166   2167     1  180.0000771  10.4600000  2
   1455   1454   1460   2166     1  180.0000771  0.0000000  2
   1455   1454   1460   1462     1  0.0000000  3.3472000  1
   1455   1454   1460   1462     1  0.0000000  0.0000000  2
   1455   1454   1460   1462     1  180.0000771  0.3347200  3
   1456   1454   1460   2166     1  180.0000771  0.0000000  2
   1456   1454   1460   1462     1  0.0000000  3.3472000  1
   1456   1454   1460   1462     1  0.0000000  0.0000000  2
   1456   1454   1460   1462     1  180.0000771  0.3347200  3
   1457   1461   2177   2178     1  180.0000771  10.4600000  2
   1458   1457   1461   1463     1  0.0000000  3.3472000  1
   1458   1457   1461   1463     1  0.0000000  0.0000000  2
   1458   1457   1461   1463     1  180.0000771  0.3347200  3
   1458   1457   1461   2177     1  180.0000771  0.0000000  2
   1459   1457   1461   1463     1  0.0000000  3.3472000  1
   1459   1457   1461   1463     1  0.0000000  0.0000000  2
   1459   1457   1461   1463     1  180.0000771  0.3347200  3
   1459   1457   1461   2177     1  180.0000771  0.0000000  2
   1460   2166   2157   2158     1  0.0000000  0.0000000  2
   1460   2166   2157   2159     1  0.0000000  0.0000000  2
   1461   2177   2168   2169     1  0.0000000  0.0000000  2
   1461   2177   2168   2170     1  0.0000000  0.0000000  2
   1462   1460   2166   2167     1  0.0000000  8.3680000  1
   1462   1460   2166   2167     1  180.0000771  10.4600000  2
   1463   1461   2177   2178     1  0.0000000  8.3680000  1
   1463   1461   2177   2178     1  180.0000771  10.4600000  2
   1466   1469   1489   1490     1  0.0000000  0.0000000  2
   1466   1472   1473   1474     1  0.0000000  1.2552000  3
   1466   1472   1473   1475     1  0.0000000  1.2552000  3
   1466   1472   1476   1477     1  0.0000000  1.2552000  3
   1466   1472   1476   1478     1  0.0000000  1.2552000  3
   1467   1466   1469   1489     1  0.0000000  0.6508444  3
   1467   1466   1469   1470     1  0.0000000  0.6508444  3
   1467   1466   1469   1471     1  0.0000000  0.6508444  3
   1467   1466   1472   1473     1  0.0000000  1.2552000  3
   1467   1466   1472   1476     1  0.0000000  1.2552000  3
   1468   1466   1469   1489     1  0.0000000  0.6508444  3
   1468   1466   1469   1470     1  0.0000000  0.6508444  3
   1468   1466   1469   1471     1  0.0000000  0.6508444  3
   1468   1466   1472   1473     1  0.0000000  1.2552000  3
   1468   1466   1472   1476     1  0.0000000  1.2552000  3
   1470   1469   1466   1472     1  0.0000000  0.6508444  3
   1470   1469   1489   1490     1  0.0000000  0.0000000  2
   1471   1469   1466   1472     1  0.0000000  0.6508444  3
   1471   1469   1489   1490     1  0.0000000  0.0000000  2
   1472   1473   1482   1483     1  0.0000000  0.6508444  3
   1472   1473   1482   1484     1  0.0000000  0.6508444  3
   1472   1476   1479   1480     1  0.0000000  0.6508444  3
   1472   1476   1479   1481     1  0.0000000  0.6508444  3
   1473   1472   1476   1477     1  0.0000000  1.2552000  3
   1473   1472   1476   1478     1  0.0000000  1.2552000  3
   1474   1473   1472   1476     1  0.0000000  1.2552000  3
   1474   1473   1482   1486     1  0.0000000  0.6508444  3
   1474   1473   1482   1483     1  0.0000000  0.6508444  3
   1474   1473   1482   1484     1  0.0000000  0.6508444  3
   1475   1473   1472   1476     1  0.0000000  1.2552000  3
   1475   1473   1482   1486     1  0.0000000  0.6508444  3
   1475   1473   1482   1483     1  0.0000000  0.6508444  3
   1475   1473   1482   1484     1  0.0000000  0.6508444  3
   1477   1476   1479   1485     1  0.0000000  0.6508444  3
   1477   1476   1479   1480     1  0.0000000  0.6508444  3
   1477   1476   1479   1481     1  0.0000000  0.6508444  3
   1478   1476   1479   1485     1  0.0000000  0.6508444  3
   1478   1476   1479   1480     1  0.0000000  0.6508444  3
   1478   1476   1479   1481     1  0.0000000  0.6508444  3
   1479   1485   2188   2189     1  180.0000771  10.4600000  2
   1480   1479   1485   2188     1  180.0000771  0.0000000  2
   1480   1479   1485   1487     1  0.0000000  3.3472000  1
   1480   1479   1485   1487     1  0.0000000  0.0000000  2
   1480   1479   1485   1487     1  180.0000771  0.3347200  3
   1481   1479   1485   2188     1  180.0000771  0.0000000  2
   1481   1479   1485   1487     1  0.0000000  3.3472000  1
   1481   1479   1485   1487     1  0.0000000  0.0000000  2
   1481   1479   1485   1487     1  180.0000771  0.3347200  3
   1482   1486   2199   2200     1  180.0000771  10.4600000  2
   1483   1482   1486   1488     1  0.0000000  3.3472000  1
   1483   1482   1486   1488     1  0.0000000  0.0000000  2
   1483   1482   1486   1488     1  180.0000771  0.3347200  3
   1483   1482   1486   2199     1  180.0000771  0.0000000  2
   1484   1482   1486   1488     1  0.0000000  3.3472000  1
   1484   1482   1486   1488     1  0.0000000  0.0000000  2
   1484   1482   1486   1488     1  180.0000771  0.3347200  3
   1484   1482   1486   2199     1  180.0000771  0.0000000  2
   1485   2188   2179   2180     1  0.0000000  0.0000000  2
   1485   2188   2179   2181     1  0.0000000  0.0000000  2
   1486   2199   2190   2191     1  0.0000000  0.0000000  2
   1486   2199   2190   2192     1  0.0000000  0.0000000  2
   1487   1485   2188   2189     1  0.0000000  8.3680000  1
   1487   1485   2188   2189     1  180.0000771  10.4600000  2
   1488   1486   2199   2200     1  0.0000000  8.3680000  1
   1488   1486   2199   2200     1  180.0000771  10.4600000  2
   1491   1494   1514   1515     1  0.0000000  0.0000000  2
   1491   1497   1498   1499     1  0.0000000  1.2552000  3
   1491   1497   1498   1500     1  0.0000000  1.2552000  3
   1491   1497   1501   1502     1  0.0000000  1.2552000  3
   1491   1497   1501   1503     1  0.0000000  1.2552000  3
   1492   1491   1494   1514     1  0.0000000  0.6508444  3
   1492   1491   1494   1495     1  0.0000000  0.6508444  3
   1492   1491   1494   1496     1  0.0000000  0.6508444  3
   1492   1491   1497   1498     1  0.0000000  1.2552000  3
   1492   1491   1497   1501     1  0.0000000  1.2552000  3
   1493   1491   1494   1514     1  0.0000000  0.6508444  3
   1493   1491   1494   1495     1  0.0000000  0.6508444  3
   1493   1491   1494   1496     1  0.0000000  0.6508444  3
   1493   1491   1497   1498     1  0.0000000  1.2552000  3
   1493   1491   1497   1501     1  0.0000000  1.2552000  3
   1495   1494   1491   1497     1  0.0000000  0.6508444  3
   1495   1494   1514   1515     1  0.0000000  0.0000000  2
   1496   1494   1491   1497     1  0.0000000  0.6508444  3
   1496   1494   1514   1515     1  0.0000000  0.0000000  2
   1497   1498   1507   1508     1  0.0000000  0.6508444  3
   1497   1498   1507   1509     1  0.0000000  0.6508444  3
   1497   1501   1504   1505     1  0.0000000  0.6508444  3
   1497   1501   1504   1506     1  0.0000000  0.6508444  3
   1498   1497   1501   1502     1  0.0000000  1.2552000  3
   1498   1497   1501   1503     1  0.0000000  1.2552000  3
   1499   1498   1497   1501     1  0.0000000  1.2552000  3
   1499   1498   1507   1511     1  0.0000000  0.6508444  3
   1499   1498   1507   1508     1  0.0000000  0.6508444  3
   1499   1498   1507   1509     1  0.0000000  0.6508444  3
   1500   1498   1497   1501     1  0.0000000  1.2552000  3
   1500   1498   1507   1511     1  0.0000000  0.6508444  3
   1500   1498   1507   1508     1  0.0000000  0.6508444  3
   1500   1498   1507   1509     1  0.0000000  0.6508444  3
   1502   1501   1504   1510     1  0.0000000  0.6508444  3
   1502   1501   1504   1505     1  0.0000000  0.6508444  3
   1502   1501   1504   1506     1  0.0000000  0.6508444  3
   1503   1501   1504   1510     1  0.0000000  0.6508444  3
   1503   1501   1504   1505     1  0.0000000  0.6508444  3
   1503   1501   1504   1506     1  0.0000000  0.6508444  3
   1504   1510   2210   2211     1  180.0000771  10.4600000  2
   1505   1504   1510   2210     1  180.0000771  0.0000000  2
   1505   1504   1510   1512     1  0.0000000  3.3472000  1
   1505   1504   1510   1512     1  0.0000000  0.0000000  2
   1505   1504   1510   1512     1  180.0000771  0.3347200  3
   1506   1504   1510   2210     1  180.0000771  0.0000000  2
   1506   1504   1510   1512     1  0.0000000  3.3472000  1
   1506   1504   1510   1512     1  0.0000000  0.0000000  2
   1506   1504   1510   1512     1  180.0000771  0.3347200  3
   1507   1511   2221   2222     1  180.0000771  10.4600000  2
   1508   1507   1511   1513     1  0.0000000  3.3472000  1
   1508   1507   1511   1513     1  0.0000000  0.0000000  2
   1508   1507   1511   1513     1  180.0000771  0.3347200  3
   1508   1507   1511   2221     1  180.0000771  0.0000000  2
   1509   1507   1511   1513     1  0.0000000  3.3472000  1
   1509   1507   1511   1513     1  0.0000000  0.0000000  2
   1509   1507   1511   1513     1  180.0000771  0.3347200  3
   1509   1507   1511   2221     1  180.0000771  0.0000000  2
   1510   2210   2201   2202     1  0.0000000  0.0000000  2
   1510   2210   2201   2203     1  0.0000000  0.0000000  2
   1511   2221   2212   2213     1  0.0000000  0.0000000  2
   1511   2221   2212   2214     1  0.0000000  0.0000000  2
   1512   1510   2210   2211     1  0.0000000  8.3680000  1
   1512   1510   2210   2211     1  180.0000771  10.4600000  2
   1513   1511   2221   2222     1  0.0000000  8.3680000  1
   1513   1511   2221   2222     1  180.0000771  10.4600000  2
   1516   1519   1539   1540     1  0.0000000  0.0000000  2
   1516   1522   1523   1524     1  0.0000000  1.2552000  3
   1516   1522   1523   1525     1  0.0000000  1.2552000  3
   1516   1522   1526   1527     1  0.0000000  1.2552000  3
   1516   1522   1526   1528     1  0.0000000  1.2552000  3
   1517   1516   1519   1539     1  0.0000000  0.6508444  3
   1517   1516   1519   1520     1  0.0000000  0.6508444  3
   1517   1516   1519   1521     1  0.0000000  0.6508444  3
   1517   1516   1522   1523     1  0.0000000  1.2552000  3
   1517   1516   1522   1526     1  0.0000000  1.2552000  3
   1518   1516   1519   1539     1  0.0000000  0.6508444  3
   1518   1516   1519   1520     1  0.0000000  0.6508444  3
   1518   1516   1519   1521     1  0.0000000  0.6508444  3
   1518   1516   1522   1523     1  0.0000000  1.2552000  3
   1518   1516   1522   1526     1  0.0000000  1.2552000  3
   1520   1519   1516   1522     1  0.0000000  0.6508444  3
   1520   1519   1539   1540     1  0.0000000  0.0000000  2
   1521   1519   1516   1522     1  0.0000000  0.6508444  3
   1521   1519   1539   1540     1  0.0000000  0.0000000  2
   1522   1523   1532   1533     1  0.0000000  0.6508444  3
   1522   1523   1532   1534     1  0.0000000  0.6508444  3
   1522   1526   1529   1530     1  0.0000000  0.6508444  3
   1522   1526   1529   1531     1  0.0000000  0.6508444  3
   1523   1522   1526   1527     1  0.0000000  1.2552000  3
   1523   1522   1526   1528     1  0.0000000  1.2552000  3
   1524   1523   1522   1526     1  0.0000000  1.2552000  3
   1524   1523   1532   1536     1  0.0000000  0.6508444  3
   1524   1523   1532   1533     1  0.0000000  0.6508444  3
   1524   1523   1532   1534     1  0.0000000  0.6508444  3
   1525   1523   1522   1526     1  0.0000000  1.2552000  3
   1525   1523   1532   1536     1  0.0000000  0.6508444  3
   1525   1523   1532   1533     1  0.0000000  0.6508444  3
   1525   1523   1532   1534     1  0.0000000  0.6508444  3
   1527   1526   1529   1535     1  0.0000000  0.6508444  3
   1527   1526   1529   1530     1  0.0000000  0.6508444  3
   1527   1526   1529   1531     1  0.0000000  0.6508444  3
   1528   1526   1529   1535     1  0.0000000  0.6508444  3
   1528   1526   1529   1530     1  0.0000000  0.6508444  3
   1528   1526   1529   1531     1  0.0000000  0.6508444  3
   1529   1535   2232   2233     1  180.0000771  10.4600000  2
   1530   1529   1535   2232     1  180.0000771  0.0000000  2
   1530   1529   1535   1537     1  0.0000000  3.3472000  1
   1530   1529   1535   1537     1  0.0000000  0.0000000  2
   1530   1529   1535   1537     1  180.0000771  0.3347200  3
   1531   1529   1535   2232     1  180.0000771  0.0000000  2
   1531   1529   1535   1537     1  0.0000000  3.3472000  1
   1531   1529   1535   1537     1  0.0000000  0.0000000  2
   1531   1529   1535   1537     1  180.0000771  0.3347200  3
   1532   1536   2243   2244     1  180.0000771  10.4600000  2
   1533   1532   1536   2243     1  180.0000771  0.0000000  2
   1533   1532   1536   1538     1  0.0000000  3.3472000  1
   1533   1532   1536   1538     1  0.0000000  0.0000000  2
   1533   1532   1536   1538     1  180.0000771  0.3347200  3
   1534   1532   1536   2243     1  180.0000771  0.0000000  2
   1534   1532   1536   1538     1  0.0000000  3.3472000  1
   1534   1532   1536   1538     1  0.0000000  0.0000000  2
   1534   1532   1536   1538     1  180.0000771  0.3347200  3
   1535   2232   2223   2224     1  0.0000000  0.0000000  2
   1535   2232   2223   2225     1  0.0000000  0.0000000  2
   1536   2243   2234   2235     1  0.0000000  0.0000000  2
   1536   2243   2234   2236     1  0.0000000  0.0000000  2
   1537   1535   2232   2233     1  0.0000000  8.3680000  1
   1537   1535   2232   2233     1  180.0000771  10.4600000  2
   1538   1536   2243   2244     1  0.0000000  8.3680000  1
   1538   1536   2243   2244     1  180.0000771  10.4600000  2
   1541   1544   1547   1548     1  0.0000000  1.2552000  3
   1541   1544   1547   1549     1  0.0000000  1.2552000  3
   1542   1541   1544   1547     1  0.0000000  0.6508444  3
   1542   1541   1544   1545     1  0.0000000  0.6508444  3
   1542   1541   1544   1546     1  0.0000000  0.6508444  3
   1542   1541   1550   1551     1  0.0000000  0.0000000  2
   1543   1541   1544   1547     1  0.0000000  0.6508444  3
   1543   1541   1544   1545     1  0.0000000  0.6508444  3
   1543   1541   1544   1546     1  0.0000000  0.6508444  3
   1543   1541   1550   1551     1  0.0000000  0.0000000  2
   1544   1541   1550   1551     1  0.0000000  0.0000000  2
   1545   1544   1541   1550     1  0.0000000  0.6508444  3
   1545   1544   1547   1548     1  0.0000000  1.2552000  3
   1545   1544   1547   1549     1  0.0000000  1.2552000  3
   1546   1544   1541   1550     1  0.0000000  0.6508444  3
   1546   1544   1547   1548     1  0.0000000  1.2552000  3
   1546   1544   1547   1549     1  0.0000000  1.2552000  3
   1552   1555   1558   1559     1  0.0000000  1.2552000  3
   1552   1555   1558   1560     1  0.0000000  1.2552000  3
   1553   1552   1555   1558     1  0.0000000  0.6508444  3
   1553   1552   1555   1556     1  0.0000000  0.6508444  3
   1553   1552   1555   1557     1  0.0000000  0.6508444  3
   1553   1552   1561   1562     1  0.0000000  0.0000000  2
   1554   1552   1555   1558     1  0.0000000  0.6508444  3
   1554   1552   1555   1556     1  0.0000000  0.6508444  3
   1554   1552   1555   1557     1  0.0000000  0.6508444  3
   1554   1552   1561   1562     1  0.0000000  0.0000000  2
   1555   1552   1561   1562     1  0.0000000  0.0000000  2
   1556   1555   1558   1559     1  0.0000000  1.2552000  3
   1556   1555   1558   1560     1  0.0000000  1.2552000  3
   1556   1555   1552   1561     1  0.0000000  0.6508444  3
   1557   1555   1558   1559     1  0.0000000  1.2552000  3
   1557   1555   1558   1560     1  0.0000000  1.2552000  3
   1557   1555   1552   1561     1  0.0000000  0.6508444  3
   1563   1566   1569   1570     1  0.0000000  1.2552000  3
   1563   1566   1569   1571     1  0.0000000  1.2552000  3
   1564   1563   1566   1569     1  0.0000000  0.6508444  3
   1564   1563   1566   1567     1  0.0000000  0.6508444  3
   1564   1563   1566   1568     1  0.0000000  0.6508444  3
   1564   1563   1572   1573     1  0.0000000  0.0000000  2
   1565   1563   1566   1569     1  0.0000000  0.6508444  3
   1565   1563   1566   1567     1  0.0000000  0.6508444  3
   1565   1563   1566   1568     1  0.0000000  0.6508444  3
   1565   1563   1572   1573     1  0.0000000  0.0000000  2
   1566   1563   1572   1573     1  0.0000000  0.0000000  2
   1567   1566   1563   1572     1  0.0000000  0.6508444  3
   1567   1566   1569   1570     1  0.0000000  1.2552000  3
   1567   1566   1569   1571     1  0.0000000  1.2552000  3
   1568   1566   1563   1572     1  0.0000000  0.6508444  3
   1568   1566   1569   1570     1  0.0000000  1.2552000  3
   1568   1566   1569   1571     1  0.0000000  1.2552000  3
   1574   1577   1580   1581     1  0.0000000  1.2552000  3
   1574   1577   1580   1582     1  0.0000000  1.2552000  3
   1575   1574   1577   1580     1  0.0000000  0.6508444  3
   1575   1574   1577   1578     1  0.0000000  0.6508444  3
   1575   1574   1577   1579     1  0.0000000  0.6508444  3
   1575   1574   1583   1584     1  0.0000000  0.0000000  2
   1576   1574   1577   1580     1  0.0000000  0.6508444  3
   1576   1574   1577   1578     1  0.0000000  0.6508444  3
   1576   1574   1577   1579     1  0.0000000  0.6508444  3
   1576   1574   1583   1584     1  0.0000000  0.0000000  2
   1577   1574   1583   1584     1  0.0000000  0.0000000  2
   1578   1577   1580   1581     1  0.0000000  1.2552000  3
   1578   1577   1580   1582     1  0.0000000  1.2552000  3
   1578   1577   1574   1583     1  0.0000000  0.6508444  3
   1579   1577   1580   1581     1  0.0000000  1.2552000  3
   1579   1577   1580   1582     1  0.0000000  1.2552000  3
   1579   1577   1574   1583     1  0.0000000  0.6508444  3
   1585   1588   1591   1592     1  0.0000000  1.2552000  3
   1585   1588   1591   1593     1  0.0000000  1.2552000  3
   1586   1585   1588   1591     1  0.0000000  0.6508444  3
   1586   1585   1588   1589     1  0.0000000  0.6508444  3
   1586   1585   1588   1590     1  0.0000000  0.6508444  3
   1586   1585   1594   1595     1  0.0000000  0.0000000  2
   1587   1585   1588   1591     1  0.0000000  0.6508444  3
   1587   1585   1588   1589     1  0.0000000  0.6508444  3
   1587   1585   1588   1590     1  0.0000000  0.6508444  3
   1587   1585   1594   1595     1  0.0000000  0.0000000  2
   1588   1585   1594   1595     1  0.0000000  0.0000000  2
   1589   1588   1585   1594     1  0.0000000  0.6508444  3
   1589   1588   1591   1592     1  0.0000000  1.2552000  3
   1589   1588   1591   1593     1  0.0000000  1.2552000  3
   1590   1588   1585   1594     1  0.0000000  0.6508444  3
   1590   1588   1591   1592     1  0.0000000  1.2552000  3
   1590   1588   1591   1593     1  0.0000000  1.2552000  3
   1596   1599   1602   1603     1  0.0000000  1.2552000  3
   1596   1599   1602   1604     1  0.0000000  1.2552000  3
   1597   1596   1599   1602     1  0.0000000  0.6508444  3
   1597   1596   1599   1600     1  0.0000000  0.6508444  3
   1597   1596   1599   1601     1  0.0000000  0.6508444  3
   1597   1596   1605   1606     1  0.0000000  0.0000000  2
   1598   1596   1599   1602     1  0.0000000  0.6508444  3
   1598   1596   1599   1600     1  0.0000000  0.6508444  3
   1598   1596   1599   1601     1  0.0000000  0.6508444  3
   1598   1596   1605   1606     1  0.0000000  0.0000000  2
   1599   1596   1605   1606     1  0.0000000  0.0000000  2
   1600   1599   1602   1603     1  0.0000000  1.2552000  3
   1600   1599   1602   1604     1  0.0000000  1.2552000  3
   1600   1599   1596   1605     1  0.0000000  0.6508444  3
   1601   1599   1602   1603     1  0.0000000  1.2552000  3
   1601   1599   1602   1604     1  0.0000000  1.2552000  3
   1601   1599   1596   1605     1  0.0000000  0.6508444  3
   1607   1610   1613   1614     1  0.0000000  1.2552000  3
   1607   1610   1613   1615     1  0.0000000  1.2552000  3
   1608   1607   1610   1613     1  0.0000000  0.6508444  3
   1608   1607   1610   1611     1  0.0000000  0.6508444  3
   1608   1607   1610   1612     1  0.0000000  0.6508444  3
   1608   1607   1616   1617     1  0.0000000  0.0000000  2
   1609   1607   1610   1613     1  0.0000000  0.6508444  3
   1609   1607   1610   1611     1  0.0000000  0.6508444  3
   1609   1607   1610   1612     1  0.0000000  0.6508444  3
   1609   1607   1616   1617     1  0.0000000  0.0000000  2
   1610   1607   1616   1617     1  0.0000000  0.0000000  2
   1611   1610   1607   1616     1  0.0000000  0.6508444  3
   1611   1610   1613   1614     1  0.0000000  1.2552000  3
   1611   1610   1613   1615     1  0.0000000  1.2552000  3
   1612   1610   1607   1616     1  0.0000000  0.6508444  3
   1612   1610   1613   1614     1  0.0000000  1.2552000  3
   1612   1610   1613   1615     1  0.0000000  1.2552000  3
   1618   1621   1624   1625     1  0.0000000  1.2552000  3
   1618   1621   1624   1626     1  0.0000000  1.2552000  3
   1619   1618   1621   1624     1  0.0000000  0.6508444  3
   1619   1618   1621   1622     1  0.0000000  0.6508444  3
   1619   1618   1621   1623     1  0.0000000  0.6508444  3
   1619   1618   1627   1628     1  0.0000000  0.0000000  2
   1620   1618   1621   1624     1  0.0000000  0.6508444  3
   1620   1618   1621   1622     1  0.0000000  0.6508444  3
   1620   1618   1621   1623     1  0.0000000  0.6508444  3
   1620   1618   1627   1628     1  0.0000000  0.0000000  2
   1621   1618   1627   1628     1  0.0000000  0.0000000  2
   1622   1621   1624   1625     1  0.0000000  1.2552000  3
   1622   1621   1624   1626     1  0.0000000  1.2552000  3
   1622   1621   1618   1627     1  0.0000000  0.6508444  3
   1623   1621   1624   1625     1  0.0000000  1.2552000  3
   1623   1621   1624   1626     1  0.0000000  1.2552000  3
   1623   1621   1618   1627     1  0.0000000  0.6508444  3
   1629   1632   1635   1636     1  0.0000000  1.2552000  3
   1629   1632   1635   1637     1  0.0000000  1.2552000  3
   1630   1629   1632   1635     1  0.0000000  0.6508444  3
   1630   1629   1632   1633     1  0.0000000  0.6508444  3
   1630   1629   1632   1634     1  0.0000000  0.6508444  3
   1630   1629   1638   1639     1  0.0000000  0.0000000  2
   1631   1629   1632   1635     1  0.0000000  0.6508444  3
   1631   1629   1632   1633     1  0.0000000  0.6508444  3
   1631   1629   1632   1634     1  0.0000000  0.6508444  3
   1631   1629   1638   1639     1  0.0000000  0.0000000  2
   1632   1629   1638   1639     1  0.0000000  0.0000000  2
   1633   1632   1629   1638     1  0.0000000  0.6508444  3
   1633   1632   1635   1636     1  0.0000000  1.2552000  3
   1633   1632   1635   1637     1  0.0000000  1.2552000  3
   1634   1632   1629   1638     1  0.0000000  0.6508444  3
   1634   1632   1635   1636     1  0.0000000  1.2552000  3
   1634   1632   1635   1637     1  0.0000000  1.2552000  3
   1640   1643   1646   1647     1  0.0000000  1.2552000  3
   1640   1643   1646   1648     1  0.0000000  1.2552000  3
   1641   1640   1643   1646     1  0.0000000  0.6508444  3
   1641   1640   1643   1644     1  0.0000000  0.6508444  3
   1641   1640   1643   1645     1  0.0000000  0.6508444  3
   1641   1640   1649   1650     1  0.0000000  0.0000000  2
   1642   1640   1643   1646     1  0.0000000  0.6508444  3
   1642   1640   1643   1644     1  0.0000000  0.6508444  3
   1642   1640   1643   1645     1  0.0000000  0.6508444  3
   1642   1640   1649   1650     1  0.0000000  0.0000000  2
   1643   1640   1649   1650     1  0.0000000  0.0000000  2
   1644   1643   1646   1647     1  0.0000000  1.2552000  3
   1644   1643   1646   1648     1  0.0000000  1.2552000  3
   1644   1643   1640   1649     1  0.0000000  0.6508444  3
   1645   1643   1646   1647     1  0.0000000  1.2552000  3
   1645   1643   1646   1648     1  0.0000000  1.2552000  3
   1645   1643   1640   1649     1  0.0000000  0.6508444  3
   1651   1654   1657   1658     1  0.0000000  1.2552000  3
   1651   1654   1657   1659     1  0.0000000  1.2552000  3
   1652   1651   1654   1657     1  0.0000000  0.6508444  3
   1652   1651   1654   1655     1  0.0000000  0.6508444  3
   1652   1651   1654   1656     1  0.0000000  0.6508444  3
   1652   1651   1660   1661     1  0.0000000  0.0000000  2
   1653   1651   1654   1657     1  0.0000000  0.6508444  3
   1653   1651   1654   1655     1  0.0000000  0.6508444  3
   1653   1651   1654   1656     1  0.0000000  0.6508444  3
   1653   1651   1660   1661     1  0.0000000  0.0000000  2
   1654   1651   1660   1661     1  0.0000000  0.0000000  2
   1655   1654   1651   1660     1  0.0000000  0.6508444  3
   1655   1654   1657   1658     1  0.0000000  1.2552000  3
   1655   1654   1657   1659     1  0.0000000  1.2552000  3
   1656   1654   1651   1660     1  0.0000000  0.6508444  3
   1656   1654   1657   1658     1  0.0000000  1.2552000  3
   1656   1654   1657   1659     1  0.0000000  1.2552000  3
   1662   1665   1668   1669     1  0.0000000  1.2552000  3
   1662   1665   1668   1670     1  0.0000000  1.2552000  3
   1663   1662   1665   1668     1  0.0000000  0.6508444  3
   1663   1662   1665   1666     1  0.0000000  0.6508444  3
   1663   1662   1665   1667     1  0.0000000  0.6508444  3
   1663   1662   1671   1672     1  0.0000000  0.0000000  2
   1664   1662   1665   1668     1  0.0000000  0.6508444  3
   1664   1662   1665   1666     1  0.0000000  0.6508444  3
   1664   1662   1665   1667     1  0.0000000  0.6508444  3
   1664   1662   1671   1672     1  0.0000000  0.0000000  2
   1665   1662   1671   1672     1  0.0000000  0.0000000  2
   1666   1665   1668   1669     1  0.0000000  1.2552000  3
   1666   1665   1668   1670     1  0.0000000  1.2552000  3
   1666   1665   1662   1671     1  0.0000000  0.6508444  3
   1667   1665   1668   1669     1  0.0000000  1.2552000  3
   1667   1665   1668   1670     1  0.0000000  1.2552000  3
   1667   1665   1662   1671     1  0.0000000  0.6508444  3
   1673   1676   1679   1680     1  0.0000000  1.2552000  3
   1673   1676   1679   1681     1  0.0000000  1.2552000  3
   1674   1673   1676   1679     1  0.0000000  0.6508444  3
   1674   1673   1676   1677     1  0.0000000  0.6508444  3
   1674   1673   1676   1678     1  0.0000000  0.6508444  3
   1674   1673   1682   1683     1  0.0000000  0.0000000  2
   1675   1673   1676   1679     1  0.0000000  0.6508444  3
   1675   1673   1676   1677     1  0.0000000  0.6508444  3
   1675   1673   1676   1678     1  0.0000000  0.6508444  3
   1675   1673   1682   1683     1  0.0000000  0.0000000  2
   1676   1673   1682   1683     1  0.0000000  0.0000000  2
   1677   1676   1673   1682     1  0.0000000  0.6508444  3
   1677   1676   1679   1680     1  0.0000000  1.2552000  3
   1677   1676   1679   1681     1  0.0000000  1.2552000  3
   1678   1676   1673   1682     1  0.0000000  0.6508444  3
   1678   1676   1679   1680     1  0.0000000  1.2552000  3
   1678   1676   1679   1681     1  0.0000000  1.2552000  3
   1684   1687   1690   1691     1  0.0000000  1.2552000  3
   1684   1687   1690   1692     1  0.0000000  1.2552000  3
   1685   1684   1687   1690     1  0.0000000  0.6508444  3
   1685   1684   1687   1688     1  0.0000000  0.6508444  3
   1685   1684   1687   1689     1  0.0000000  0.6508444  3
   1685   1684   1693   1694     1  0.0000000  0.0000000  2
   1686   1684   1687   1690     1  0.0000000  0.6508444  3
   1686   1684   1687   1688     1  0.0000000  0.6508444  3
   1686   1684   1687   1689     1  0.0000000  0.6508444  3
   1686   1684   1693   1694     1  0.0000000  0.0000000  2
   1687   1684   1693   1694     1  0.0000000  0.0000000  2
   1688   1687   1690   1691     1  0.0000000  1.2552000  3
   1688   1687   1690   1692     1  0.0000000  1.2552000  3
   1688   1687   1684   1693     1  0.0000000  0.6508444  3
   1689   1687   1690   1691     1  0.0000000  1.2552000  3
   1689   1687   1690   1692     1  0.0000000  1.2552000  3
   1689   1687   1684   1693     1  0.0000000  0.6508444  3
   1695   1698   1701   1702     1  0.0000000  1.2552000  3
   1695   1698   1701   1703     1  0.0000000  1.2552000  3
   1696   1695   1698   1701     1  0.0000000  0.6508444  3
   1696   1695   1698   1699     1  0.0000000  0.6508444  3
   1696   1695   1698   1700     1  0.0000000  0.6508444  3
   1696   1695   1704   1705     1  0.0000000  0.0000000  2
   1697   1695   1698   1701     1  0.0000000  0.6508444  3
   1697   1695   1698   1699     1  0.0000000  0.6508444  3
   1697   1695   1698   1700     1  0.0000000  0.6508444  3
   1697   1695   1704   1705     1  0.0000000  0.0000000  2
   1698   1695   1704   1705     1  0.0000000  0.0000000  2
   1699   1698   1695   1704     1  0.0000000  0.6508444  3
   1699   1698   1701   1702     1  0.0000000  1.2552000  3
   1699   1698   1701   1703     1  0.0000000  1.2552000  3
   1700   1698   1695   1704     1  0.0000000  0.6508444  3
   1700   1698   1701   1702     1  0.0000000  1.2552000  3
   1700   1698   1701   1703     1  0.0000000  1.2552000  3
   1706   1709   1712   1713     1  0.0000000  1.2552000  3
   1706   1709   1712   1714     1  0.0000000  1.2552000  3
   1707   1706   1709   1712     1  0.0000000  0.6508444  3
   1707   1706   1709   1710     1  0.0000000  0.6508444  3
   1707   1706   1709   1711     1  0.0000000  0.6508444  3
   1707   1706   1715   1716     1  0.0000000  0.0000000  2
   1708   1706   1709   1712     1  0.0000000  0.6508444  3
   1708   1706   1709   1710     1  0.0000000  0.6508444  3
   1708   1706   1709   1711     1  0.0000000  0.6508444  3
   1708   1706   1715   1716     1  0.0000000  0.0000000  2
   1709   1706   1715   1716     1  0.0000000  0.0000000  2
   1710   1709   1712   1713     1  0.0000000  1.2552000  3
   1710   1709   1712   1714     1  0.0000000  1.2552000  3
   1710   1709   1706   1715     1  0.0000000  0.6508444  3
   1711   1709   1712   1713     1  0.0000000  1.2552000  3
   1711   1709   1712   1714     1  0.0000000  1.2552000  3
   1711   1709   1706   1715     1  0.0000000  0.6508444  3
   1717   1720   1723   1724     1  0.0000000  1.2552000  3
   1717   1720   1723   1725     1  0.0000000  1.2552000  3
   1718   1717   1720   1723     1  0.0000000  0.6508444  3
   1718   1717   1720   1721     1  0.0000000  0.6508444  3
   1718   1717   1720   1722     1  0.0000000  0.6508444  3
   1718   1717   1726   1727     1  0.0000000  0.0000000  2
   1719   1717   1720   1723     1  0.0000000  0.6508444  3
   1719   1717   1720   1721     1  0.0000000  0.6508444  3
   1719   1717   1720   1722     1  0.0000000  0.6508444  3
   1719   1717   1726   1727     1  0.0000000  0.0000000  2
   1720   1717   1726   1727     1  0.0000000  0.0000000  2
   1721   1720   1717   1726     1  0.0000000  0.6508444  3
   1721   1720   1723   1724     1  0.0000000  1.2552000  3
   1721   1720   1723   1725     1  0.0000000  1.2552000  3
   1722   1720   1717   1726     1  0.0000000  0.6508444  3
   1722   1720   1723   1724     1  0.0000000  1.2552000  3
   1722   1720   1723   1725     1  0.0000000  1.2552000  3
   1728   1731   1734   1735     1  0.0000000  1.2552000  3
   1728   1731   1734   1736     1  0.0000000  1.2552000  3
   1729   1728   1731   1734     1  0.0000000  0.6508444  3
   1729   1728   1731   1732     1  0.0000000  0.6508444  3
   1729   1728   1731   1733     1  0.0000000  0.6508444  3
   1729   1728   1737   1738     1  0.0000000  0.0000000  2
   1730   1728   1731   1734     1  0.0000000  0.6508444  3
   1730   1728   1731   1732     1  0.0000000  0.6508444  3
   1730   1728   1731   1733     1  0.0000000  0.6508444  3
   1730   1728   1737   1738     1  0.0000000  0.0000000  2
   1731   1728   1737   1738     1  0.0000000  0.0000000  2
   1732   1731   1734   1735     1  0.0000000  1.2552000  3
   1732   1731   1734   1736     1  0.0000000  1.2552000  3
   1732   1731   1728   1737     1  0.0000000  0.6508444  3
   1733   1731   1734   1735     1  0.0000000  1.2552000  3
   1733   1731   1734   1736     1  0.0000000  1.2552000  3
   1733   1731   1728   1737     1  0.0000000  0.6508444  3
   1739   1742   1745   1746     1  0.0000000  1.2552000  3
   1739   1742   1745   1747     1  0.0000000  1.2552000  3
   1740   1739   1742   1745     1  0.0000000  0.6508444  3
   1740   1739   1742   1743     1  0.0000000  0.6508444  3
   1740   1739   1742   1744     1  0.0000000  0.6508444  3
   1740   1739   1748   1749     1  0.0000000  0.0000000  2
   1741   1739   1742   1745     1  0.0000000  0.6508444  3
   1741   1739   1742   1743     1  0.0000000  0.6508444  3
   1741   1739   1742   1744     1  0.0000000  0.6508444  3
   1741   1739   1748   1749     1  0.0000000  0.0000000  2
   1742   1739   1748   1749     1  0.0000000  0.0000000  2
   1743   1742   1739   1748     1  0.0000000  0.6508444  3
   1743   1742   1745   1746     1  0.0000000  1.2552000  3
   1743   1742   1745   1747     1  0.0000000  1.2552000  3
   1744   1742   1739   1748     1  0.0000000  0.6508444  3
   1744   1742   1745   1746     1  0.0000000  1.2552000  3
   1744   1742   1745   1747     1  0.0000000  1.2552000  3
   1750   1753   1756   1757     1  0.0000000  1.2552000  3
   1750   1753   1756   1758     1  0.0000000  1.2552000  3
   1751   1750   1753   1756     1  0.0000000  0.6508444  3
   1751   1750   1753   1754     1  0.0000000  0.6508444  3
   1751   1750   1753   1755     1  0.0000000  0.6508444  3
   1751   1750   1759   1760     1  0.0000000  0.0000000  2
   1752   1750   1753   1756     1  0.0000000  0.6508444  3
   1752   1750   1753   1754     1  0.0000000  0.6508444  3
   1752   1750   1753   1755     1  0.0000000  0.6508444  3
   1752   1750   1759   1760     1  0.0000000  0.0000000  2
   1753   1750   1759   1760     1  0.0000000  0.0000000  2
   1754   1753   1756   1757     1  0.0000000  1.2552000  3
   1754   1753   1756   1758     1  0.0000000  1.2552000  3
   1754   1753   1750   1759     1  0.0000000  0.6508444  3
   1755   1753   1756   1757     1  0.0000000  1.2552000  3
   1755   1753   1756   1758     1  0.0000000  1.2552000  3
   1755   1753   1750   1759     1  0.0000000  0.6508444  3
   1761   1764   1767   1768     1  0.0000000  1.2552000  3
   1761   1764   1767   1769     1  0.0000000  1.2552000  3
   1762   1761   1764   1767     1  0.0000000  0.6508444  3
   1762   1761   1764   1765     1  0.0000000  0.6508444  3
   1762   1761   1764   1766     1  0.0000000  0.6508444  3
   1762   1761   1770   1771     1  0.0000000  0.0000000  2
   1763   1761   1764   1767     1  0.0000000  0.6508444  3
   1763   1761   1764   1765     1  0.0000000  0.6508444  3
   1763   1761   1764   1766     1  0.0000000  0.6508444  3
   1763   1761   1770   1771     1  0.0000000  0.0000000  2
   1764   1761   1770   1771     1  0.0000000  0.0000000  2
   1765   1764   1761   1770     1  0.0000000  0.6508444  3
   1765   1764   1767   1768     1  0.0000000  1.2552000  3
   1765   1764   1767   1769     1  0.0000000  1.2552000  3
   1766   1764   1761   1770     1  0.0000000  0.6508444  3
   1766   1764   1767   1768     1  0.0000000  1.2552000  3
   1766   1764   1767   1769     1  0.0000000  1.2552000  3
   1772   1775   1778   1779     1  0.0000000  1.2552000  3
   1772   1775   1778   1780     1  0.0000000  1.2552000  3
   1773   1772   1775   1778     1  0.0000000  0.6508444  3
   1773   1772   1775   1776     1  0.0000000  0.6508444  3
   1773   1772   1775   1777     1  0.0000000  0.6508444  3
   1773   1772   1781   1782     1  0.0000000  0.0000000  2
   1774   1772   1775   1778     1  0.0000000  0.6508444  3
   1774   1772   1775   1776     1  0.0000000  0.6508444  3
   1774   1772   1775   1777     1  0.0000000  0.6508444  3
   1774   1772   1781   1782     1  0.0000000  0.0000000  2
   1775   1772   1781   1782     1  0.0000000  0.0000000  2
   1776   1775   1778   1779     1  0.0000000  1.2552000  3
   1776   1775   1778   1780     1  0.0000000  1.2552000  3
   1776   1775   1772   1781     1  0.0000000  0.6508444  3
   1777   1775   1778   1779     1  0.0000000  1.2552000  3
   1777   1775   1778   1780     1  0.0000000  1.2552000  3
   1777   1775   1772   1781     1  0.0000000  0.6508444  3
   1783   1786   1789   1790     1  0.0000000  1.2552000  3
   1783   1786   1789   1791     1  0.0000000  1.2552000  3
   1784   1783   1786   1789     1  0.0000000  0.6508444  3
   1784   1783   1786   1787     1  0.0000000  0.6508444  3
   1784   1783   1786   1788     1  0.0000000  0.6508444  3
   1784   1783   1792   1793     1  0.0000000  0.0000000  2
   1785   1783   1786   1789     1  0.0000000  0.6508444  3
   1785   1783   1786   1787     1  0.0000000  0.6508444  3
   1785   1783   1786   1788     1  0.0000000  0.6508444  3
   1785   1783   1792   1793     1  0.0000000  0.0000000  2
   1786   1783   1792   1793     1  0.0000000  0.0000000  2
   1787   1786   1783   1792     1  0.0000000  0.6508444  3
   1787   1786   1789   1790     1  0.0000000  1.2552000  3
   1787   1786   1789   1791     1  0.0000000  1.2552000  3
   1788   1786   1783   1792     1  0.0000000  0.6508444  3
   1788   1786   1789   1790     1  0.0000000  1.2552000  3
   1788   1786   1789   1791     1  0.0000000  1.2552000  3
   1794   1797   1800   1801     1  0.0000000  1.2552000  3
   1794   1797   1800   1802     1  0.0000000  1.2552000  3
   1795   1794   1797   1800     1  0.0000000  0.6508444  3
   1795   1794   1797   1798     1  0.0000000  0.6508444  3
   1795   1794   1797   1799     1  0.0000000  0.6508444  3
   1795   1794   1803   1804     1  0.0000000  0.0000000  2
   1796   1794   1797   1800     1  0.0000000  0.6508444  3
   1796   1794   1797   1798     1  0.0000000  0.6508444  3
   1796   1794   1797   1799     1  0.0000000  0.6508444  3
   1796   1794   1803   1804     1  0.0000000  0.0000000  2
   1797   1794   1803   1804     1  0.0000000  0.0000000  2
   1798   1797   1800   1801     1  0.0000000  1.2552000  3
   1798   1797   1800   1802     1  0.0000000  1.2552000  3
   1798   1797   1794   1803     1  0.0000000  0.6508444  3
   1799   1797   1800   1801     1  0.0000000  1.2552000  3
   1799   1797   1800   1802     1  0.0000000  1.2552000  3
   1799   1797   1794   1803     1  0.0000000  0.6508444  3
   1805   1808   1811   1812     1  0.0000000  1.2552000  3
   1805   1808   1811   1813     1  0.0000000  1.2552000  3
   1806   1805   1808   1811     1  0.0000000  0.6508444  3
   1806   1805   1808   1809     1  0.0000000  0.6508444  3
   1806   1805   1808   1810     1  0.0000000  0.6508444  3
   1806   1805   1814   1815     1  0.0000000  0.0000000  2
   1807   1805   1808   1811     1  0.0000000  0.6508444  3
   1807   1805   1808   1809     1  0.0000000  0.6508444  3
   1807   1805   1808   1810     1  0.0000000  0.6508444  3
   1807   1805   1814   1815     1  0.0000000  0.0000000  2
   1808   1805   1814   1815     1  0.0000000  0.0000000  2
   1809   1808   1805   1814     1  0.0000000  0.6508444  3
   1809   1808   1811   1812     1  0.0000000  1.2552000  3
   1809   1808   1811   1813     1  0.0000000  1.2552000  3
   1810   1808   1805   1814     1  0.0000000  0.6508444  3
   1810   1808   1811   1812     1  0.0000000  1.2552000  3
   1810   1808   1811   1813     1  0.0000000  1.2552000  3
   1816   1819   1822   1823     1  0.0000000  1.2552000  3
   1816   1819   1822   1824     1  0.0000000  1.2552000  3
   1817   1816   1819   1822     1  0.0000000  0.6508444  3
   1817   1816   1819   1820     1  0.0000000  0.6508444  3
   1817   1816   1819   1821     1  0.0000000  0.6508444  3
   1817   1816   1825   1826     1  0.0000000  0.0000000  2
   1818   1816   1819   1822     1  0.0000000  0.6508444  3
   1818   1816   1819   1820     1  0.0000000  0.6508444  3
   1818   1816   1819   1821     1  0.0000000  0.6508444  3
   1818   1816   1825   1826     1  0.0000000  0.0000000  2
   1819   1816   1825   1826     1  0.0000000  0.0000000  2
   1820   1819   1822   1823     1  0.0000000  1.2552000  3
   1820   1819   1822   1824     1  0.0000000  1.2552000  3
   1820   1819   1816   1825     1  0.0000000  0.6508444  3
   1821   1819   1822   1823     1  0.0000000  1.2552000  3
   1821   1819   1822   1824     1  0.0000000  1.2552000  3
   1821   1819   1816   1825     1  0.0000000  0.6508444  3
   1827   1830   1833   1834     1  0.0000000  1.2552000  3
   1827   1830   1833   1835     1  0.0000000  1.2552000  3
   1828   1827   1830   1833     1  0.0000000  0.6508444  3
   1828   1827   1830   1831     1  0.0000000  0.6508444  3
   1828   1827   1830   1832     1  0.0000000  0.6508444  3
   1828   1827   1836   1837     1  0.0000000  0.0000000  2
   1829   1827   1830   1833     1  0.0000000  0.6508444  3
   1829   1827   1830   1831     1  0.0000000  0.6508444  3
   1829   1827   1830   1832     1  0.0000000  0.6508444  3
   1829   1827   1836   1837     1  0.0000000  0.0000000  2
   1830   1827   1836   1837     1  0.0000000  0.0000000  2
   1831   1830   1827   1836     1  0.0000000  0.6508444  3
   1831   1830   1833   1834     1  0.0000000  1.2552000  3
   1831   1830   1833   1835     1  0.0000000  1.2552000  3
   1832   1830   1827   1836     1  0.0000000  0.6508444  3
   1832   1830   1833   1834     1  0.0000000  1.2552000  3
   1832   1830   1833   1835     1  0.0000000  1.2552000  3
   1838   1841   1844   1845     1  0.0000000  1.2552000  3
   1838   1841   1844   1846     1  0.0000000  1.2552000  3
   1839   1838   1841   1844     1  0.0000000  0.6508444  3
   1839   1838   1841   1842     1  0.0000000  0.6508444  3
   1839   1838   1841   1843     1  0.0000000  0.6508444  3
   1839   1838   1847   1848     1  0.0000000  0.0000000  2
   1840   1838   1841   1844     1  0.0000000  0.6508444  3
   1840   1838   1841   1842     1  0.0000000  0.6508444  3
   1840   1838   1841   1843     1  0.0000000  0.6508444  3
   1840   1838   1847   1848     1  0.0000000  0.0000000  2
   1841   1838   1847   1848     1  0.0000000  0.0000000  2
   1842   1841   1844   1845     1  0.0000000  1.2552000  3
   1842   1841   1844   1846     1  0.0000000  1.2552000  3
   1842   1841   1838   1847     1  0.0000000  0.6508444  3
   1843   1841   1844   1845     1  0.0000000  1.2552000  3
   1843   1841   1844   1846     1  0.0000000  1.2552000  3
   1843   1841   1838   1847     1  0.0000000  0.6508444  3
   1849   1852   1855   1856     1  0.0000000  1.2552000  3
   1849   1852   1855   1857     1  0.0000000  1.2552000  3
   1850   1849   1852   1855     1  0.0000000  0.6508444  3
   1850   1849   1852   1853     1  0.0000000  0.6508444  3
   1850   1849   1852   1854     1  0.0000000  0.6508444  3
   1850   1849   1858   1859     1  0.0000000  0.0000000  2
   1851   1849   1852   1855     1  0.0000000  0.6508444  3
   1851   1849   1852   1853     1  0.0000000  0.6508444  3
   1851   1849   1852   1854     1  0.0000000  0.6508444  3
   1851   1849   1858   1859     1  0.0000000  0.0000000  2
   1852   1849   1858   1859     1  0.0000000  0.0000000  2
   1853   1852   1849   1858     1  0.0000000  0.6508444  3
   1853   1852   1855   1856     1  0.0000000  1.2552000  3
   1853   1852   1855   1857     1  0.0000000  1.2552000  3
   1854   1852   1849   1858     1  0.0000000  0.6508444  3
   1854   1852   1855   1856     1  0.0000000  1.2552000  3
   1854   1852   1855   1857     1  0.0000000  1.2552000  3
   1860   1863   1866   1867     1  0.0000000  1.2552000  3
   1860   1863   1866   1868     1  0.0000000  1.2552000  3
   1861   1860   1863   1866     1  0.0000000  0.6508444  3
   1861   1860   1863   1864     1  0.0000000  0.6508444  3
   1861   1860   1863   1865     1  0.0000000  0.6508444  3
   1861   1860   1869   1870     1  0.0000000  0.0000000  2
   1862   1860   1863   1866     1  0.0000000  0.6508444  3
   1862   1860   1863   1864     1  0.0000000  0.6508444  3
   1862   1860   1863   1865     1  0.0000000  0.6508444  3
   1862   1860   1869   1870     1  0.0000000  0.0000000  2
   1863   1860   1869   1870     1  0.0000000  0.0000000  2
   1864   1863   1866   1867     1  0.0000000  1.2552000  3
   1864   1863   1866   1868     1  0.0000000  1.2552000  3
   1864   1863   1860   1869     1  0.0000000  0.6508444  3
   1865   1863   1866   1867     1  0.0000000  1.2552000  3
   1865   1863   1866   1868     1  0.0000000  1.2552000  3
   1865   1863   1860   1869     1  0.0000000  0.6508444  3
   1871   1874   1877   1878     1  0.0000000  1.2552000  3
   1871   1874   1877   1879     1  0.0000000  1.2552000  3
   1872   1871   1874   1877     1  0.0000000  0.6508444  3
   1872   1871   1874   1875     1  0.0000000  0.6508444  3
   1872   1871   1874   1876     1  0.0000000  0.6508444  3
   1872   1871   1880   1881     1  0.0000000  0.0000000  2
   1873   1871   1874   1877     1  0.0000000  0.6508444  3
   1873   1871   1874   1875     1  0.0000000  0.6508444  3
   1873   1871   1874   1876     1  0.0000000  0.6508444  3
   1873   1871   1880   1881     1  0.0000000  0.0000000  2
   1874   1871   1880   1881     1  0.0000000  0.0000000  2
   1875   1874   1871   1880     1  0.0000000  0.6508444  3
   1875   1874   1877   1878     1  0.0000000  1.2552000  3
   1875   1874   1877   1879     1  0.0000000  1.2552000  3
   1876   1874   1871   1880     1  0.0000000  0.6508444  3
   1876   1874   1877   1878     1  0.0000000  1.2552000  3
   1876   1874   1877   1879     1  0.0000000  1.2552000  3
   1882   1885   1888   1889     1  0.0000000  1.2552000  3
   1882   1885   1888   1890     1  0.0000000  1.2552000  3
   1883   1882   1885   1888     1  0.0000000  0.6508444  3
   1883   1882   1885   1886     1  0.0000000  0.6508444  3
   1883   1882   1885   1887     1  0.0000000  0.6508444  3
   1883   1882   1891   1892     1  0.0000000  0.0000000  2
   1884   1882   1885   1888     1  0.0000000  0.6508444  3
   1884   1882   1885   1886     1  0.0000000  0.6508444  3
   1884   1882   1885   1887     1  0.0000000  0.6508444  3
   1884   1882   1891   1892     1  0.0000000  0.0000000  2
   1885   1882   1891   1892     1  0.0000000  0.0000000  2
   1886   1885   1888   1889     1  0.0000000  1.2552000  3
   1886   1885   1888   1890     1  0.0000000  1.2552000  3
   1886   1885   1882   1891     1  0.0000000  0.6508444  3
   1887   1885   1888   1889     1  0.0000000  1.2552000  3
   1887   1885   1888   1890     1  0.0000000  1.2552000  3
   1887   1885   1882   1891     1  0.0000000  0.6508444  3
   1893   1896   1899   1900     1  0.0000000  1.2552000  3
   1893   1896   1899   1901     1  0.0000000  1.2552000  3
   1894   1893   1896   1899     1  0.0000000  0.6508444  3
   1894   1893   1896   1897     1  0.0000000  0.6508444  3
   1894   1893   1896   1898     1  0.0000000  0.6508444  3
   1894   1893   1902   1903     1  0.0000000  0.0000000  2
   1895   1893   1896   1899     1  0.0000000  0.6508444  3
   1895   1893   1896   1897     1  0.0000000  0.6508444  3
   1895   1893   1896   1898     1  0.0000000  0.6508444  3
   1895   1893   1902   1903     1  0.0000000  0.0000000  2
   1896   1893   1902   1903     1  0.0000000  0.0000000  2
   1897   1896   1893   1902     1  0.0000000  0.6508444  3
   1897   1896   1899   1900     1  0.0000000  1.2552000  3
   1897   1896   1899   1901     1  0.0000000  1.2552000  3
   1898   1896   1893   1902     1  0.0000000  0.6508444  3
   1898   1896   1899   1900     1  0.0000000  1.2552000  3
   1898   1896   1899   1901     1  0.0000000  1.2552000  3
   1904   1907   1910   1911     1  0.0000000  1.2552000  3
   1904   1907   1910   1912     1  0.0000000  1.2552000  3
   1905   1904   1907   1910     1  0.0000000  0.6508444  3
   1905   1904   1907   1908     1  0.0000000  0.6508444  3
   1905   1904   1907   1909     1  0.0000000  0.6508444  3
   1905   1904   1913   1914     1  0.0000000  0.0000000  2
   1906   1904   1907   1910     1  0.0000000  0.6508444  3
   1906   1904   1907   1908     1  0.0000000  0.6508444  3
   1906   1904   1907   1909     1  0.0000000  0.6508444  3
   1906   1904   1913   1914     1  0.0000000  0.0000000  2
   1907   1904   1913   1914     1  0.0000000  0.0000000  2
   1908   1907   1910   1911     1  0.0000000  1.2552000  3
   1908   1907   1910   1912     1  0.0000000  1.2552000  3
   1908   1907   1904   1913     1  0.0000000  0.6508444  3
   1909   1907   1910   1911     1  0.0000000  1.2552000  3
   1909   1907   1910   1912     1  0.0000000  1.2552000  3
   1909   1907   1904   1913     1  0.0000000  0.6508444  3
   1915   1918   1921   1922     1  0.0000000  1.2552000  3
   1915   1918   1921   1923     1  0.0000000  1.2552000  3
   1916   1915   1918   1921     1  0.0000000  0.6508444  3
   1916   1915   1918   1919     1  0.0000000  0.6508444  3
   1916   1915   1918   1920     1  0.0000000  0.6508444  3
   1916   1915   1924   1925     1  0.0000000  0.0000000  2
   1917   1915   1918   1921     1  0.0000000  0.6508444  3
   1917   1915   1918   1919     1  0.0000000  0.6508444  3
   1917   1915   1918   1920     1  0.0000000  0.6508444  3
   1917   1915   1924   1925     1  0.0000000  0.0000000  2
   1918   1915   1924   1925     1  0.0000000  0.0000000  2
   1919   1918   1915   1924     1  0.0000000  0.6508444  3
   1919   1918   1921   1922     1  0.0000000  1.2552000  3
   1919   1918   1921   1923     1  0.0000000  1.2552000  3
   1920   1918   1915   1924     1  0.0000000  0.6508444  3
   1920   1918   1921   1922     1  0.0000000  1.2552000  3
   1920   1918   1921   1923     1  0.0000000  1.2552000  3
   1926   1929   1932   1933     1  0.0000000  1.2552000  3
   1926   1929   1932   1934     1  0.0000000  1.2552000  3
   1927   1926   1929   1932     1  0.0000000  0.6508444  3
   1927   1926   1929   1930     1  0.0000000  0.6508444  3
   1927   1926   1929   1931     1  0.0000000  0.6508444  3
   1927   1926   1935   1936     1  0.0000000  0.0000000  2
   1928   1926   1929   1932     1  0.0000000  0.6508444  3
   1928   1926   1929   1930     1  0.0000000  0.6508444  3
   1928   1926   1929   1931     1  0.0000000  0.6508444  3
   1928   1926   1935   1936     1  0.0000000  0.0000000  2
   1929   1926   1935   1936     1  0.0000000  0.0000000  2
   1930   1929   1932   1933     1  0.0000000  1.2552000  3
   1930   1929   1932   1934     1  0.0000000  1.2552000  3
   1930   1929   1926   1935     1  0.0000000  0.6508444  3
   1931   1929   1932   1933     1  0.0000000  1.2552000  3
   1931   1929   1932   1934     1  0.0000000  1.2552000  3
   1931   1929   1926   1935     1  0.0000000  0.6508444  3
   1937   1940   1943   1944     1  0.0000000  1.2552000  3
   1937   1940   1943   1945     1  0.0000000  1.2552000  3
   1938   1937   1940   1943     1  0.0000000  0.6508444  3
   1938   1937   1940   1941     1  0.0000000  0.6508444  3
   1938   1937   1940   1942     1  0.0000000  0.6508444  3
   1938   1937   1946   1947     1  0.0000000  0.0000000  2
   1939   1937   1940   1943     1  0.0000000  0.6508444  3
   1939   1937   1940   1941     1  0.0000000  0.6508444  3
   1939   1937   1940   1942     1  0.0000000  0.6508444  3
   1939   1937   1946   1947     1  0.0000000  0.0000000  2
   1940   1937   1946   1947     1  0.0000000  0.0000000  2
   1941   1940   1937   1946     1  0.0000000  0.6508444  3
   1941   1940   1943   1944     1  0.0000000  1.2552000  3
   1941   1940   1943   1945     1  0.0000000  1.2552000  3
   1942   1940   1937   1946     1  0.0000000  0.6508444  3
   1942   1940   1943   1944     1  0.0000000  1.2552000  3
   1942   1940   1943   1945     1  0.0000000  1.2552000  3
   1948   1951   1954   1955     1  0.0000000  1.2552000  3
   1948   1951   1954   1956     1  0.0000000  1.2552000  3
   1949   1948   1951   1954     1  0.0000000  0.6508444  3
   1949   1948   1951   1952     1  0.0000000  0.6508444  3
   1949   1948   1951   1953     1  0.0000000  0.6508444  3
   1949   1948   1957   1958     1  0.0000000  0.0000000  2
   1950   1948   1951   1954     1  0.0000000  0.6508444  3
   1950   1948   1951   1952     1  0.0000000  0.6508444  3
   1950   1948   1951   1953     1  0.0000000  0.6508444  3
   1950   1948   1957   1958     1  0.0000000  0.0000000  2
   1951   1948   1957   1958     1  0.0000000  0.0000000  2
   1952   1951   1954   1955     1  0.0000000  1.2552000  3
   1952   1951   1954   1956     1  0.0000000  1.2552000  3
   1952   1951   1948   1957     1  0.0000000  0.6508444  3
   1953   1951   1954   1955     1  0.0000000  1.2552000  3
   1953   1951   1954   1956     1  0.0000000  1.2552000  3
   1953   1951   1948   1957     1  0.0000000  0.6508444  3
   1959   1962   1965   1966     1  0.0000000  1.2552000  3
   1959   1962   1965   1967     1  0.0000000  1.2552000  3
   1960   1959   1962   1965     1  0.0000000  0.6508444  3
   1960   1959   1962   1963     1  0.0000000  0.6508444  3
   1960   1959   1962   1964     1  0.0000000  0.6508444  3
   1960   1959   1968   1969     1  0.0000000  0.0000000  2
   1961   1959   1962   1965     1  0.0000000  0.6508444  3
   1961   1959   1962   1963     1  0.0000000  0.6508444  3
   1961   1959   1962   1964     1  0.0000000  0.6508444  3
   1961   1959   1968   1969     1  0.0000000  0.0000000  2
   1962   1959   1968   1969     1  0.0000000  0.0000000  2
   1963   1962   1959   1968     1  0.0000000  0.6508444  3
   1963   1962   1965   1966     1  0.0000000  1.2552000  3
   1963   1962   1965   1967     1  0.0000000  1.2552000  3
   1964   1962   1959   1968     1  0.0000000  0.6508444  3
   1964   1962   1965   1966     1  0.0000000  1.2552000  3
   1964   1962   1965   1967     1  0.0000000  1.2552000  3
   1970   1973   1976   1977     1  0.0000000  1.2552000  3
   1970   1973   1976   1978     1  0.0000000  1.2552000  3
   1971   1970   1973   1976     1  0.0000000  0.6508444  3
   1971   1970   1973   1974     1  0.0000000  0.6508444  3
   1971   1970   1973   1975     1  0.0000000  0.6508444  3
   1971   1970   1979   1980     1  0.0000000  0.0000000  2
   1972   1970   1973   1976     1  0.0000000  0.6508444  3
   1972   1970   1973   1974     1  0.0000000  0.6508444  3
   1972   1970   1973   1975     1  0.0000000  0.6508444  3
   1972   1970   1979   1980     1  0.0000000  0.0000000  2
   1973   1970   1979   1980     1  0.0000000  0.0000000  2
   1974   1973   1976   1977     1  0.0000000  1.2552000  3
   1974   1973   1976   1978     1  0.0000000  1.2552000  3
   1974   1973   1970   1979     1  0.0000000  0.6508444  3
   1975   1973   1976   1977     1  0.0000000  1.2552000  3
   1975   1973   1976   1978     1  0.0000000  1.2552000  3
   1975   1973   1970   1979     1  0.0000000  0.6508444  3
   1981   1984   1987   1988     1  0.0000000  1.2552000  3
   1981   1984   1987   1989     1  0.0000000  1.2552000  3
   1982   1981   1984   1987     1  0.0000000  0.6508444  3
   1982   1981   1984   1985     1  0.0000000  0.6508444  3
   1982   1981   1984   1986     1  0.0000000  0.6508444  3
   1982   1981   1990   1991     1  0.0000000  0.0000000  2
   1983   1981   1984   1987     1  0.0000000  0.6508444  3
   1983   1981   1984   1985     1  0.0000000  0.6508444  3
   1983   1981   1984   1986     1  0.0000000  0.6508444  3
   1983   1981   1990   1991     1  0.0000000  0.0000000  2
   1984   1981   1990   1991     1  0.0000000  0.0000000  2
   1985   1984   1981   1990     1  0.0000000  0.6508444  3
   1985   1984   1987   1988     1  0.0000000  1.2552000  3
   1985   1984   1987   1989     1  0.0000000  1.2552000  3
   1986   1984   1981   1990     1  0.0000000  0.6508444  3
   1986   1984   1987   1988     1  0.0000000  1.2552000  3
   1986   1984   1987   1989     1  0.0000000  1.2552000  3
   1992   1995   1998   1999     1  0.0000000  1.2552000  3
   1992   1995   1998   2000     1  0.0000000  1.2552000  3
   1993   1992   1995   1998     1  0.0000000  0.6508444  3
   1993   1992   1995   1996     1  0.0000000  0.6508444  3
   1993   1992   1995   1997     1  0.0000000  0.6508444  3
   1993   1992   2001   2002     1  0.0000000  0.0000000  2
   1994   1992   1995   1998     1  0.0000000  0.6508444  3
   1994   1992   1995   1996     1  0.0000000  0.6508444  3
   1994   1992   1995   1997     1  0.0000000  0.6508444  3
   1994   1992   2001   2002     1  0.0000000  0.0000000  2
   1995   1992   2001   2002     1  0.0000000  0.0000000  2
   1996   1995   1998   1999     1  0.0000000  1.2552000  3
   1996   1995   1998   2000     1  0.0000000  1.2552000  3
   1996   1995   1992   2001     1  0.0000000  0.6508444  3
   1997   1995   1998   1999     1  0.0000000  1.2552000  3
   1997   1995   1998   2000     1  0.0000000  1.2552000  3
   1997   1995   1992   2001     1  0.0000000  0.6508444  3
   2003   2006   2009   2010     1  0.0000000  1.2552000  3
   2003   2006   2009   2011     1  0.0000000  1.2552000  3
   2004   2003   2006   2009     1  0.0000000  0.6508444  3
   2004   2003   2006   2007     1  0.0000000  0.6508444  3
   2004   2003   2006   2008     1  0.0000000  0.6508444  3
   2004   2003   2012   2013     1  0.0000000  0.0000000  2
   2005   2003   2006   2009     1  0.0000000  0.6508444  3
   2005   2003   2006   2007     1  0.0000000  0.6508444  3
   2005   2003   2006   2008     1  0.0000000  0.6508444  3
   2005   2003   2012   2013     1  0.0000000  0.0000000  2
   2006   2003   2012   2013     1  0.0000000  0.0000000  2
   2007   2006   2003   2012     1  0.0000000  0.6508444  3
   2007   2006   2009   2010     1  0.0000000  1.2552000  3
   2007   2006   2009   2011     1  0.0000000  1.2552000  3
   2008   2006   2003   2012     1  0.0000000  0.6508444  3
   2008   2006   2009   2010     1  0.0000000  1.2552000  3
   2008   2006   2009   2011     1  0.0000000  1.2552000  3
   2014   2017   2020   2021     1  0.0000000  1.2552000  3
   2014   2017   2020   2022     1  0.0000000  1.2552000  3
   2015   2014   2017   2020     1  0.0000000  0.6508444  3
   2015   2014   2017   2018     1  0.0000000  0.6508444  3
   2015   2014   2017   2019     1  0.0000000  0.6508444  3
   2015   2014   2023   2024     1  0.0000000  0.0000000  2
   2016   2014   2017   2020     1  0.0000000  0.6508444  3
   2016   2014   2017   2018     1  0.0000000  0.6508444  3
   2016   2014   2017   2019     1  0.0000000  0.6508444  3
   2016   2014   2023   2024     1  0.0000000  0.0000000  2
   2017   2014   2023   2024     1  0.0000000  0.0000000  2
   2018   2017   2020   2021     1  0.0000000  1.2552000  3
   2018   2017   2020   2022     1  0.0000000  1.2552000  3
   2018   2017   2014   2023     1  0.0000000  0.6508444  3
   2019   2017   2020   2021     1  0.0000000  1.2552000  3
   2019   2017   2020   2022     1  0.0000000  1.2552000  3
   2019   2017   2014   2023     1  0.0000000  0.6508444  3
   2025   2028   2031   2032     1  0.0000000  1.2552000  3
   2025   2028   2031   2033     1  0.0000000  1.2552000  3
   2026   2025   2028   2031     1  0.0000000  0.6508444  3
   2026   2025   2028   2029     1  0.0000000  0.6508444  3
   2026   2025   2028   2030     1  0.0000000  0.6508444  3
   2026   2025   2034   2035     1  0.0000000  0.0000000  2
   2027   2025   2028   2031     1  0.0000000  0.6508444  3
   2027   2025   2028   2029     1  0.0000000  0.6508444  3
   2027   2025   2028   2030     1  0.0000000  0.6508444  3
   2027   2025   2034   2035     1  0.0000000  0.0000000  2
   2028   2025   2034   2035     1  0.0000000  0.0000000  2
   2029   2028   2025   2034     1  0.0000000  0.6508444  3
   2029   2028   2031   2032     1  0.0000000  1.2552000  3
   2029   2028   2031   2033     1  0.0000000  1.2552000  3
   2030   2028   2025   2034     1  0.0000000  0.6508444  3
   2030   2028   2031   2032     1  0.0000000  1.2552000  3
   2030   2028   2031   2033     1  0.0000000  1.2552000  3
   2036   2039   2042   2043     1  0.0000000  1.2552000  3
   2036   2039   2042   2044     1  0.0000000  1.2552000  3
   2037   2036   2039   2042     1  0.0000000  0.6508444  3
   2037   2036   2039   2040     1  0.0000000  0.6508444  3
   2037   2036   2039   2041     1  0.0000000  0.6508444  3
   2037   2036   2045   2046     1  0.0000000  0.0000000  2
   2038   2036   2039   2042     1  0.0000000  0.6508444  3
   2038   2036   2039   2040     1  0.0000000  0.6508444  3
   2038   2036   2039   2041     1  0.0000000  0.6508444  3
   2038   2036   2045   2046     1  0.0000000  0.0000000  2
   2039   2036   2045   2046     1  0.0000000  0.0000000  2
   2040   2039   2042   2043     1  0.0000000  1.2552000  3
   2040   2039   2042   2044     1  0.0000000  1.2552000  3
   2040   2039   2036   2045     1  0.0000000  0.6508444  3
   2041   2039   2042   2043     1  0.0000000  1.2552000  3
   2041   2039   2042   2044     1  0.0000000  1.2552000  3
   2041   2039   2036   2045     1  0.0000000  0.6508444  3
   2047   2050   2053   2054     1  0.0000000  1.2552000  3
   2047   2050   2053   2055     1  0.0000000  1.2552000  3
   2048   2047   2050   2053     1  0.0000000  0.6508444  3
   2048   2047   2050   2051     1  0.0000000  0.6508444  3
   2048   2047   2050   2052     1  0.0000000  0.6508444  3
   2048   2047   2056   2057     1  0.0000000  0.0000000  2
   2049   2047   2050   2053     1  0.0000000  0.6508444  3
   2049   2047   2050   2051     1  0.0000000  0.6508444  3
   2049   2047   2050   2052     1  0.0000000  0.6508444  3
   2049   2047   2056   2057     1  0.0000000  0.0000000  2
   2050   2047   2056   2057     1  0.0000000  0.0000000  2
   2051   2050   2047   2056     1  0.0000000  0.6508444  3
   2051   2050   2053   2054     1  0.0000000  1.2552000  3
   2051   2050   2053   2055     1  0.0000000  1.2552000  3
   2052   2050   2047   2056     1  0.0000000  0.6508444  3
   2052   2050   2053   2054     1  0.0000000  1.2552000  3
   2052   2050   2053   2055     1  0.0000000  1.2552000  3
   2058   2061   2064   2065     1  0.0000000  1.2552000  3
   2058   2061   2064   2066     1  0.0000000  1.2552000  3
   2059   2058   2061   2064     1  0.0000000  0.6508444  3
   2059   2058   2061   2062     1  0.0000000  0.6508444  3
   2059   2058   2061   2063     1  0.0000000  0.6508444  3
   2059   2058   2067   2068     1  0.0000000  0.0000000  2
   2060   2058   2061   2064     1  0.0000000  0.6508444  3
   2060   2058   2061   2062     1  0.0000000  0.6508444  3
   2060   2058   2061   2063     1  0.0000000  0.6508444  3
   2060   2058   2067   2068     1  0.0000000  0.0000000  2
   2061   2058   2067   2068     1  0.0000000  0.0000000  2
   2062   2061   2064   2065     1  0.0000000  1.2552000  3
   2062   2061   2064   2066     1  0.0000000  1.2552000  3
   2062   2061   2058   2067     1  0.0000000  0.6508444  3
   2063   2061   2064   2065     1  0.0000000  1.2552000  3
   2063   2061   2064   2066     1  0.0000000  1.2552000  3
   2063   2061   2058   2067     1  0.0000000  0.6508444  3
   2069   2072   2075   2076     1  0.0000000  1.2552000  3
   2069   2072   2075   2077     1  0.0000000  1.2552000  3
   2070   2069   2072   2075     1  0.0000000  0.6508444  3
   2070   2069   2072   2073     1  0.0000000  0.6508444  3
   2070   2069   2072   2074     1  0.0000000  0.6508444  3
   2070   2069   2078   2079     1  0.0000000  0.0000000  2
   2071   2069   2072   2075     1  0.0000000  0.6508444  3
   2071   2069   2072   2073     1  0.0000000  0.6508444  3
   2071   2069   2072   2074     1  0.0000000  0.6508444  3
   2071   2069   2078   2079     1  0.0000000  0.0000000  2
   2072   2069   2078   2079     1  0.0000000  0.0000000  2
   2073   2072   2069   2078     1  0.0000000  0.6508444  3
   2073   2072   2075   2076     1  0.0000000  1.2552000  3
   2073   2072   2075   2077     1  0.0000000  1.2552000  3
   2074   2072   2069   2078     1  0.0000000  0.6508444  3
   2074   2072   2075   2076     1  0.0000000  1.2552000  3
   2074   2072   2075   2077     1  0.0000000  1.2552000  3
   2080   2083   2086   2087     1  0.0000000  1.2552000  3
   2080   2083   2086   2088     1  0.0000000  1.2552000  3
   2081   2080   2083   2086     1  0.0000000  0.6508444  3
   2081   2080   2083   2084     1  0.0000000  0.6508444  3
   2081   2080   2083   2085     1  0.0000000  0.6508444  3
   2081   2080   2089   2090     1  0.0000000  0.0000000  2
   2082   2080   2083   2086     1  0.0000000  0.6508444  3
   2082   2080   2083   2084     1  0.0000000  0.6508444  3
   2082   2080   2083   2085     1  0.0000000  0.6508444  3
   2082   2080   2089   2090     1  0.0000000  0.0000000  2
   2083   2080   2089   2090     1  0.0000000  0.0000000  2
   2084   2083   2086   2087     1  0.0000000  1.2552000  3
   2084   2083   2086   2088     1  0.0000000  1.2552000  3
   2084   2083   2080   2089     1  0.0000000  0.6508444  3
   2085   2083   2086   2087     1  0.0000000  1.2552000  3
   2085   2083   2086   2088     1  0.0000000  1.2552000  3
   2085   2083   2080   2089     1  0.0000000  0.6508444  3
   2091   2094   2097   2098     1  0.0000000  1.2552000  3
   2091   2094   2097   2099     1  0.0000000  1.2552000  3
   2092   2091   2094   2097     1  0.0000000  0.6508444  3
   2092   2091   2094   2095     1  0.0000000  0.6508444  3
   2092   2091   2094   2096     1  0.0000000  0.6508444  3
   2092   2091   2100   2101     1  0.0000000  0.0000000  2
   2093   2091   2094   2097     1  0.0000000  0.6508444  3
   2093   2091   2094   2095     1  0.0000000  0.6508444  3
   2093   2091   2094   2096     1  0.0000000  0.6508444  3
   2093   2091   2100   2101     1  0.0000000  0.0000000  2
   2094   2091   2100   2101     1  0.0000000  0.0000000  2
   2095   2094   2091   2100     1  0.0000000  0.6508444  3
   2095   2094   2097   2098     1  0.0000000  1.2552000  3
   2095   2094   2097   2099     1  0.0000000  1.2552000  3
   2096   2094   2091   2100     1  0.0000000  0.6508444  3
   2096   2094   2097   2098     1  0.0000000  1.2552000  3
   2096   2094   2097   2099     1  0.0000000  1.2552000  3
   2102   2105   2108   2109     1  0.0000000  1.2552000  3
   2102   2105   2108   2110     1  0.0000000  1.2552000  3
   2103   2102   2105   2108     1  0.0000000  0.6508444  3
   2103   2102   2105   2106     1  0.0000000  0.6508444  3
   2103   2102   2105   2107     1  0.0000000  0.6508444  3
   2103   2102   2111   2112     1  0.0000000  0.0000000  2
   2104   2102   2105   2108     1  0.0000000  0.6508444  3
   2104   2102   2105   2106     1  0.0000000  0.6508444  3
   2104   2102   2105   2107     1  0.0000000  0.6508444  3
   2104   2102   2111   2112     1  0.0000000  0.0000000  2
   2105   2102   2111   2112     1  0.0000000  0.0000000  2
   2106   2105   2108   2109     1  0.0000000  1.2552000  3
   2106   2105   2108   2110     1  0.0000000  1.2552000  3
   2106   2105   2102   2111     1  0.0000000  0.6508444  3
   2107   2105   2108   2109     1  0.0000000  1.2552000  3
   2107   2105   2108   2110     1  0.0000000  1.2552000  3
   2107   2105   2102   2111     1  0.0000000  0.6508444  3
   2113   2116   2119   2120     1  0.0000000  1.2552000  3
   2113   2116   2119   2121     1  0.0000000  1.2552000  3
   2114   2113   2116   2119     1  0.0000000  0.6508444  3
   2114   2113   2116   2117     1  0.0000000  0.6508444  3
   2114   2113   2116   2118     1  0.0000000  0.6508444  3
   2114   2113   2122   2123     1  0.0000000  0.0000000  2
   2115   2113   2116   2119     1  0.0000000  0.6508444  3
   2115   2113   2116   2117     1  0.0000000  0.6508444  3
   2115   2113   2116   2118     1  0.0000000  0.6508444  3
   2115   2113   2122   2123     1  0.0000000  0.0000000  2
   2116   2113   2122   2123     1  0.0000000  0.0000000  2
   2117   2116   2113   2122     1  0.0000000  0.6508444  3
   2117   2116   2119   2120     1  0.0000000  1.2552000  3
   2117   2116   2119   2121     1  0.0000000  1.2552000  3
   2118   2116   2113   2122     1  0.0000000  0.6508444  3
   2118   2116   2119   2120     1  0.0000000  1.2552000  3
   2118   2116   2119   2121     1  0.0000000  1.2552000  3
   2124   2127   2130   2131     1  0.0000000  1.2552000  3
   2124   2127   2130   2132     1  0.0000000  1.2552000  3
   2125   2124   2127   2130     1  0.0000000  0.6508444  3
   2125   2124   2127   2128     1  0.0000000  0.6508444  3
   2125   2124   2127   2129     1  0.0000000  0.6508444  3
   2125   2124   2133   2134     1  0.0000000  0.0000000  2
   2126   2124   2127   2130     1  0.0000000  0.6508444  3
   2126   2124   2127   2128     1  0.0000000  0.6508444  3
   2126   2124   2127   2129     1  0.0000000  0.6508444  3
   2126   2124   2133   2134     1  0.0000000  0.0000000  2
   2127   2124   2133   2134     1  0.0000000  0.0000000  2
   2128   2127   2130   2131     1  0.0000000  1.2552000  3
   2128   2127   2130   2132     1  0.0000000  1.2552000  3
   2128   2127   2124   2133     1  0.0000000  0.6508444  3
   2129   2127   2130   2131     1  0.0000000  1.2552000  3
   2129   2127   2130   2132     1  0.0000000  1.2552000  3
   2129   2127   2124   2133     1  0.0000000  0.6508444  3
   2135   2138   2141   2142     1  0.0000000  1.2552000  3
   2135   2138   2141   2143     1  0.0000000  1.2552000  3
   2136   2135   2138   2141     1  0.0000000  0.6508444  3
   2136   2135   2138   2139     1  0.0000000  0.6508444  3
   2136   2135   2138   2140     1  0.0000000  0.6508444  3
   2136   2135   2144   2145     1  0.0000000  0.0000000  2
   2137   2135   2138   2141     1  0.0000000  0.6508444  3
   2137   2135   2138   2139     1  0.0000000  0.6508444  3
   2137   2135   2138   2140     1  0.0000000  0.6508444  3
   2137   2135   2144   2145     1  0.0000000  0.0000000  2
   2138   2135   2144   2145     1  0.0000000  0.0000000  2
   2139   2138   2135   2144     1  0.0000000  0.6508444  3
   2139   2138   2141   2142     1  0.0000000  1.2552000  3
   2139   2138   2141   2143     1  0.0000000  1.2552000  3
   2140   2138   2135   2144     1  0.0000000  0.6508444  3
   2140   2138   2141   2142     1  0.0000000  1.2552000  3
   2140   2138   2141   2143     1  0.0000000  1.2552000  3
   2146   2149   2152   2153     1  0.0000000  1.2552000  3
   2146   2149   2152   2154     1  0.0000000  1.2552000  3
   2147   2146   2149   2152     1  0.0000000  0.6508444  3
   2147   2146   2149   2150     1  0.0000000  0.6508444  3
   2147   2146   2149   2151     1  0.0000000  0.6508444  3
   2147   2146   2155   2156     1  0.0000000  0.0000000  2
   2148   2146   2149   2152     1  0.0000000  0.6508444  3
   2148   2146   2149   2150     1  0.0000000  0.6508444  3
   2148   2146   2149   2151     1  0.0000000  0.6508444  3
   2148   2146   2155   2156     1  0.0000000  0.0000000  2
   2149   2146   2155   2156     1  0.0000000  0.0000000  2
   2150   2149   2152   2153     1  0.0000000  1.2552000  3
   2150   2149   2152   2154     1  0.0000000  1.2552000  3
   2150   2149   2146   2155     1  0.0000000  0.6508444  3
   2151   2149   2152   2153     1  0.0000000  1.2552000  3
   2151   2149   2152   2154     1  0.0000000  1.2552000  3
   2151   2149   2146   2155     1  0.0000000  0.6508444  3
   2157   2160   2163   2164     1  0.0000000  1.2552000  3
   2157   2160   2163   2165     1  0.0000000  1.2552000  3
   2158   2157   2160   2163     1  0.0000000  0.6508444  3
   2158   2157   2160   2161     1  0.0000000  0.6508444  3
   2158   2157   2160   2162     1  0.0000000  0.6508444  3
   2158   2157   2166   2167     1  0.0000000  0.0000000  2
   2159   2157   2160   2163     1  0.0000000  0.6508444  3
   2159   2157   2160   2161     1  0.0000000  0.6508444  3
   2159   2157   2160   2162     1  0.0000000  0.6508444  3
   2159   2157   2166   2167     1  0.0000000  0.0000000  2
   2160   2157   2166   2167     1  0.0000000  0.0000000  2
   2161   2160   2157   2166     1  0.0000000  0.6508444  3
   2161   2160   2163   2164     1  0.0000000  1.2552000  3
   2161   2160   2163   2165     1  0.0000000  1.2552000  3
   2162   2160   2157   2166     1  0.0000000  0.6508444  3
   2162   2160   2163   2164     1  0.0000000  1.2552000  3
   2162   2160   2163   2165     1  0.0000000  1.2552000  3
   2168   2171   2174   2175     1  0.0000000  1.2552000  3
   2168   2171   2174   2176     1  0.0000000  1.2552000  3
   2169   2168   2171   2174     1  0.0000000  0.6508444  3
   2169   2168   2171   2172     1  0.0000000  0.6508444  3
   2169   2168   2171   2173     1  0.0000000  0.6508444  3
   2169   2168   2177   2178     1  0.0000000  0.0000000  2
   2170   2168   2171   2174     1  0.0000000  0.6508444  3
   2170   2168   2171   2172     1  0.0000000  0.6508444  3
   2170   2168   2171   2173     1  0.0000000  0.6508444  3
   2170   2168   2177   2178     1  0.0000000  0.0000000  2
   2171   2168   2177   2178     1  0.0000000  0.0000000  2
   2172   2171   2174   2175     1  0.0000000  1.2552000  3
   2172   2171   2174   2176     1  0.0000000  1.2552000  3
   2172   2171   2168   2177     1  0.0000000  0.6508444  3
   2173   2171   2174   2175     1  0.0000000  1.2552000  3
   2173   2171   2174   2176     1  0.0000000  1.2552000  3
   2173   2171   2168   2177     1  0.0000000  0.6508444  3
   2179   2182   2185   2186     1  0.0000000  1.2552000  3
   2179   2182   2185   2187     1  0.0000000  1.2552000  3
   2180   2179   2182   2185     1  0.0000000  0.6508444  3
   2180   2179   2182   2183     1  0.0000000  0.6508444  3
   2180   2179   2182   2184     1  0.0000000  0.6508444  3
   2180   2179   2188   2189     1  0.0000000  0.0000000  2
   2181   2179   2182   2185     1  0.0000000  0.6508444  3
   2181   2179   2182   2183     1  0.0000000  0.6508444  3
   2181   2179   2182   2184     1  0.0000000  0.6508444  3
   2181   2179   2188   2189     1  0.0000000  0.0000000  2
   2182   2179   2188   2189     1  0.0000000  0.0000000  2
   2183   2182   2179   2188     1  0.0000000  0.6508444  3
   2183   2182   2185   2186     1  0.0000000  1.2552000  3
   2183   2182   2185   2187     1  0.0000000  1.2552000  3
   2184   2182   2179   2188     1  0.0000000  0.6508444  3
   2184   2182   2185   2186     1  0.0000000  1.2552000  3
   2184   2182   2185   2187     1  0.0000000  1.2552000  3
   2190   2193   2196   2197     1  0.0000000  1.2552000  3
   2190   2193   2196   2198     1  0.0000000  1.2552000  3
   2191   2190   2193   2196     1  0.0000000  0.6508444  3
   2191   2190   2193   2194     1  0.0000000  0.6508444  3
   2191   2190   2193   2195     1  0.0000000  0.6508444  3
   2191   2190   2199   2200     1  0.0000000  0.0000000  2
   2192   2190   2193   2196     1  0.0000000  0.6508444  3
   2192   2190   2193   2194     1  0.0000000  0.6508444  3
   2192   2190   2193   2195     1  0.0000000  0.6508444  3
   2192   2190   2199   2200     1  0.0000000  0.0000000  2
   2193   2190   2199   2200     1  0.0000000  0.0000000  2
   2194   2193   2196   2197     1  0.0000000  1.2552000  3
   2194   2193   2196   2198     1  0.0000000  1.2552000  3
   2194   2193   2190   2199     1  0.0000000  0.6508444  3
   2195   2193   2196   2197     1  0.0000000  1.2552000  3
   2195   2193   2196   2198     1  0.0000000  1.2552000  3
   2195   2193   2190   2199     1  0.0000000  0.6508444  3
   2201   2204   2207   2208     1  0.0000000  1.2552000  3
   2201   2204   2207   2209     1  0.0000000  1.2552000  3
   2202   2201   2204   2207     1  0.0000000  0.6508444  3
   2202   2201   2204   2205     1  0.0000000  0.6508444  3
   2202   2201   2204   2206     1  0.0000000  0.6508444  3
   2202   2201   2210   2211     1  0.0000000  0.0000000  2
   2203   2201   2204   2207     1  0.0000000  0.6508444  3
   2203   2201   2204   2205     1  0.0000000  0.6508444  3
   2203   2201   2204   2206     1  0.0000000  0.6508444  3
   2203   2201   2210   2211     1  0.0000000  0.0000000  2
   2204   2201   2210   2211     1  0.0000000  0.0000000  2
   2205   2204   2201   2210     1  0.0000000  0.6508444  3
   2205   2204   2207   2208     1  0.0000000  1.2552000  3
   2205   2204   2207   2209     1  0.0000000  1.2552000  3
   2206   2204   2201   2210     1  0.0000000  0.6508444  3
   2206   2204   2207   2208     1  0.0000000  1.2552000  3
   2206   2204   2207   2209     1  0.0000000  1.2552000  3
   2212   2215   2218   2219     1  0.0000000  1.2552000  3
   2212   2215   2218   2220     1  0.0000000  1.2552000  3
   2213   2212   2215   2218     1  0.0000000  0.6508444  3
   2213   2212   2215   2216     1  0.0000000  0.6508444  3
   2213   2212   2215   2217     1  0.0000000  0.6508444  3
   2213   2212   2221   2222     1  0.0000000  0.0000000  2
   2214   2212   2215   2218     1  0.0000000  0.6508444  3
   2214   2212   2215   2216     1  0.0000000  0.6508444  3
   2214   2212   2215   2217     1  0.0000000  0.6508444  3
   2214   2212   2221   2222     1  0.0000000  0.0000000  2
   2215   2212   2221   2222     1  0.0000000  0.0000000  2
   2216   2215   2218   2219     1  0.0000000  1.2552000  3
   2216   2215   2218   2220     1  0.0000000  1.2552000  3
   2216   2215   2212   2221     1  0.0000000  0.6508444  3
   2217   2215   2218   2219     1  0.0000000  1.2552000  3
   2217   2215   2218   2220     1  0.0000000  1.2552000  3
   2217   2215   2212   2221     1  0.0000000  0.6508444  3
   2223   2226   2229   2230     1  0.0000000  1.2552000  3
   2223   2226   2229   2231     1  0.0000000  1.2552000  3
   2224   2223   2226   2229     1  0.0000000  0.6508444  3
   2224   2223   2226   2227     1  0.0000000  0.6508444  3
   2224   2223   2226   2228     1  0.0000000  0.6508444  3
   2224   2223   2232   2233     1  0.0000000  0.0000000  2
   2225   2223   2226   2229     1  0.0000000  0.6508444  3
   2225   2223   2226   2227     1  0.0000000  0.6508444  3
   2225   2223   2226   2228     1  0.0000000  0.6508444  3
   2225   2223   2232   2233     1  0.0000000  0.0000000  2
   2226   2223   2232   2233     1  0.0000000  0.0000000  2
   2227   2226   2223   2232     1  0.0000000  0.6508444  3
   2227   2226   2229   2230     1  0.0000000  1.2552000  3
   2227   2226   2229   2231     1  0.0000000  1.2552000  3
   2228   2226   2223   2232     1  0.0000000  0.6508444  3
   2228   2226   2229   2230     1  0.0000000  1.2552000  3
   2228   2226   2229   2231     1  0.0000000  1.2552000  3
   2234   2237   2240   2241     1  0.0000000  1.2552000  3
   2234   2237   2240   2242     1  0.0000000  1.2552000  3
   2235   2234   2237   2240     1  0.0000000  0.6508444  3
   2235   2234   2237   2238     1  0.0000000  0.6508444  3
   2235   2234   2237   2239     1  0.0000000  0.6508444  3
   2235   2234   2243   2244     1  0.0000000  0.0000000  2
   2236   2234   2237   2240     1  0.0000000  0.6508444  3
   2236   2234   2237   2238     1  0.0000000  0.6508444  3
   2236   2234   2237   2239     1  0.0000000  0.6508444  3
   2236   2234   2243   2244     1  0.0000000  0.0000000  2
   2237   2234   2243   2244     1  0.0000000  0.0000000  2
   2238   2237   2240   2241     1  0.0000000  1.2552000  3
   2238   2237   2240   2242     1  0.0000000  1.2552000  3
   2238   2237   2234   2243     1  0.0000000  0.6508444  3
   2239   2237   2240   2241     1  0.0000000  1.2552000  3
   2239   2237   2240   2242     1  0.0000000  1.2552000  3
   2239   2237   2234   2243     1  0.0000000  0.6508444  3
     33     44     64     65     4  180.0000771  4.6024000  2
     34     69     89     90     4  180.0000771  4.6024000  2
     35     94    114    115     4  180.0000771  4.6024000  2
     36    119    139    140     4  180.0000771  4.6024000  2
     60    144    164    165     4  180.0000771  4.6024000  2
     61    169    189    190     4  180.0000771  4.6024000  2
     85    194    214    215     4  180.0000771  4.6024000  2
     86    219    239    240     4  180.0000771  4.6024000  2
    110    244    264    265     4  180.0000771  4.6024000  2
    111    269    289    290     4  180.0000771  4.6024000  2
    135    294    314    315     4  180.0000771  4.6024000  2
    136    319    339    340     4  180.0000771  4.6024000  2
    160    344    364    365     4  180.0000771  4.6024000  2
    161    369    389    390     4  180.0000771  4.6024000  2
    185    394    414    415     4  180.0000771  4.6024000  2
    186    419    439    440     4  180.0000771  4.6024000  2
    210    444    464    465     4  180.0000771  4.6024000  2
    211    469    489    490     4  180.0000771  4.6024000  2
    235    494    514    515     4  180.0000771  4.6024000  2
    236    519    539    540     4  180.0000771  4.6024000  2
    260    544    564    565     4  180.0000771  4.6024000  2
    261    569    589    590     4  180.0000771  4.6024000  2
    285    594    614    615     4  180.0000771  4.6024000  2
    286    619    639    640     4  180.0000771  4.6024000  2
    310    644    664    665     4  180.0000771  4.6024000  2
    311    669    689    690     4  180.0000771  4.6024000  2
    335    694    714    715     4  180.0000771  4.6024000  2
    336    719    739    740     4  180.0000771  4.6024000  2
    360    744    764    765     4  180.0000771  4.6024000  2
    361    769    789    790     4  180.0000771  4.6024000  2
    385    794    814    815     4  180.0000771  4.6024000  2
    386    819    839    840     4  180.0000771  4.6024000  2
    410    844    864    865     4  180.0000771  4.6024000  2
    411    869    889    890     4  180.0000771  4.6024000  2
    435    894    914    915     4  180.0000771  4.6024000  2
    436    919    939    940     4  180.0000771  4.6024000  2
    460    944    964    965     4  180.0000771  4.6024000  2
    461    969    989    990     4  180.0000771  4.6024000  2
    485    994   1014   1015     4  180.0000771  4.6024000  2
    486   1019   1039   1040     4  180.0000771  4.6024000  2
    510   1044   1064   1065     4  180.0000771  4.6024000  2
    511   1069   1089   1090     4  180.0000771  4.6024000  2
    535   1094   1114   1115     4  180.0000771  4.6024000  2
    536   1119   1139   1140     4  180.0000771  4.6024000  2
    560   1144   1164   1165     4  180.0000771  4.6024000  2
    561   1169   1189   1190     4  180.0000771  4.6024000  2
    585   1194   1214   1215     4  180.0000771  4.6024000  2
    586   1219   1239   1240     4  180.0000771  4.6024000  2
    610   1244   1264   1265     4  180.0000771  4.6024000  2
    611   1269   1289   1290     4  180.0000771  4.6024000  2
    635   1294   1314   1315     4  180.0000771  4.6024000  2
    636   1319   1339   1340     4  180.0000771  4.6024000  2
    660   1344   1364   1365     4  180.0000771  4.6024000  2
    661   1369   1389   1390     4  180.0000771  4.6024000  2
    685   1394   1414   1415     4  180.0000771  4.6024000  2
    686   1419   1439   1440     4  180.0000771  4.6024000  2
    710   1444   1464   1465     4  180.0000771  4.6024000  2
    711   1469   1489   1490     4  180.0000771  4.6024000  2
    735   1494   1514   1515     4  180.0000771  4.6024000  2
    736   1519   1539   1540     4  180.0000771  4.6024000  2
    760   1541   1550   1551     4  180.0000771  4.6024000  2
    761   1552   1561   1562     4  180.0000771  4.6024000  2
    785   1563   1572   1573     4  180.0000771  4.6024000  2
    786   1574   1583   1584     4  180.0000771  4.6024000  2
    810   1585   1594   1595     4  180.0000771  4.6024000  2
    811   1596   1605   1606     4  180.0000771  4.6024000  2
    835   1607   1616   1617     4  180.0000771  4.6024000  2
    836   1618   1627   1628     4  180.0000771  4.6024000  2
    860   1629   1638   1639     4  180.0000771  4.6024000  2
    861   1640   1649   1650     4  180.0000771  4.6024000  2
    885   1651   1660   1661     4  180.0000771  4.6024000  2
    886   1662   1671   1672     4  180.0000771  4.6024000  2
    910   1673   1682   1683     4  180.0000771  4.6024000  2
    911   1684   1693   1694     4  180.0000771  4.6024000  2
    935   1695   1704   1705     4  180.0000771  4.6024000  2
    936   1706   1715   1716     4  180.0000771  4.6024000  2
    960   1717   1726   1727     4  180.0000771  4.6024000  2
    961   1728   1737   1738     4  180.0000771  4.6024000  2
    985   1739   1748   1749     4  180.0000771  4.6024000  2
    986   1750   1759   1760     4  180.0000771  4.6024000  2
   1010   1761   1770   1771     4  180.0000771  4.6024000  2
   1011   1772   1781   1782     4  180.0000771  4.6024000  2
   1035   1783   1792   1793     4  180.0000771  4.6024000  2
   1036   1794   1803   1804     4  180.0000771  4.6024000  2
   1060   1805   1814   1815     4  180.0000771  4.6024000  2
   1061   1816   1825   1826     4  180.0000771  4.6024000  2
   1085   1827   1836   1837     4  180.0000771  4.6024000  2
   1086   1838   1847   1848     4  180.0000771  4.6024000  2
   1110   1849   1858   1859     4  180.0000771  4.6024000  2
   1111   1860   1869   1870     4  180.0000771  4.6024000  2
   1135   1871   1880   1881     4  180.0000771  4.6024000  2
   1136   1882   1891   1892     4  180.0000771  4.6024000  2
   1160   1893   1902   1903     4  180.0000771  4.6024000  2
   1161   1904   1913   1914     4  180.0000771  4.6024000  2
   1185   1915   1924   1925     4  180.0000771  4.6024000  2
   1186   1926   1935   1936     4  180.0000771  4.6024000  2
   1210   1937   1946   1947     4  180.0000771  4.6024000  2
   1211   1948   1957   1958     4  180.0000771  4.6024000  2
   1235   1959   1968   1969     4  180.0000771  4.6024000  2
   1236   1970   1979   1980     4  180.0000771  4.6024000  2
   1260   1981   1990   1991     4  180.0000771  4.6024000  2
   1261   1992   2001   2002     4  180.0000771  4.6024000  2
   1285   2003   2012   2013     4  180.0000771  4.6024000  2
   1286   2014   2023   2024     4  180.0000771  4.6024000  2
   1310   2025   2034   2035     4  180.0000771  4.6024000  2
   1311   2036   2045   2046     4  180.0000771  4.6024000  2
   1335   2047   2056   2057     4  180.0000771  4.6024000  2
   1336   2058   2067   2068     4  180.0000771  4.6024000  2
   1360   2069   2078   2079     4  180.0000771  4.6024000  2
   1361   2080   2089   2090     4  180.0000771  4.6024000  2
   1385   2091   2100   2101     4  180.0000771  4.6024000  2
   1386   2102   2111   2112     4  180.0000771  4.6024000  2
   1410   2113   2122   2123     4  180.0000771  4.6024000  2
   1411   2124   2133   2134     4  180.0000771  4.6024000  2
   1435   2135   2144   2145     4  180.0000771  4.6024000  2
   1436   2146   2155   2156     4  180.0000771  4.6024000  2
   1460   2157   2166   2167     4  180.0000771  4.6024000  2
   1461   2168   2177   2178     4  180.0000771  4.6024000  2
   1485   2179   2188   2189     4  180.0000771  4.6024000  2
   1486   2190   2199   2200     4  180.0000771  4.6024000  2
   1510   2201   2210   2211     4  180.0000771  4.6024000  2
   1511   2212   2221   2222     4  180.0000771  4.6024000  2
   1535   2223   2232   2233     4  180.0000771  4.6024000  2
   1536   2234   2243   2244     4  180.0000771  4.6024000  2

;[ system ]
;; Name
;Generic title
;
;[ molecules ]
;; Compound       #mols
;system1              1
