G4NP-PAMAM in water
72506
    1aaa     C1    1   1.478   8.068   2.947  0.2421  0.1122 -0.1473
    1aaa     H1    2   1.562   8.019   2.999  0.6251  0.8135 -0.0804
    1aaa     H2    3   1.510   8.173   2.938  0.8632 -0.0886 -0.3382
    1aaa     C2    4   1.366   8.055   3.056  0.1421  0.1906 -0.5788
    1aaa     H3    5   1.282   8.121   3.030 -0.2161  0.2914  0.7577
    1aaa     H4    6   1.323   7.954   3.059  0.5395  0.0465  1.0359
    1aaa     N1    7   1.410   8.088   3.192  0.3834 -0.9937  0.6119
    1aaa     N2    8   1.469   7.990   2.819  0.2801  0.1745 -0.3316
    1aaa     C3    9   1.590   7.988   2.739 -0.1333 -0.7208  0.1328
    1aaa     H5   10   1.595   7.903   2.669  0.8114 -0.7919  0.2770
    1aaa     H6   11   1.669   7.967   2.812 -0.9731 -0.1749  1.2131
    1aaa     C4   12   1.350   8.015   2.747 -0.4299 -0.6942  0.6750
    1aaa     H7   13   1.258   8.014   2.807 -0.9019 -0.4492 -0.0332
    1aaa     H8   14   1.361   8.099   2.677  5.6456 -1.2436  0.4289
    1aaa     C5   15   1.302   8.133   3.284  0.2685  0.0189  0.5695
    1aaa     H9   16   1.219   8.063   3.275 -0.2442  0.6966 -0.1288
    1aaa    H10   17   1.329   8.155   3.388  1.5513 -0.3960  0.3427
    1aaa     C6   18   1.496   7.976   3.250 -0.3996  0.9405  0.8297
    1aaa    H11   19   1.588   7.983   3.191 -0.9557  1.0638 -0.0445
    1aaa    H12   20   1.448   7.878   3.230  1.1819  0.3539 -0.2548
    1aaa     C7   21   1.238   8.269   3.244 -0.7462 -0.3777  0.6508
    1aaa    H13   22   1.319   8.342   3.256  0.2096 -1.2840 -0.0983
    1aaa    H14   23   1.205   8.274   3.140 -0.6613 -1.3315  0.5697
    1aaa     C8   24   1.528   7.974   3.401 -0.5705 -0.4309  0.4906
    1aaa    H15   25   1.564   8.076   3.421 -0.2178  0.0266 -2.1201
    1aaa    H16   26   1.433   7.944   3.448 -1.0555  0.1342 -0.1240
    1aaa     C9   27   1.322   7.902   2.657 -0.1108  0.0261 -0.3089
    1aaa    H17   28   1.390   7.906   2.571  0.9396  0.1208  0.4990
    1aaa    H18   29   1.336   7.808   2.712 -1.1424 -0.1193 -0.2759
    1aaa    C10   30   1.623   8.124   2.667  0.2649 -0.4458 -0.0438
    1aaa    H19   31   1.545   8.145   2.592  1.1669 -2.1381 -1.5177
    1aaa    H20   32   1.628   8.209   2.736 -0.2860  0.6079 -1.2547
    1aaa    C11   33   1.193   7.919   2.587 -0.3789  0.8590 -0.3878
    1aaa    C12   34   1.749   8.112   2.597  0.1892  0.5131  0.6948
    1aaa    C13   35   1.118   8.302   3.330  0.3735  0.4970  0.2694
    1aaa    C14   36   1.642   7.889   3.441  0.0507  0.2028 -0.1873
    1aaa     O1   37   1.185   7.984   2.485  0.1902 -0.2962 -0.2886
    1aaa     O2   38   1.017   8.233   3.318 -0.5152 -0.0007  0.4332
    1aaa     O3   39   1.706   7.820   3.364 -0.8698 -0.6987 -0.6285
    1aaa     O4   40   1.783   8.003   2.553  0.2315 -0.5983 -0.4957
    2bbb     C1   41   0.834   7.910   2.656 -0.7641  0.1666 -0.4217
    2bbb     H1   42   0.858   8.011   2.621  0.0660  0.7106  1.5386
    2bbb     H2   43   0.844   7.938   2.762  2.2905  1.2441 -0.8918
    2bbb     C2   44   0.953   7.830   2.597  0.6106  0.3087  0.1901
    2bbb     H3   45   0.946   7.722   2.613 -0.9410  0.4325  0.5909
    2bbb     H4   46   0.957   7.852   2.490 -0.9859  0.7324  0.1862
    2bbb     N1   47   0.703   7.852   2.629 -0.9680  0.1346  0.7795
    2bbb     C3   48   0.590   7.934   2.673 -0.2877  0.1424 -0.6226
    2bbb     H5   49   0.631   7.999   2.752 -1.3002  0.1998 -0.1251
    2bbb     H6   50   0.502   7.876   2.701 -0.2727  0.8781  1.0796
    2bbb     C4   51   0.683   7.732   2.706  0.2028  0.2606 -1.1779
    2bbb     H7   52   0.775   7.681   2.736 -0.1634  0.6390  0.7275
    2bbb     H8   53   0.642   7.752   2.806 -1.0755 -0.9659 -1.4298
    2bbb     C5   54   0.599   7.630   2.630  0.3686  0.0475  0.3029
    2bbb     H9   55   0.504   7.681   2.611  0.3917  0.2410  0.6946
    2bbb    H10   56   0.642   7.616   2.530 -0.7467  4.7816 -1.1117
    2bbb     C6   57   0.564   8.029   2.559  0.5059  0.2152 -0.7477
    2bbb    H11   58   0.645   8.101   2.541 -0.0976  0.6383 -1.8372
    2bbb    H12   59   0.539   7.976   2.466 -2.0648 -0.6527  0.3472
    2bbb     C7   60   0.586   7.507   2.711 -0.2798  0.5613 -0.0556
    2bbb     C8   61   0.437   8.094   2.604  0.3491  0.2556  0.2589
    2bbb     O1   62   0.648   7.493   2.812 -0.4523  0.2223  0.0467
    2bbb     O2   63   0.331   8.088   2.546 -1.0152 -0.0851 -0.4188
    2bbb     N4   64   1.090   7.865   2.651  0.6434  0.3597  0.0910
    2bbb    H21   65   1.114   7.834   2.744 -0.1860 -0.5890  0.0057
    3bbb     C1   66   2.025   8.372   2.557  0.1161  0.4213  0.6453
    3bbb     H1   67   2.006   8.395   2.662  2.6907 -0.6813  1.4179
    3bbb     H2   68   1.968   8.443   2.495 -0.4961 -1.0653 -0.5685
    3bbb     C2   69   1.965   8.234   2.530 -0.2330 -0.4214 -0.7753
    3bbb     H3   70   1.951   8.225   2.421  0.3574  0.9042 -0.9810
    3bbb     H4   71   2.027   8.152   2.569 -0.0528  0.6172  1.2584
    3bbb     N1   72   2.174   8.383   2.534  0.4047  0.0001 -0.5414
    3bbb     C3   73   2.208   8.527   2.546  0.1352 -0.3523 -0.3723
    3bbb     H5   74   2.129   8.582   2.494  0.7503 -0.5572 -1.5624
    3bbb     H6   75   2.299   8.558   2.492  0.2208  1.6115  0.7925
    3bbb     C4   76   2.213   8.342   2.397 -0.1232 -0.2341 -0.2195
    3bbb     H7   77   2.156   8.258   2.355  0.5403  0.2463 -2.1578
    3bbb     H8   78   2.183   8.417   2.323 -0.2276 -1.0971 -1.0742
    3bbb     C5   79   2.359   8.301   2.384 -0.2001 -0.3430  0.1048
    3bbb     H9   80   2.418   8.371   2.444 -0.2405  1.1907 -1.5865
    3bbb    H10   81   2.378   8.202   2.429  0.5243 -0.6240 -0.7940
    3bbb     C6   82   2.230   8.565   2.695  0.4473  0.2207  0.4670
    3bbb    H11   83   2.140   8.544   2.754 -1.1181 -0.0939 -1.9321
    3bbb    H12   84   2.301   8.492   2.737  0.0157 -0.7415 -0.4537
    3bbb     C7   85   2.397   8.301   2.236  0.0669 -0.0251  0.3170
    3bbb     C8   86   2.288   8.702   2.713  0.4326  0.1435  0.6228
    3bbb     O1   87   2.337   8.228   2.164 -0.0330 -0.0740 -0.1718
    3bbb     O2   88   2.347   8.757   2.624 -0.5285 -0.0735  0.1005
    3bbb     N4   89   1.826   8.223   2.590  0.1747  0.3646 -0.4051
    3bbb    H21   90   1.785   8.304   2.636  1.8925  0.5762  0.8533
    4bbb     C1   91   1.016   8.552   3.580  0.0016 -0.1522  0.3959
    4bbb     H1   92   1.109   8.611   3.579  0.6460 -1.1428  0.4170
    4bbb     H2   93   1.028   8.474   3.656  2.1355 -0.8310 -0.5523
    4bbb     C2   94   1.006   8.491   3.440 -0.7099  0.0246  0.2102
    4bbb     H3   95   0.915   8.430   3.440 -1.3396  0.8692 -2.0650
    4bbb     H4   96   0.987   8.575   3.372 -0.2233 -0.0140  0.0218
    4bbb     N1   97   0.904   8.641   3.612 -0.1375  0.3548 -0.0686
    4bbb     C3   98   0.770   8.578   3.620 -0.2219  0.2765 -0.3269
    4bbb     H5   99   0.765   8.499   3.544 -2.3342 -2.6755  2.5719
    4bbb     H6  100   0.688   8.647   3.599  0.6001  1.2692 -0.3713
    4bbb     C4  101   0.947   8.742   3.717  0.5580 -0.0359 -0.4844
    4bbb     H7  102   0.971   8.689   3.810 -0.8008 -2.0559 -1.2327
    4bbb     H8  103   1.045   8.789   3.697  2.6861 -2.5663  2.9766
    4bbb     C5  104   0.841   8.844   3.754  0.0874 -0.0588 -0.1924
    4bbb     H9  105   0.740   8.803   3.748 -0.3706  0.8860  0.7023
    4bbb    H10  106   0.848   8.877   3.858 -0.7325 -2.7803  0.7911
    4bbb     C6  107   0.743   8.508   3.758  0.1159 -0.3969 -0.2124
    4bbb    H11  108   0.821   8.433   3.775  0.3192  0.1395  1.3491
    4bbb    H12  109   0.748   8.593   3.828  0.6031  1.6654 -2.5988
    4bbb     C7  110   0.855   8.955   3.654 -0.5523  0.1477  0.4432
    4bbb     C8  111   0.605   8.442   3.765  0.2141 -0.3075  0.6991
    4bbb     O1  112   0.853   8.927   3.533 -0.2150  0.0326 -0.1299
    4bbb     O2  113   0.502   8.506   3.752  0.2845  0.4860  0.0911
    4bbb     N4  114   1.123   8.415   3.406  0.0676  0.7449  0.4046
    4bbb    H21  115   1.214   8.458   3.392  0.2144  0.4668  0.5028
    5bbb     C1  116   1.849   7.751   3.695  0.0386 -0.4705 -0.1954
    5bbb     H1  117   1.953   7.745   3.661  0.3714  1.4997  0.3564
    5bbb     H2  118   1.804   7.669   3.638 -0.9882  0.8250 -1.3340
    5bbb     C2  119   1.808   7.887   3.631  0.4559 -0.0218 -0.3099
    5bbb     H3  120   1.819   7.968   3.705 -3.0536  1.4237 -1.1962
    5bbb     H4  121   1.880   7.916   3.553 -0.5780  1.5339 -0.7287
    5bbb     N1  122   1.828   7.743   3.838  0.7223  0.4537 -0.4686
    5bbb     C3  123   1.902   7.634   3.901  0.7183 -0.2930  0.1603
    5bbb     H5  124   2.004   7.637   3.861  0.8046  1.9661  0.4123
    5bbb     H6  125   1.859   7.539   3.868  1.7870 -0.1161 -1.9037
    5bbb     C4  126   1.687   7.742   3.874  0.5807  0.1607  0.4192
    5bbb     H7  127   1.621   7.718   3.789  0.2838 -1.7361  1.1466
    5bbb     H8  128   1.658   7.660   3.940  2.9585  0.4262  1.8947
    5bbb     C5  129   1.649   7.871   3.943 -0.1935 -0.5554 -0.1992
    5bbb     H9  130   1.716   7.883   4.029 -1.2652  0.0432  0.5768
    5bbb    H10  131   1.662   7.955   3.873 -1.0199  1.7071  2.1847
    5bbb     C6  132   1.909   7.648   4.055  0.2658 -0.8320  0.2219
    5bbb    H11  133   1.948   7.742   4.094  0.5374 -1.8045  2.5079
    5bbb    H12  134   1.809   7.625   4.094  0.2491 -1.2867 -0.0773
    5bbb     C7  135   1.503   7.861   3.992  0.5319 -0.3747 -0.3802
    5bbb     C8  136   2.002   7.542   4.096  0.0979 -0.2145  0.4599
    5bbb     O1  137   1.464   7.773   4.060 -0.3286  0.0460 -0.4716
    5bbb     O2  138   2.078   7.478   4.023 -0.2623  0.2299  0.0121
    5bbb     N4  139   1.680   7.896   3.574 -0.0742  0.1730  0.6796
    5bbb    H21  140   1.623   7.954   3.635  1.3580  1.8364  0.5272
    6bbb     C1  141   0.596   7.190   2.673  0.4601  0.3101  0.0925
    6bbb     H1  142   0.680   7.234   2.728  0.3976  2.2547 -1.2896
    6bbb     H2  143   0.625   7.194   2.567 -0.3423  0.2784 -0.1333
    6bbb     C2  144   0.474   7.280   2.708  0.7041  0.0007 -0.0159
    6bbb     H3  145   0.380   7.237   2.672  0.4616  0.4929  0.0163
    6bbb     H4  146   0.465   7.288   2.817  0.1517  1.0301 -0.1196
    6bbb     N1  147   0.596   7.046   2.709  0.4967  0.1466 -0.2556
    6bbb     C3  148   0.723   6.981   2.689 -0.6820 -0.8882  0.6349
    6bbb     H5  149   0.800   7.051   2.725 -0.3914 -0.4576 -0.7464
    6bbb     H6  150   0.741   6.960   2.583  1.7032 -1.3760  1.0823
    6bbb     C4  151   0.491   6.964   2.645  0.2140  0.0054 -0.0710
    6bbb     H7  152   0.437   7.028   2.575  0.1063  2.8334  2.4195
    6bbb     H8  153   0.537   6.885   2.584 -1.0411  0.0149 -1.0477
    6bbb     C5  154   0.404   6.927   2.763  0.5161  0.3594  0.0380
    6bbb     H9  155   0.452   6.896   2.857  0.0821  0.5371  0.3220
    6bbb    H10  156   0.346   7.013   2.798 -2.2054 -1.4240  0.2480
    6bbb     C6  157   0.734   6.857   2.771 -1.3834  0.1149 -0.3537
    6bbb    H11  158   0.695   6.871   2.872 -0.2973  1.9241 -0.1410
    6bbb    H12  159   0.676   6.772   2.732 -0.2589 -0.4024 -0.9551
    6bbb     C7  160   0.303   6.831   2.713  0.0119  0.5597 -0.1603
    6bbb     C8  161   0.878   6.803   2.771  0.2769 -0.1340  0.3599
    6bbb     O1  162   0.293   6.796   2.596  0.3133 -0.4803 -0.7216
    6bbb     O2  163   0.915   6.739   2.673  0.4238 -0.2599  0.1242
    6bbb     N4  164   0.498   7.419   2.652 -0.0610  0.4000  0.0576
    6bbb    H21  165   0.462   7.447   2.562  1.0412 -0.0946 -0.5553
    7bbb     C1  166   0.394   8.348   2.889 -0.1673  0.3054 -0.4140
    7bbb     H1  167   0.376   8.267   2.961 -0.6076  0.3218 -0.5037
    7bbb     H2  168   0.327   8.434   2.901 -0.8397  0.2013 -2.9320
    7bbb     C2  169   0.361   8.284   2.758  0.4726  0.4325 -0.0291
    7bbb     H3  170   0.260   8.240   2.759  0.6339 -0.0119 -1.4851
    7bbb     H4  171   0.357   8.364   2.682 -2.4037  0.5256  0.0916
    7bbb     N1  172   0.530   8.397   2.902 -0.7666  0.3519 -0.0279
    7bbb     C3  173   0.566   8.430   3.044 -0.7428  0.8527  0.1936
    7bbb     H5  174   0.495   8.499   3.091  0.8238  1.6422  1.4871
    7bbb     H6  175   0.663   8.480   3.042 -0.1188 -0.3365 -0.3402
    7bbb     C4  176   0.535   8.526   2.829 -0.6018  0.5237  0.0773
    7bbb     H7  177   0.492   8.518   2.728  0.9409 -0.8852 -0.5190
    7bbb     H8  178   0.473   8.600   2.881 -0.5171  0.4576  0.2735
    7bbb     C5  179   0.681   8.584   2.809 -0.3798 -0.1360  0.0235
    7bbb     H9  180   0.750   8.580   2.894 -0.1984  1.6638  0.0073
    7bbb    H10  181   0.736   8.519   2.740 -0.4221 -0.3234  0.1673
    7bbb     C6  182   0.572   8.303   3.128  0.5558  0.2234 -0.0847
    7bbb    H11  183   0.492   8.229   3.122  0.1830  0.6980 -1.2814
    7bbb    H12  184   0.670   8.254   3.123  0.7231  0.3789  1.2658
    7bbb     C7  185   0.683   8.725   2.754 -0.0672  0.3270 -0.7578
    7bbb     C8  186   0.577   8.339   3.272  0.2643  0.2701  0.5063
    7bbb     O1  187   0.696   8.746   2.635  0.4052 -0.4169 -0.3992
    7bbb     O2  188   0.681   8.361   3.334  0.5446 -0.0219  0.2549
    7bbb     N4  189   0.454   8.183   2.710 -0.4814  0.0005  0.2577
    7bbb    H21  190   0.551   8.200   2.734 -0.4234  1.7158 -0.9593
    8bbb     C1  191   2.446   8.590   2.026  0.0210  0.0552 -0.0693
    8bbb     H1  192   2.475   8.624   1.926  1.2181  1.1588  0.6067
    8bbb     H2  193   2.489   8.665   2.094  1.3652  0.9132 -1.7831
    8bbb     C2  194   2.514   8.449   2.050 -0.1297  0.0445 -0.3158
    8bbb     H3  195   2.491   8.373   1.974  1.4780 -0.6460 -0.1499
    8bbb     H4  196   2.619   8.473   2.034 -0.8522  3.3020 -0.8981
    8bbb     N1  197   2.292   8.588   2.038 -0.5912 -0.6495 -0.0041
    8bbb     C3  198   2.237   8.527   1.923  0.3895 -0.3120 -0.1812
    8bbb     H5  199   2.315   8.460   1.885  1.1599 -0.1357  1.0235
    8bbb     H6  200   2.216   8.601   1.845  1.6311  1.8783  1.4531
    8bbb     C4  201   2.240   8.717   2.059 -0.1165 -0.4785  0.8086
    8bbb     H7  202   2.268   8.791   1.984 -2.1247  0.3224  0.8034
    8bbb     H8  203   2.130   8.719   2.058 -0.1319  1.6972 -2.0208
    8bbb     C5  204   2.290   8.766   2.192  1.2685 -0.1238 -0.7972
    8bbb     H9  205   2.277   8.678   2.256  2.0680  0.8126  0.7114
    8bbb    H10  206   2.393   8.802   2.205  0.2825  2.4155  0.6967
    8bbb     C6  207   2.113   8.456   1.969  0.3555  1.0256  0.7239
    8bbb    H11  208   2.140   8.395   2.056 -1.6443  0.2363  0.8454
    8bbb    H12  209   2.027   8.517   1.999  0.4282  1.9104 -0.7808
    8bbb     C7  210   2.191   8.860   2.252 -0.3593  0.1887 -0.2895
    8bbb     C8  211   2.067   8.364   1.858 -0.6460 -0.0276 -0.7837
    8bbb     O1  212   2.110   8.928   2.189 -0.3935 -0.3959 -0.0897
    8bbb     O2  213   2.098   8.382   1.740 -0.0863  0.1772  0.5029
    8bbb     N4  214   2.496   8.392   2.193 -0.0907 -0.3561 -0.3140
    8bbb    H21  215   2.559   8.426   2.264 -3.2355  2.9831  1.2104
    9bbb     C1  216   2.291   8.999   2.925  0.2209  0.3962 -0.0831
    9bbb     H1  217   2.351   9.067   2.986  0.8518 -1.0384  0.9354
    9bbb     H2  218   2.215   8.966   2.996  0.6517  1.4128  0.8827
    9bbb     C2  219   2.366   8.869   2.889  0.2330  0.1559  0.2963
    9bbb     H3  220   2.443   8.909   2.822  0.6657  0.3824  0.9182
    9bbb     H4  221   2.424   8.841   2.979 -0.9294  1.8896  1.6536
    9bbb     N1  222   2.244   9.071   2.802 -0.0282 -0.2606  0.1428
    9bbb     C3  223   2.354   9.147   2.746 -0.1305 -0.5418  0.7359
    9bbb     H5  224   2.448   9.090   2.739  0.7922  0.9494  0.2786
    9bbb     H6  225   2.373   9.233   2.813 -0.3364 -0.4660  0.6957
    9bbb     C4  226   2.124   9.148   2.823  0.0014  0.1045  0.7817
    9bbb     H7  227   2.140   9.225   2.899 -0.9299 -0.3337  1.4361
    9bbb     H8  228   2.096   9.190   2.726 -0.5956 -0.1644  0.8316
    9bbb     C5  229   2.011   9.054   2.861  0.3140  0.7595  0.1392
    9bbb     H9  230   1.995   8.972   2.790 -2.4213  0.5822  0.8399
    9bbb    H10  231   2.015   9.012   2.962 -1.5101 -1.8325 -0.7631
    9bbb     C6  232   2.318   9.188   2.607  0.8719  0.0925  0.1626
    9bbb    H11  233   2.269   9.105   2.556 -0.2973  0.1678  1.1188
    9bbb    H12  234   2.246   9.270   2.598 -0.3995 -1.1594 -1.7580
    9bbb     C7  235   1.880   9.131   2.866 -0.7058  0.0513  0.8280
    9bbb     C8  236   2.446   9.218   2.533 -0.7182 -0.1370 -0.7784
    9bbb     O1  237   1.805   9.147   2.770  0.2108 -0.3480 -0.5913
    9bbb     O2  238   2.519   9.125   2.500 -0.1111 -0.2162 -0.1784
    9bbb     N4  239   2.281   8.756   2.839 -0.4141  0.3301 -0.5614
    9bbb    H21  240   2.225   8.710   2.909  0.7824  0.5644  0.5818
   10bbb     C1  241   0.941   9.320   3.719  0.1250 -0.9239  0.0050
   10bbb     H1  242   1.042   9.277   3.725  0.8836  0.7960  0.4021
   10bbb     H2  243   0.894   9.328   3.818  0.5656  0.1857  0.1445
   10bbb     C2  244   0.871   9.215   3.632  0.2958 -0.0739 -0.3881
   10bbb     H3  245   0.770   9.246   3.601  0.2457  0.2058  0.0539
   10bbb     H4  246   0.926   9.209   3.537 -0.1665 -0.1762 -0.6556
   10bbb     N1  247   0.959   9.443   3.647 -0.1279 -0.1914 -0.1384
   10bbb     C3  248   1.073   9.519   3.691 -0.2908 -0.2900  0.2574
   10bbb     H5  249   1.065   9.505   3.799 -1.0797 -1.5475  0.0499
   10bbb     H6  250   1.060   9.627   3.671 -0.5452 -0.4832 -0.6568
   10bbb     C4  251   0.841   9.522   3.643  0.3623  0.1172  0.6420
   10bbb     H7  252   0.756   9.456   3.623  0.7323  0.2918 -1.8189
   10bbb     H8  253   0.829   9.573   3.740  0.0025 -0.2656  0.8045
   10bbb     C5  254   0.832   9.610   3.521 -0.1173  0.0719  0.5915
   10bbb     H9  255   0.911   9.685   3.535 -0.9870  0.8999  1.2192
   10bbb    H10  256   0.854   9.573   3.420 -1.6027 -0.4189  0.4153
   10bbb     C6  257   1.208   9.463   3.640  0.6039 -0.3618  0.2738
   10bbb    H11  258   1.283   9.490   3.714  1.0687 -1.7421  0.3154
   10bbb    H12  259   1.205   9.354   3.631 -1.6179 -0.5064  1.7787
   10bbb     C7  260   0.705   9.694   3.520 -0.0550  0.0829 -0.1299
   10bbb     C8  261   1.240   9.523   3.505  0.3628 -0.3097  0.5193
   10bbb     O1  262   0.618   9.692   3.608  0.3696  0.4052  0.4859
   10bbb     O2  263   1.349   9.569   3.489  0.1936  0.4048 -0.0691
   10bbb     N4  264   0.857   9.085   3.702 -0.0489  0.8469 -0.6313
   10bbb    H21  265   0.857   9.097   3.803  1.0876 -0.5211 -0.4380
   11bbb     C1  266   0.510   8.078   3.725  0.6094 -0.4372 -0.3509
   11bbb     H1  267   0.554   8.000   3.787 -1.4334 -0.9297  0.5860
   11bbb     H2  268   0.588   8.103   3.652  1.7823 -1.1012  0.6550
   11bbb     C2  269   0.483   8.217   3.794 -0.8004  0.0382  0.3299
   11bbb     H3  270   0.403   8.253   3.727 -0.5432 -1.2496 -0.7206
   11bbb     H4  271   0.451   8.207   3.898 -1.1574  3.3442  0.6599
   11bbb     N1  272   0.384   8.017   3.670 -0.2087  0.2855  0.4501
   11bbb     C3  273   0.285   7.979   3.765 -0.0134  0.2095  0.0242
   11bbb     H5  274   0.302   8.032   3.860  3.0853  1.3699 -1.0519
   11bbb     H6  275   0.295   7.870   3.775  1.1985  0.2131 -0.9096
   11bbb     C4  276   0.403   7.922   3.558  0.3592  0.2388 -0.5135
   11bbb     H7  277   0.467   7.838   3.587  2.4514  0.7818 -3.1005
   11bbb     H8  278   0.305   7.882   3.528 -1.0132  1.1707  2.4004
   11bbb     C5  279   0.476   7.980   3.443 -0.0667 -0.7177 -0.1119
   11bbb     H9  280   0.438   8.081   3.422  1.6044 -0.3314 -1.4989
   11bbb    H10  281   0.585   7.988   3.457  0.2365 -2.3158 -1.2394
   11bbb     C6  282   0.143   8.008   3.706  0.5168 -0.0395  0.4834
   11bbb    H11  283   0.146   8.103   3.650  3.0096 -0.7113 -0.6632
   11bbb    H12  284   0.107   7.931   3.637 -1.5105 -0.8244  2.2714
   11bbb     C7  285   0.455   7.901   3.317 -0.0709 -0.1846  0.3906
   11bbb     C8  286   0.037   8.018   3.811  0.1182  0.0873 -1.1234
   11bbb     O1  287   0.379   7.936   3.228  0.2281 -0.2346  0.2525
   11bbb     O2  288   0.060   7.974   3.925  0.9675  0.2129  0.5703
   11bbb     N4  289   0.606   8.306   3.792 -0.1954 -0.4031 -0.3015
   11bbb    H21  290   0.693   8.258   3.810 -0.8189 -1.4476  0.0483
   12bbb     C1  291   1.205   8.086   3.936  0.0009  0.1006 -0.2764
   12bbb     H1  292   1.112   8.110   3.988 -1.1436 -0.3673 -2.0075
   12bbb     H2  293   1.167   8.058   3.837 -1.6352 -3.9774  1.2836
   12bbb     C2  294   1.284   7.974   4.009  0.0996  0.9711 -0.4485
   12bbb     H3  295   1.271   7.987   4.117 -1.2253  2.2042 -0.7289
   12bbb     H4  296   1.235   7.879   3.985  1.3508  0.6925 -2.1323
   12bbb     N1  297   1.287   8.203   3.946 -0.1573  0.0835 -0.4708
   12bbb     C3  298   1.253   8.279   4.064  0.0192  0.2271  0.2609
   12bbb     H5  299   1.252   8.218   4.156  0.2102  1.8173  1.3476
   12bbb     H6  300   1.151   8.316   4.054 -1.0555 -2.5111  0.1589
   12bbb     C4  301   1.283   8.282   3.820  0.0944 -0.2437  0.7798
   12bbb     H7  302   1.182   8.324   3.811  1.5088  3.1672 -0.6258
   12bbb     H8  303   1.352   8.367   3.830 -0.5470  0.2452  1.0892
   12bbb     C5  304   1.320   8.208   3.693 -0.9739 -0.0540  0.1729
   12bbb     H9  305   1.256   8.119   3.687 -2.3178  0.5617  3.3950
   12bbb    H10  306   1.295   8.284   3.617 -0.0746 -0.3781 -0.4544
   12bbb     C6  307   1.352   8.401   4.094  0.1735 -0.3497 -0.0532
   12bbb    H11  308   1.453   8.362   4.108  0.6523  1.1847  1.0777
   12bbb    H12  309   1.348   8.472   4.011 -4.0546 -0.8005 -0.4505
   12bbb     C7  310   1.465   8.172   3.687  0.7846 -0.1643 -0.9794
   12bbb     C8  311   1.306   8.469   4.224 -0.2057  0.2491 -0.0861
   12bbb     O1  312   1.501   8.063   3.717  0.6119 -0.4745 -0.5562
   12bbb     O2  313   1.187   8.494   4.243 -0.0403  0.1582  0.2589
   12bbb     N4  314   1.420   7.963   3.959  0.0735  0.2668  0.1539
   12bbb    H21  315   1.445   8.030   3.887 -0.1102  0.2728  0.0936
   13bbb     C1  316   1.930   7.270   4.249  0.2923  0.0739 -0.3915
   13bbb     H1  317   1.938   7.185   4.317 -0.1792  0.2322 -0.1328
   13bbb     H2  318   1.962   7.231   4.151 -1.0934  0.2954 -0.9684
   13bbb     C2  319   2.021   7.386   4.294  0.5169 -0.0614 -0.8349
   13bbb     H3  320   2.000   7.401   4.401  1.9448  0.8075 -0.6383
   13bbb     H4  321   2.125   7.353   4.284  0.2817 -0.6412 -1.4314
   13bbb     N1  322   1.790   7.314   4.246  0.3502  0.3106  0.6693
   13bbb     C3  323   1.726   7.294   4.381 -0.3402 -0.4831  0.5407
   13bbb     H5  324   1.790   7.341   4.457  0.1636  1.0070 -0.7619
   13bbb     H6  325   1.717   7.185   4.392  1.5041 -0.7016  0.0748
   13bbb     C4  326   1.714   7.255   4.138 -0.1996  0.4495  0.1847
   13bbb     H7  327   1.719   7.145   4.139 -2.7165  0.2727  0.0962
   13bbb     H8  328   1.605   7.270   4.148 -0.4279 -0.8297 -0.1037
   13bbb     C5  329   1.753   7.315   3.996  0.4891  0.2264  0.1658
   13bbb     H9  330   1.733   7.423   3.991 -0.8463 -0.0313 -0.6765
   13bbb    H10  331   1.854   7.284   3.968  0.3796  0.2381 -0.2564
   13bbb     C6  332   1.591   7.366   4.398 -0.4735 -0.7089 -0.0243
   13bbb    H11  333   1.587   7.465   4.351  1.5122 -0.8972 -0.6504
   13bbb    H12  334   1.517   7.296   4.357  0.0232 -0.0481 -2.1714
   13bbb     C7  335   1.661   7.246   3.894 -0.7583  0.1491 -0.8463
   13bbb     C8  336   1.550   7.380   4.541  0.0999  0.5847  0.8461
   13bbb     O1  337   1.542   7.272   3.897  0.2807  0.1525  0.0745
   13bbb     O2  338   1.569   7.289   4.620  0.0454 -0.1427  0.2334
   13bbb     N4  339   1.992   7.520   4.223 -0.3220 -0.4509  0.6264
   13bbb    H21  340   1.922   7.578   4.268 -0.3480  0.3680 -0.4232
   14bbb     C1  341   0.005   6.690   2.921  0.1581  0.1191  0.3539
   14bbb     H1  342   0.069   6.673   3.008  0.3082 -1.4727 -0.0450
   14bbb     H2  343  -0.073   6.613   2.915 -0.0396  0.2198  1.4321
   14bbb     C2  344   0.098   6.699   2.792 -0.0305  1.0249  0.6744
   14bbb     H3  345   0.116   6.593   2.769 -2.6947  1.0993 -2.5000
   14bbb     H4  346   0.052   6.735   2.700  2.0908 -0.2174 -0.9601
   14bbb     N1  347  -0.069   6.816   2.947 -0.3954 -0.4830  0.8781
   14bbb     C3  348  -0.144   6.811   3.075  0.0601 -0.7674  0.0401
   14bbb     H5  349  -0.172   6.707   3.098 -2.5506 -0.0069  0.5813
   14bbb     H6  350  -0.233   6.875   3.075  0.3702 -0.1378 -3.2965
   14bbb     C4  351  -0.169   6.860   2.837  0.0736  0.1736 -0.8378
   14bbb     H7  352  -0.128   6.863   2.736 -0.0587  1.3392 -0.8747
   14bbb     H8  353  -0.254   6.792   2.838  0.2278 -0.0504  0.8788
   14bbb     C5  354  -0.228   7.001   2.857 -0.6036  0.4188 -0.9705
   14bbb     H9  355  -0.307   7.009   2.932 -0.5690 -0.2950 -0.8539
   14bbb    H10  356  -0.140   7.061   2.884  0.6874 -0.9691 -1.9506
   14bbb     C6  357  -0.042   6.865   3.182 -0.0017  0.4611  0.6963
   14bbb    H11  358   0.056   6.817   3.191 -0.1662 -0.2087 -0.7753
   14bbb    H12  359  -0.012   6.966   3.153  0.3963 -0.2857 -1.7077
   14bbb     C7  360  -0.281   7.051   2.729  0.4295  0.1289  0.4147
   14bbb     C8  361  -0.114   6.859   3.313  0.3228 -0.8166 -0.1201
   14bbb     O1  362  -0.361   6.983   2.672 -0.5991 -0.2112  0.1928
   14bbb     O2  363  -0.216   6.925   3.326 -0.2207 -0.5524 -0.9109
   14bbb     N4  364   0.226   6.767   2.811 -0.2717  0.7071  0.0205
   14bbb    H21  365   0.243   6.797   2.906 -1.2272 -0.8406  0.7213
   15bbb     C1  366   1.154   6.821   3.030  0.1177  0.4346 -0.6312
   15bbb     H1  367   1.233   6.752   3.064  0.0816  1.6622  2.2277
   15bbb     H2  368   1.087   6.830   3.116 -0.4526 -3.3905 -0.4983
   15bbb     C2  369   1.077   6.749   2.914 -0.3539  0.5819  0.2573
   15bbb     H3  370   1.132   6.738   2.820 -0.7816 -3.0324  0.3065
   15bbb     H4  371   1.038   6.652   2.947 -0.5042  0.6973  0.4209
   15bbb     N1  372   1.206   6.950   2.990 -0.6941  0.3390  0.0143
   15bbb     C3  373   1.301   6.944   2.881 -0.1171 -0.1486 -0.5909
   15bbb     H5  374   1.320   6.842   2.845  0.9021  0.1466 -0.9425
   15bbb     H6  375   1.398   6.985   2.914 -0.2564  0.7572 -1.2825
   15bbb     C4  376   1.268   7.023   3.106 -0.3867 -0.3508 -0.2611
   15bbb     H7  377   1.204   7.010   3.194  1.1054  1.0371  1.0774
   15bbb     H8  378   1.370   6.995   3.134  0.4137  2.6397  0.0794
   15bbb     C5  379   1.261   7.169   3.090  0.8215 -0.7151 -0.5559
   15bbb     H9  380   1.338   7.200   3.018  1.7734  1.3852  1.2578
   15bbb    H10  381   1.163   7.196   3.048  0.4004  0.1047  0.8915
   15bbb     C6  382   1.254   7.032   2.776 -0.3109 -0.5961  0.8510
   15bbb    H11  383   1.152   7.011   2.744 -1.1811  0.0247  3.0184
   15bbb    H12  384   1.245   7.131   2.824 -0.7877 -0.2010 -0.0232
   15bbb     C7  385   1.282   7.249   3.214 -0.1109 -0.2297  0.0309
   15bbb     C8  386   1.357   7.052   2.665 -0.5826  0.5705 -0.2354
   15bbb     O1  387   1.393   7.277   3.255  0.2425 -0.5142 -0.6193
   15bbb     O2  388   1.440   7.132   2.677  0.1277  0.0667  0.2888
   15bbb     N4  389   0.950   6.821   2.882 -0.3672  0.3353 -0.3561
   15bbb    H21  390   0.919   6.890   2.949  1.1645 -0.4724  1.2660
   16bbb     C1  391   0.635   9.039   2.950  0.6292  0.3802 -0.2205
   16bbb     H1  392   0.655   8.990   3.046 -0.5633  0.6559  0.1858
   16bbb     H2  393   0.527   9.060   2.959  0.4317 -1.0199  1.1322
   16bbb     C2  394   0.680   8.966   2.826  0.4406 -0.1250 -0.1948
   16bbb     H3  395   0.614   9.008   2.748 -2.0947 -0.4634  1.6560
   16bbb     H4  396   0.783   8.985   2.796  0.0517 -1.1986 -2.4291
   16bbb     N1  397   0.699   9.176   2.946 -0.2788  0.0187 -1.1273
   16bbb     C3  398   0.723   9.231   3.085 -0.1921  0.1229 -0.5430
   16bbb     H5  399   0.677   9.165   3.160 -0.4195 -0.0663 -0.8493
   16bbb     H6  400   0.679   9.331   3.093 -1.7694 -0.5518 -0.4021
   16bbb     C4  401   0.625   9.268   2.858  0.1550 -0.1843 -0.0589
   16bbb     H7  402   0.584   9.210   2.775  0.8184 -1.6878  0.6258
   16bbb     H8  403   0.548   9.326   2.911 -0.6034 -1.0332 -0.1995
   16bbb     C5  404   0.716   9.369   2.799 -0.4483 -0.5662 -0.0865
   16bbb     H9  405   0.745   9.441   2.876 -0.0454 -1.1866  0.3555
   16bbb    H10  406   0.806   9.324   2.755  0.5989  2.1982 -1.0292
   16bbb     C6  407   0.875   9.223   3.089  0.1316  0.4295 -0.1985
   16bbb    H11  408   0.912   9.126   3.053  0.0636  0.1019  0.6120
   16bbb    H12  409   0.919   9.305   3.030  0.9195 -0.0276 -0.2573
   16bbb     C7  410   0.636   9.439   2.696  0.2956  0.1900  1.2558
   16bbb     C8  411   0.932   9.248   3.227 -0.0796  0.1973  0.5950
   16bbb     O1  412   0.576   9.539   2.729 -0.2320 -0.1099  0.3585
   16bbb     O2  413   0.880   9.329   3.307 -0.0434  0.3450  0.1350
   16bbb     N4  414   0.672   8.824   2.852 -0.1967 -0.1311  0.2060
   16bbb    H21  415   0.669   8.793   2.949  1.9283 -0.3764  0.2503
   17bbb     C1  416   0.272   8.334   3.508  0.2603  0.4124  0.2957
   17bbb     H1  417   0.239   8.390   3.597  0.1038 -0.4043  0.7630
   17bbb     H2  418   0.284   8.228   3.531 -0.2788  0.3843  0.4759
   17bbb     C2  419   0.415   8.384   3.467 -0.1623  0.4033 -0.3751
   17bbb     H3  420   0.416   8.490   3.496 -2.6343  0.3651  0.1244
   17bbb     H4  421   0.491   8.343   3.534  1.6119  1.6043 -1.5965
   17bbb     N1  422   0.171   8.357   3.402  0.3716 -0.5277 -0.3524
   17bbb     C3  423   0.132   8.496   3.385  0.3526 -0.0344 -0.0436
   17bbb     H5  424   0.224   8.555   3.395  0.4177 -0.3765  1.8810
   17bbb     H6  425   0.053   8.527   3.455  2.0901 -0.7014  2.3731
   17bbb     C4  426   0.049   8.278   3.441  0.2786 -0.1395 -0.3190
   17bbb     H7  427   0.040   8.261   3.549  0.5734  0.7883 -0.1435
   17bbb     H8  428  -0.044   8.313   3.395  0.5474 -0.1894 -0.9022
   17bbb     C5  429   0.070   8.140   3.377  0.3517 -0.2587 -0.2005
   17bbb     H9  430   0.090   8.153   3.270  0.3851 -2.0948 -0.4504
   17bbb    H10  431   0.147   8.074   3.421 -0.0243  0.2875  1.3415
   17bbb     C6  432   0.072   8.506   3.244  0.6065  0.1213 -0.1119
   17bbb    H11  433   0.143   8.456   3.177 -0.6476 -1.2135 -0.4948
   17bbb    H12  434  -0.028   8.463   3.227 -0.3178  1.4022  1.7488
   17bbb     C7  435  -0.060   8.067   3.394 -0.4154  0.4317  0.4845
   17bbb     C8  436   0.070   8.646   3.186 -0.2541  0.1646  0.0651
   17bbb     O1  437  -0.139   8.093   3.480 -0.1991 -0.5947 -0.0005
   17bbb     O2  438   0.114   8.742   3.241  0.1012  0.1945 -0.0810
   17bbb     N4  439   0.448   8.359   3.326 -0.2591  0.3982 -0.2211
   17bbb    H21  440   0.366   8.357   3.267 -0.7368  3.2748  0.1899
   18bbb     C1  441   1.935   8.852   2.487  0.5292 -0.9238 -0.8682
   18bbb     H1  442   1.889   8.885   2.581  3.1679  0.7391 -0.0457
   18bbb     H2  443   1.960   8.746   2.496 -0.3433 -0.9451  2.4861
   18bbb     C2  444   2.072   8.920   2.468  0.1450 -0.2245  0.0602
   18bbb     H3  445   2.058   9.026   2.444 -0.0270  0.0630  1.3285
   18bbb     H4  446   2.115   8.926   2.569 -0.4807 -0.5917  0.3550
   18bbb     N1  447   1.843   8.875   2.372  0.0666  0.3223 -0.8877
   18bbb     C3  448   1.744   8.988   2.386 -0.9854  0.3495 -0.0649
   18bbb     H5  449   1.665   8.954   2.455 -1.5548 -2.2202 -1.8373
   18bbb     H6  450   1.707   8.990   2.283  0.7019  0.2253 -0.6857
   18bbb     C4  451   1.790   8.756   2.312 -0.6160 -0.5829 -0.5751
   18bbb     H7  452   1.741   8.699   2.392  0.2683  0.1330  0.5027
   18bbb     H8  453   1.718   8.783   2.234  1.6274  0.6158 -2.3472
   18bbb     C5  454   1.897   8.664   2.253  0.2498  0.3942 -0.4394
   18bbb     H9  455   1.937   8.707   2.161  1.0043 -0.6646 -0.6287
   18bbb    H10  456   1.984   8.638   2.315 -0.7769  0.5620  1.1232
   18bbb     C6  457   1.800   9.127   2.419  0.1550 -0.2873  0.3534
   18bbb    H11  458   1.851   9.127   2.515  2.0626 -2.6708 -0.5429
   18bbb    H12  459   1.877   9.159   2.348  0.4101  1.1234  1.2373
   18bbb     C7  460   1.836   8.527   2.213 -0.6903  0.2099  0.2694
   18bbb     C8  461   1.684   9.226   2.416 -0.2928 -0.1740  0.0877
   18bbb     O1  462   1.872   8.413   2.247  0.2410  0.3151  0.0207
   18bbb     O2  463   1.643   9.274   2.311 -0.5510 -0.5449 -0.4178
   18bbb     N4  464   2.178   8.854   2.388 -0.5583 -0.2281 -0.1566
   18bbb    H21  465   2.259   8.813   2.434 -1.1185 -0.4102  0.6888
   19bbb     C1  466   1.816   8.080   1.887 -0.4331  0.6573  0.0852
   19bbb     H1  467   1.808   7.975   1.857 -1.8900  0.4590  1.0563
   19bbb     H2  468   1.726   8.138   1.863  0.7213  1.9735 -1.2349
   19bbb     C2  469   1.932   8.157   1.826 -0.5122  1.2702 -0.2122
   19bbb     H3  470   2.015   8.085   1.824  0.3605  2.2492 -0.2720
   19bbb     H4  471   1.910   8.187   1.723 -3.2668 -0.1534 -0.1244
   19bbb     N1  472   1.827   8.065   2.033 -0.1898 -0.4627  0.2663
   19bbb     C3  473   1.920   7.965   2.076 -0.6212 -0.4732 -0.1621
   19bbb     H5  474   1.959   7.907   1.992 -2.1551 -2.3896  0.3849
   19bbb     H6  475   1.876   7.895   2.147  2.3401 -1.8142  0.5320
   19bbb     C4  476   1.697   8.059   2.094 -0.6603 -0.6654  0.2620
   19bbb     H7  477   1.628   8.131   2.047 -2.3247 -0.3226  3.0144
   19bbb     H8  478   1.653   7.959   2.087  1.2119 -2.0395  4.6585
   19bbb     C5  479   1.714   8.091   2.251  0.1827 -0.5958  0.4745
   19bbb     H9  480   1.743   8.003   2.310  1.4232  0.2635  1.1973
   19bbb    H10  481   1.789   8.168   2.273  0.2494 -0.7926  0.9582
   19bbb     C6  482   2.045   8.030   2.149  0.0598  0.8914 -0.0133
   19bbb    H11  483   2.112   8.068   2.071 -0.2472 -1.9596 -1.7759
   19bbb    H12  484   2.001   8.107   2.213 -2.9166  4.2568 -5.3917
   19bbb     C7  485   1.586   8.142   2.308  0.2258  0.4255  1.0487
   19bbb     C8  486   2.127   7.928   2.221 -0.2404  0.0747  0.1992
   19bbb     O1  487   1.486   8.070   2.313 -0.3823 -0.3003  0.0056
   19bbb     O2  488   2.081   7.824   2.267  0.4428 -0.1617  0.2981
   19bbb     N4  489   1.987   8.269   1.904  0.6988 -0.2707  0.3313
   19bbb    H21  490   1.969   8.267   2.003 -0.3257 -0.7041  0.1526
   20bbb     C1  491   1.617   9.202   3.082 -0.8814  1.0032 -1.1556
   20bbb     H1  492   1.632   9.207   3.191  0.1024 -0.3190 -1.1974
   20bbb     H2  493   1.617   9.097   3.051  2.6718  0.1738  0.9428
   20bbb     C2  494   1.733   9.271   3.009  0.7493 -0.3576  0.9814
   20bbb     H3  495   1.688   9.304   2.915  0.1062  1.2258  1.8038
   20bbb     H4  496   1.782   9.353   3.062  0.6373  0.8987 -0.8106
   20bbb     N1  497   1.496   9.271   3.041  0.3998  1.0549  0.3336
   20bbb     C3  498   1.491   9.403   3.092 -0.6156 -0.0931 -0.6814
   20bbb     H5  499   1.586   9.455   3.079 -0.8580  0.3440 -0.7252
   20bbb     H6  500   1.467   9.399   3.199 -0.8381  0.2094 -0.7174
   20bbb     C4  501   1.380   9.184   3.056  0.0381  1.0123 -0.5092
   20bbb     H7  502   1.386   9.129   3.151 -2.1998 -0.0984 -0.9506
   20bbb     H8  503   1.285   9.239   3.063 -0.7451 -0.3884  0.2747
   20bbb     C5  504   1.366   9.090   2.940 -0.2239 -0.5741  0.0453
   20bbb     H9  505   1.378   9.152   2.850  2.5148  1.8081  1.8679
   20bbb    H10  506   1.451   9.020   2.942  0.3508  0.1063 -0.3331
   20bbb     C6  507   1.382   9.477   3.025 -0.2818 -0.6260  0.0763
   20bbb    H11  508   1.374   9.448   2.920  1.1567  0.5088 -0.3676
   20bbb    H12  509   1.284   9.462   3.074  0.0998 -0.1392  1.0236
   20bbb     C7  510   1.241   9.011   2.942  0.1561  0.1089  0.8144
   20bbb     C8  511   1.424   9.623   3.027  0.1582 -0.9128 -0.1072
   20bbb     O1  512   1.154   9.030   3.022 -0.4826 -0.1501 -0.8966
   20bbb     O2  513   1.478   9.675   3.122 -0.2647  0.9003  0.2349
   20bbb     N4  514   1.846   9.183   2.983 -0.6209 -0.7621 -0.8645
   20bbb    H21  515   1.897   9.153   3.066 -3.0727  0.2796  1.1543
   21bbb     C1  516   2.486   9.431   2.249 -0.0743 -1.8623  0.3343
   21bbb     H1  517   2.558   9.477   2.180 -0.6280 -0.0470  0.9070
   21bbb     H2  518   2.415   9.513   2.270  0.7458 -0.0793 -3.1622
   21bbb     C2  519   2.554   9.391   2.379 -0.1414 -0.4253  0.0857
   21bbb     H3  520   2.626   9.311   2.354  0.5513  0.5391 -1.0896
   21bbb     H4  521   2.624   9.470   2.407 -1.8570  2.2606 -2.5393
   21bbb     N1  522   2.429   9.312   2.188  0.1042 -0.7082 -0.4654
   21bbb     C3  523   2.535   9.232   2.126  0.4700  0.5032 -0.3790
   21bbb     H5  524   2.631   9.257   2.172  0.4080  1.7214 -0.8699
   21bbb     H6  525   2.547   9.252   2.019  0.0951  0.0823 -0.5012
   21bbb     C4  526   2.316   9.334   2.100 -0.3421 -0.5456 -0.6461
   21bbb     H7  527   2.311   9.439   2.067 -0.1340 -0.6533 -1.0190
   21bbb     H8  528   2.312   9.266   2.015  1.9694 -1.9362  0.2669
   21bbb     C5  529   2.197   9.300   2.184  0.5581  0.2419 -0.5228
   21bbb     H9  530   2.195   9.197   2.221 -1.0472  0.2168 -0.5923
   21bbb    H10  531   2.178   9.359   2.275 -0.4610  0.7499 -1.0425
   21bbb     C6  532   2.496   9.093   2.150  0.1638  0.0008 -0.1556
   21bbb    H11  533   2.434   9.082   2.240  1.9938  1.0509  1.3081
   21bbb    H12  534   2.424   9.056   2.076  1.1376 -1.1850 -0.5574
   21bbb     C7  535   2.063   9.319   2.106 -0.6411 -0.6492 -0.3295
   21bbb     C8  536   2.610   9.001   2.146  0.1513  0.4695 -0.3703
   21bbb     O1  537   2.027   9.427   2.063  0.1720  0.4651 -0.2880
   21bbb     O2  538   2.638   8.936   2.050 -0.0875  0.3865  0.7386
   21bbb     N4  539   2.465   9.348   2.491  0.2633 -0.2006  0.4603
   21bbb    H21  540   2.387   9.411   2.509 -0.7976 -1.1341 -0.6827
   22bbb     C1  541   0.605   9.971   3.279  0.8799 -0.2714  0.0772
   22bbb     H1  542   0.663   9.915   3.205 -0.9258  0.0320 -1.6384
   22bbb     H2  543   0.672  10.052   3.312  1.2885 -0.0355 -1.2732
   22bbb     C2  544   0.578   9.882   3.403  0.7191  0.4283 -0.8135
   22bbb     H3  545   0.575   9.939   3.496  3.1957 -0.7933  0.0825
   22bbb     H4  546   0.482   9.830   3.390 -0.4816  2.3238  0.0397
   22bbb     N1  547   0.485  10.039   3.228 -0.8168 -0.5892 -0.3555
   22bbb     C3  548   0.523  10.127   3.112  0.3806  0.1623 -0.5229
   22bbb     H5  549   0.611  10.188   3.137  0.2329 -0.0278  0.4927
   22bbb     H6  550   0.441  10.199   3.096  2.8248  3.6197  1.1450
   22bbb     C4  551   0.428  10.123   3.332  0.0041  0.0843 -0.2801
   22bbb     H7  552   0.436  10.090   3.437 -0.0017  0.7166 -0.0773
   22bbb     H8  553   0.483  10.218   3.333  2.1489 -1.0948 -0.4587
   22bbb     C5  554   0.277  10.159   3.306 -0.2498  0.1167  0.2085
   22bbb     H9  555   0.265  10.205   3.207 -0.2014 -1.4935 -0.5956
   22bbb    H10  556   0.219  10.065   3.301  1.6392 -1.2503  2.2111
   22bbb     C6  557   0.556  10.042   2.996 -0.2523 -0.1493  0.0040
   22bbb    H11  558   0.653   9.994   3.015 -0.1128  0.0110 -0.2897
   22bbb    H12  559   0.489   9.957   2.983 -0.4445 -0.5563  2.9012
   22bbb     C7  560   0.230  10.244   3.416  0.0087  0.2396 -0.1211
   22bbb     C8  561   0.554  10.131   2.877  0.2031 -0.4536  0.6533
   22bbb     O1  562   0.215  10.367   3.400 -0.4155  0.3020 -0.0809
   22bbb     O2  563   0.655  10.163   2.815 -0.1731  0.3641  0.0292
   22bbb     N4  564   0.689   9.782   3.421  0.3569 -0.9015 -0.5101
   22bbb    H21  565   0.757   9.776   3.346  1.6861 -1.0254  0.6693
   23bbb     C1  566   1.053   9.586   3.175 -0.4048  0.0655 -0.2855
   23bbb     H1  567   0.946   9.580   3.200  0.0877 -0.6340  1.8149
   23bbb     H2  568   1.084   9.484   3.152 -0.4624  0.2146 -1.0473
   23bbb     C2  569   1.144   9.620   3.294  0.0997 -0.1861 -1.3447
   23bbb     H3  570   1.248   9.631   3.259  2.1912 -2.3854  3.3197
   23bbb     H4  571   1.119   9.716   3.342  1.3961 -0.0209 -0.9454
   23bbb     N1  572   1.075   9.682   3.068 -0.6283  0.4982  0.5254
   23bbb     C3  573   1.044   9.827   3.100 -0.2097 -0.0216 -0.9399
   23bbb     H5  574   1.012   9.828   3.205  1.4730 -1.8794 -0.3365
   23bbb     H6  575   0.966   9.868   3.036 -0.5817  0.9509  0.1047
   23bbb     C4  576   1.025   9.624   2.942 -0.0191  0.2410 -0.1815
   23bbb     H7  577   1.059   9.520   2.929 -0.5130  0.3668 -3.7519
   23bbb     H8  578   0.915   9.621   2.943 -0.0279 -0.7881 -1.3166
   23bbb     C5  579   1.059   9.707   2.817  0.1473  0.3233 -0.2986
   23bbb     H9  580   1.045   9.815   2.833 -0.8717  0.3589 -1.3279
   23bbb    H10  581   1.167   9.689   2.809  0.6769  0.1381  4.3182
   23bbb     C6  582   1.175   9.906   3.091 -0.4814 -0.3380 -0.0193
   23bbb    H11  583   1.259   9.852   3.134 -1.4877 -1.0881  1.0720
   23bbb    H12  584   1.207   9.943   2.992  0.6924 -1.0015  0.0957
   23bbb     C7  585   0.985   9.664   2.692 -0.4524  0.2226  0.0893
   23bbb     C8  586   1.140  10.021   3.184 -0.0484 -0.6126 -0.3008
   23bbb     O1  587   0.948   9.549   2.673  0.3071  0.1482 -0.4814
   23bbb     O2  588   1.082  10.123   3.151  0.1916  0.4791  0.5168
   23bbb     N4  589   1.148   9.513   3.400  0.0991 -0.0613 -0.2258
   23bbb    H21  590   1.065   9.456   3.410 -0.9514  1.0529 -2.0197
   24bbb     C1  591   0.533   7.558   3.174 -0.4410 -0.2293 -0.1923
   24bbb     H1  592   0.562   7.516   3.076  5.0823  0.5359  0.7934
   24bbb     H2  593   0.430   7.528   3.195 -0.8494 -2.2106 -4.0213
   24bbb     C2  594   0.560   7.712   3.172 -0.3572  0.1899 -0.5542
   24bbb     H3  595   0.663   7.734   3.139 -0.7776  1.3329 -1.1405
   24bbb     H4  596   0.493   7.748   3.094 -3.1538  0.8418  1.9909
   24bbb     N1  597   0.619   7.492   3.264  0.0561 -0.1243 -0.1070
   24bbb     C3  598   0.694   7.380   3.210  0.7914 -0.0615  0.6499
   24bbb     H5  599   0.630   7.318   3.145  0.3083  0.4660  0.6125
   24bbb     H6  600   0.744   7.322   3.288  2.3451  0.6041  0.1859
   24bbb     C4  601   0.558   7.462   3.396  0.2017  0.1068 -0.0417
   24bbb     H7  602   0.487   7.539   3.430 -0.1124 -1.3981  3.1088
   24bbb     H8  603   0.507   7.365   3.400 -1.1874  0.8200  0.0941
   24bbb     C5  604   0.659   7.466   3.507 -0.3585  0.0001 -0.0790
   24bbb     H9  605   0.709   7.368   3.499  1.3752  0.8543 -0.0886
   24bbb    H10  606   0.733   7.545   3.495 -1.0675  1.3591  3.2623
   24bbb     C6  607   0.810   7.428   3.119 -0.1733  0.2219 -0.3968
   24bbb    H11  608   0.782   7.514   3.058 -0.0263  1.0597  0.6883
   24bbb    H12  609   0.887   7.463   3.188 -1.1920 -1.8702  1.9969
   24bbb     C7  610   0.589   7.481   3.641 -0.2180 -0.4875 -0.3175
   24bbb     C8  611   0.866   7.310   3.050  0.2935  0.7249 -0.2200
   24bbb     O1  612   0.503   7.401   3.672  0.5267 -0.2178  0.1088
   24bbb     O2  613   0.936   7.224   3.106  0.3755 -0.3477 -0.2637
   24bbb     N4  614   0.533   7.787   3.302  0.2007 -0.1631 -0.2644
   24bbb    H21  615   0.590   7.765   3.383  1.2961  0.3433 -0.8685
   25bbb     C1  616  -0.237   8.268   3.825  0.6177  0.0829  0.5751
   25bbb     H1  617  -0.311   8.304   3.897 -1.1166 -1.6954 -0.2344
   25bbb     H2  618  -0.291   8.254   3.731  2.6889  1.5528 -0.9203
   25bbb     C2  619  -0.193   8.124   3.866  0.0760 -0.7174  1.0756
   25bbb     H3  620  -0.172   8.117   3.973 -0.4414  1.8337  1.3960
   25bbb     H4  621  -0.287   8.067   3.863  0.7783 -1.8901  0.7574
   25bbb     N1  622  -0.119   8.355   3.801  0.0670  0.1682 -0.2115
   25bbb     C3  623  -0.039   8.380   3.918  0.5110 -0.3473  0.7060
   25bbb     H5  624  -0.046   8.308   4.000 -0.4547 -0.2999  0.6739
   25bbb     H6  625  -0.070   8.476   3.961 -0.7996  0.4974 -1.9442
   25bbb     C4  626  -0.153   8.486   3.740  0.2844 -0.3492 -0.8076
   25bbb     H7  627  -0.210   8.546   3.812  0.4005  0.8689 -1.7083
   25bbb     H8  628  -0.062   8.544   3.723  0.9345 -0.8807  0.7232
   25bbb     C5  629  -0.238   8.473   3.613  0.0416  0.4455 -0.4810
   25bbb     H9  630  -0.211   8.380   3.561 -2.7196 -0.6002 -0.2173
   25bbb    H10  631  -0.342   8.465   3.647  0.0932  0.8619 -0.2219
   25bbb     C6  632   0.100   8.398   3.864  0.5654 -0.5288 -0.2884
   25bbb    H11  633   0.133   8.310   3.808 -0.2565 -1.4262  0.6031
   25bbb    H12  634   0.110   8.488   3.802  0.8845 -1.0379 -0.9924
   25bbb     C7  635  -0.223   8.586   3.524 -0.1131 -0.0858  1.1474
   25bbb     C8  636   0.193   8.410   3.979 -0.6794  0.3110 -0.4855
   25bbb     O1  637  -0.151   8.685   3.541  0.1254 -0.4025  0.8031
   25bbb     O2  638   0.241   8.307   4.028 -0.3649  0.1357 -0.2306
   25bbb     N4  639  -0.090   8.060   3.773 -0.0718 -0.0595  0.0174
   25bbb    H21  640  -0.092   8.064   3.672 -0.3814 -0.2753  0.0143
   26bbb     C1  641   1.764   8.247   3.795  0.5134  0.2862  0.1691
   26bbb     H1  642   1.870   8.269   3.782  0.7226 -0.3650  0.7441
   26bbb     H2  643   1.745   8.147   3.835  0.9127 -0.4696 -1.4349
   26bbb     C2  644   1.699   8.256   3.654 -0.1762 -0.5078 -1.1190
   26bbb     H3  645   1.754   8.331   3.596  2.3052  0.2901  1.9657
   26bbb     H4  646   1.715   8.160   3.602 -0.8526 -1.1504 -0.1833
   26bbb     N1  647   1.717   8.343   3.894 -0.0421 -0.1518  0.0279
   26bbb     C3  648   1.753   8.479   3.848 -0.2568 -0.0170  0.1202
   26bbb     H5  649   1.753   8.490   3.739  1.9854  1.6137  0.1963
   26bbb     H6  650   1.858   8.500   3.873 -0.0476 -1.6389  0.6981
   26bbb     C4  651   1.753   8.319   4.038 -0.5751  0.0490  0.0576
   26bbb     H7  652   1.857   8.333   4.069 -0.2992 -0.3964 -0.6520
   26bbb     H8  653   1.689   8.386   4.097 -0.4367  0.7398 -0.5624
   26bbb     C5  654   1.705   8.184   4.084 -0.6794 -0.0842 -0.0905
   26bbb     H9  655   1.601   8.168   4.052 -0.4542  0.6411 -1.2241
   26bbb    H10  656   1.771   8.106   4.046 -0.4469 -0.1015  0.3485
   26bbb     C6  657   1.656   8.580   3.914 -0.1475 -0.0503 -0.7272
   26bbb    H11  658   1.554   8.550   3.890  0.7807 -1.7883 -2.8835
   26bbb    H12  659   1.680   8.580   4.021  0.8181  1.4470 -0.9205
   26bbb     C7  660   1.704   8.182   4.235  0.5572  0.3708 -0.7192
   26bbb     C8  661   1.693   8.721   3.864  0.9012 -0.4704 -0.4665
   26bbb     O1  662   1.634   8.257   4.304  0.4877  0.3223  0.2856
   26bbb     O2  663   1.742   8.805   3.937  0.0818  0.0102  0.1984
   26bbb     N4  664   1.551   8.272   3.654 -0.3044 -0.2493 -0.6371
   26bbb    H21  665   1.513   8.366   3.653  1.4269  0.4883 -0.5764
   27bbb     C1  666   1.529   8.625   4.496  0.5327 -0.2024 -0.5947
   27bbb     H1  667   1.564   8.528   4.533  2.1268  0.6565  0.2627
   27bbb     H2  668   1.510   8.687   4.585 -0.7066  0.1903 -1.1036
   27bbb     C2  669   1.394   8.591   4.427  0.2235 -0.3224 -0.3314
   27bbb     H3  670   1.331   8.540   4.501  1.5378  2.3890  2.9177
   27bbb     H4  671   1.342   8.685   4.406  0.2630 -0.6170 -1.8291
   27bbb     N1  672   1.627   8.688   4.401  0.2987 -0.4597  0.2728
   27bbb     C3  673   1.589   8.828   4.371 -0.1100  0.4646 -0.2166
   27bbb     H5  674   1.666   8.899   4.401  0.9759 -1.1170  0.9241
   27bbb     H6  675   1.497   8.857   4.423  0.0550  0.4787  0.0672
   27bbb     C4  676   1.766   8.685   4.443  0.5952 -0.4416 -0.4178
   27bbb     H7  677   1.829   8.749   4.379 -0.6933  3.5486  1.9716
   27bbb     H8  678   1.763   8.718   4.548 -0.3787 -0.9577 -0.2816
   27bbb     C5  679   1.814   8.540   4.435 -0.2274  0.2643  0.5868
   27bbb     H9  680   1.764   8.465   4.498  2.8343 -2.4872  0.0387
   27bbb    H10  681   1.795   8.500   4.334  0.7331 -1.7441  1.1438
   27bbb     C6  682   1.555   8.828   4.225 -0.4933 -0.2952  0.6486
   27bbb    H11  683   1.644   8.793   4.171 -0.6613 -2.0236  1.4259
   27bbb    H12  684   1.472   8.761   4.197 -1.9430  2.1332 -1.2744
   27bbb     C7  685   1.953   8.531   4.473 -0.1644  0.3190  0.7171
   27bbb     C8  686   1.521   8.966   4.180 -0.0147 -0.1149  0.9692
   27bbb     O1  687   2.042   8.530   4.390 -0.5533 -0.4971 -0.5811
   27bbb     O2  688   1.455   9.047   4.241 -0.2174  0.4617  0.4832
   27bbb     N4  689   1.407   8.504   4.305 -0.1332  0.3353 -0.4458
   27bbb    H21  690   1.497   8.488   4.261 -0.2558  1.3462 -1.0977
   28bbb     C1  691   1.737   7.064   3.561  0.1548 -0.2740 -0.4309
   28bbb     H1  692   1.671   7.004   3.496 -2.7878  1.6874  0.5424
   28bbb     H2  693   1.813   6.996   3.601 -0.8582 -0.1751  1.7829
   28bbb     C2  694   1.646   7.110   3.686  0.3943 -0.2951 -0.7256
   28bbb     H3  695   1.581   7.191   3.651 -0.4259  0.2277  1.7950
   28bbb     H4  696   1.588   7.021   3.714  1.3040 -0.7688 -0.3013
   28bbb     N1  697   1.788   7.186   3.486 -0.0432  0.3691 -0.3702
   28bbb     C3  698   1.910   7.241   3.552 -0.2277  0.0662  0.3212
   28bbb     H5  699   2.001   7.184   3.529 -0.1597  1.0219 -2.1395
   28bbb     H6  700   1.897   7.244   3.660  1.6838 -0.0957  0.5966
   28bbb     C4  701   1.814   7.146   3.346  0.1491 -0.0298  0.0251
   28bbb     H7  702   1.870   7.223   3.291  0.2139  1.7264  2.3504
   28bbb     H8  703   1.857   7.046   3.338  0.1842  0.1182 -2.6418
   28bbb     C5  704   1.689   7.131   3.263 -0.0189 -0.1138 -0.4931
   28bbb     H9  705   1.647   7.029   3.268  2.3675 -1.1502  0.2106
   28bbb    H10  706   1.614   7.198   3.305 -0.0683  0.0942 -0.9112
   28bbb     C6  707   1.932   7.385   3.502 -0.1189  0.0308 -1.1020
   28bbb    H11  708   1.943   7.386   3.393  0.2185 -0.1284 -1.0670
   28bbb    H12  709   1.849   7.443   3.546  1.5230  0.8247  1.1427
   28bbb     C7  710   1.701   7.174   3.123  0.3858 -0.0228  0.0404
   28bbb     C8  711   2.052   7.460   3.556 -0.2162 -0.2552 -0.1279
   28bbb     O1  712   1.767   7.112   3.044  0.6775 -0.0834  0.2143
   28bbb     O2  713   2.116   7.421   3.652 -0.0421 -0.0946  0.0545
   28bbb     N4  714   1.713   7.150   3.811 -0.0282  0.4163 -0.2488
   28bbb    H21  715   1.814   7.155   3.817 -0.1535  2.9186  1.0845
   29bbb     C1  716   1.231   7.540   4.607  0.2191 -0.2899  0.2615
   29bbb     H1  717   1.241   7.647   4.585  0.1434 -0.5740 -1.3076
   29bbb     H2  718   1.163   7.529   4.692  1.7802  1.8762  1.9091
   29bbb     C2  719   1.370   7.493   4.674  0.5660  0.7909  0.8160
   29bbb     H3  720   1.404   7.559   4.755 -0.0577  1.4673  0.5365
   29bbb     H4  721   1.359   7.393   4.718  2.1654  0.0293 -0.4433
   29bbb     N1  722   1.187   7.462   4.493 -0.4926  0.0437 -0.0023
   29bbb     C3  723   1.086   7.528   4.415  0.5500 -0.0152  0.3369
   29bbb     H5  724   1.009   7.568   4.482  1.2651  0.7063  0.7486
   29bbb     H6  725   1.032   7.463   4.346 -0.4550  0.2463  0.8526
   29bbb     C4  726   1.163   7.318   4.523  0.0483  0.0545  0.3293
   29bbb     H7  727   1.213   7.276   4.611 -0.5335 -0.7605  0.2832
   29bbb     H8  728   1.057   7.314   4.549  0.5299  0.3558  2.5303
   29bbb     C5  729   1.181   7.245   4.391 -0.3671  0.1657 -0.2150
   29bbb     H9  730   1.103   7.267   4.316 -0.5087 -0.6735 -0.3275
   29bbb    H10  731   1.278   7.284   4.357 -0.3633 -0.2448 -0.6941
   29bbb     C6  732   1.151   7.626   4.326 -0.0136 -0.0220  0.1618
   29bbb    H11  733   1.208   7.702   4.380  0.4507 -2.1775  2.9038
   29bbb    H12  734   1.222   7.575   4.260  1.3571 -0.0232  1.6010
   29bbb     C7  735   1.189   7.099   4.394  0.4743 -0.4864  0.3076
   29bbb     C8  736   1.047   7.705   4.244 -0.3639 -0.1509  0.3271
   29bbb     O1  737   1.152   7.033   4.492  0.0541 -0.3592 -0.2195
   29bbb     O2  738   0.952   7.762   4.292  0.0543 -0.5885 -0.2149
   29bbb     N4  739   1.477   7.493   4.571 -0.0781  0.2652  0.3126
   29bbb    H21  740   1.473   7.561   4.495 -0.7348  1.1867  1.1386
   30bbb     C1  741  -0.167   7.314   2.490  0.0031  0.0187 -0.1875
   30bbb     H1  742  -0.156   7.401   2.557  0.0766  1.3203 -1.8268
   30bbb     H2  743  -0.205   7.361   2.399 -3.4417 -0.3250  0.9223
   30bbb     C2  744  -0.281   7.224   2.546 -0.8222 -0.0920 -0.6701
   30bbb     H3  745  -0.374   7.276   2.570 -1.4149 -2.1274  1.8244
   30bbb     H4  746  -0.313   7.147   2.475  0.8279 -0.7595 -0.7384
   30bbb     N1  747  -0.035   7.244   2.468 -0.8211  1.0554  0.0406
   30bbb     C3  748  -0.051   7.130   2.372  0.3312  0.5198  0.5008
   30bbb     H5  749  -0.046   7.180   2.275 -2.1939  1.6643  0.8763
   30bbb     H6  750  -0.144   7.075   2.389  0.4895  0.4384  1.1225
   30bbb     C4  751   0.061   7.341   2.422 -0.1767 -0.1852  1.1342
   30bbb     H7  752   0.152   7.296   2.381  0.5718  2.1522  0.0226
   30bbb     H8  753   0.028   7.392   2.330  1.8603 -1.3449 -0.3242
   30bbb     C5  754   0.103   7.443   2.523  0.0138  0.5074  0.0064
   30bbb     H9  755   0.018   7.501   2.561 -0.3614 -0.3311  0.4679
   30bbb    H10  756   0.164   7.394   2.600  1.6577  0.8769 -0.9973
   30bbb     C6  757   0.060   7.027   2.402  0.6149 -0.6128  0.3548
   30bbb    H11  758   0.161   7.067   2.387  0.9187 -1.1283  0.9696
   30bbb    H12  759   0.036   6.993   2.503 -0.1187 -0.6122  0.1834
   30bbb     C7  760   0.206   7.535   2.465 -0.5988  0.5864  0.2637
   30bbb     C8  761   0.043   6.896   2.319  0.3298  0.2175  0.0097
   30bbb     O1  762   0.327   7.509   2.449 -0.2213  0.0533 -0.0762
   30bbb     O2  763  -0.021   6.887   2.214 -0.4988  0.1812  0.0198
   30bbb     N4  764  -0.233   7.170   2.679  0.1285 -0.0148 -0.3125
   30bbb    H21  765  -0.157   7.205   2.736 -1.3290  2.6362  0.1250
   31bbb     C1  766   0.002   6.876   3.644  0.0949 -0.9301 -0.8941
   31bbb     H1  767  -0.062   6.965   3.636 -1.7040 -2.2957 -2.5577
   31bbb     H2  768   0.105   6.900   3.616  0.3829 -0.9267  0.1396
   31bbb     C2  769  -0.069   6.772   3.550  0.2475  0.2637  0.1129
   31bbb     H3  770  -0.025   6.679   3.587 -2.2103 -0.8360  0.5013
   31bbb     H4  771  -0.178   6.769   3.562  0.1355 -1.5406 -1.0243
   31bbb     N1  772  -0.005   6.842   3.791  0.1462  0.0521  0.1370
   31bbb     C3  773  -0.014   6.960   3.872  0.0638  0.6174  0.2484
   31bbb     H5  774   0.050   7.039   3.830 -1.9773  1.4676 -1.4880
   31bbb     H6  775   0.013   6.932   3.974  1.7381 -2.5510 -0.9171
   31bbb     C4  776   0.127   6.772   3.811  0.4366  0.4908 -0.4752
   31bbb     H7  777   0.162   6.718   3.723  1.8753 -0.2674  0.5280
   31bbb     H8  778   0.205   6.844   3.840  0.0753  2.7255 -4.3979
   31bbb     C5  779   0.098   6.665   3.921  0.8884 -0.0612 -1.4874
   31bbb     H9  780   0.062   6.720   4.009 -2.0642 -0.9939 -1.9742
   31bbb    H10  781   0.016   6.606   3.878  0.6131  0.6662 -1.9788
   31bbb     C6  782  -0.162   7.010   3.885 -0.4067  0.9346 -0.4093
   31bbb    H11  783  -0.228   7.042   3.804 -3.5809  0.6571  1.8690
   31bbb    H12  784  -0.218   6.920   3.915 -3.1206  1.9155 -2.1786
   31bbb     C7  785   0.223   6.585   3.941  0.8709  0.0348  0.2386
   31bbb     C8  786  -0.173   7.124   3.983 -0.0999  0.1098  0.2366
   31bbb     O1  787   0.328   6.630   3.906  0.0904  0.2040  0.0385
   31bbb     O2  788  -0.073   7.184   4.030  0.3132  0.9656  0.3591
   31bbb     N4  789  -0.042   6.796   3.408  0.1750  0.3971  0.0876
   31bbb    H21  790   0.040   6.752   3.367  1.1914  2.8373 -0.6704
   32bbb     C1  791   1.210   7.168   3.503  0.2700  0.0266 -0.1085
   32bbb     H1  792   1.191   7.170   3.611  2.6378  0.6312  0.3664
   32bbb     H2  793   1.319   7.163   3.496  0.4968  1.4964  1.6501
   32bbb     C2  794   1.153   7.290   3.429 -0.0014 -0.9447  0.7859
   32bbb     H3  795   1.048   7.314   3.448 -0.4212 -0.2477 -1.8811
   32bbb     H4  796   1.208   7.378   3.465  0.2846 -0.2826 -1.1447
   32bbb     N1  797   1.167   7.039   3.456 -0.2442 -0.2007 -0.2829
   32bbb     C3  798   1.026   7.026   3.438 -0.0212  0.7620  0.1053
   32bbb     H5  799   1.008   6.924   3.402  2.3914  0.7938 -1.3697
   32bbb     H6  800   0.992   7.085   3.353  0.2096 -0.7142 -1.0555
   32bbb     C4  801   1.221   6.927   3.529 -0.8857 -0.0059 -0.3917
   32bbb     H7  802   1.306   6.969   3.584 -0.5728 -0.6468 -0.3772
   32bbb     H8  803   1.153   6.890   3.607 -0.1342  2.1237  1.3855
   32bbb     C5  804   1.267   6.819   3.432  0.2405 -0.7996 -0.1049
   32bbb     H9  805   1.185   6.778   3.371  1.1388 -2.0660 -0.4924
   32bbb    H10  806   1.340   6.859   3.361 -2.1426 -1.4624 -3.1907
   32bbb     C6  807   0.950   7.046   3.571  0.2944  0.2728 -0.0435
   32bbb    H11  808   0.990   7.003   3.663  0.1529 -1.3712 -0.7239
   32bbb    H12  809   0.946   7.155   3.584  1.1423  0.3505 -0.3482
   32bbb     C7  810   1.315   6.704   3.508 -0.1267  0.4595 -0.3944
   32bbb     C8  811   0.808   6.996   3.575 -0.0536 -0.0499  0.8928
   32bbb     O1  812   1.263   6.674   3.616  0.6241  0.2704 -0.0037
   32bbb     O2  813   0.783   6.898   3.508 -0.1741 -0.4773 -0.4046
   32bbb     N4  814   1.164   7.279   3.278  0.4602  0.4328  0.2928
   32bbb    H21  815   1.084   7.256   3.221  0.0528  0.8889  0.6688
   33bbb     C1  816   1.549   6.823   2.478 -0.5119  0.0346 -0.0089
   33bbb     H1  817   1.617   6.822   2.392 -0.5685 -0.5732 -0.0500
   33bbb     H2  818   1.480   6.738   2.483  0.1436 -0.4318  2.0289
   33bbb     C2  819   1.454   6.951   2.461  0.3003 -0.5826  0.4002
   33bbb     H3  820   1.514   7.042   2.455  0.2285 -0.4677  1.2338
   33bbb     H4  821   1.400   6.935   2.367  0.2321  0.0464  0.3299
   33bbb     N1  822   1.621   6.828   2.599 -0.1222  0.5708  0.3686
   33bbb     C3  823   1.738   6.923   2.577 -0.2077 -0.9610 -0.3625
   33bbb     H5  824   1.721   7.007   2.509  0.2871 -0.9150 -0.4272
   33bbb     H6  825   1.833   6.875   2.551  0.9385  1.3661 -0.6836
   33bbb     C4  826   1.656   6.698   2.648  0.3725  0.7845 -0.4479
   33bbb     H7  827   1.674   6.629   2.564 -1.3259  0.2402 -0.3958
   33bbb     H8  828   1.746   6.706   2.710 -0.1402 -1.7902  0.7785
   33bbb     C5  829   1.547   6.634   2.730  0.7810  0.3853  0.3386
   33bbb     H9  830   1.521   6.697   2.817 -0.3407 -1.3323  1.3048
   33bbb    H10  831   1.455   6.630   2.672 -0.3085 -0.7612  2.0290
   33bbb     C6  832   1.759   6.993   2.706  0.2826 -0.1527  0.1319
   33bbb    H11  833   1.665   7.043   2.734 -0.1097 -1.1626  0.6806
   33bbb    H12  834   1.786   6.935   2.795  0.5437  1.3974  1.1123
   33bbb     C7  835   1.580   6.495   2.776 -0.2939  0.0343  0.3165
   33bbb     C8  836   1.866   7.105   2.682 -0.3013  0.3664 -0.3952
   33bbb     O1  837   1.696   6.463   2.781  0.2124 -0.5430  0.0574
   33bbb     O2  838   1.927   7.116   2.574  0.3180  0.4527  0.1492
   33bbb     N4  839   1.352   6.958   2.566 -0.1918 -0.4272  0.2202
   33bbb    H21  840   1.281   6.886   2.575 -1.0118  0.3400 -0.0051
   34bbb     C1  841   0.516   9.391   2.362  0.0518  0.2051  0.0594
   34bbb     H1  842   0.425   9.398   2.423  0.8295  0.9034  1.1734
   34bbb     H2  843   0.543   9.285   2.353 -0.6849  0.1274 -1.7676
   34bbb     C2  844   0.615   9.469   2.447  0.4146  0.3072  0.2940
   34bbb     H3  845   0.703   9.488   2.384  1.3388 -1.5702  0.9426
   34bbb     H4  846   0.565   9.563   2.471 -0.0659  0.1813 -0.1989
   34bbb     N1  847   0.505   9.445   2.229  0.0634 -0.0337 -0.1253
   34bbb     C3  848   0.370   9.429   2.172 -0.5350  0.0146  0.1343
   34bbb     H5  849   0.329   9.328   2.186 -1.9208  0.6996  1.2800
   34bbb     H6  850   0.376   9.454   2.066  0.1064 -0.4436  0.0579
   34bbb     C4  851   0.608   9.380   2.147  0.4345  0.0169  0.1418
   34bbb     H7  852   0.698   9.376   2.210  1.1679  0.6295 -0.8247
   34bbb     H8  853   0.577   9.277   2.126 -1.6101  0.6561 -0.2465
   34bbb     C5  854   0.639   9.458   2.018 -0.0042 -0.3173 -0.3177
   34bbb     H9  855   0.558   9.454   1.944 -0.5994 -1.9519  0.3796
   34bbb    H10  856   0.646   9.562   2.052 -0.5734 -1.0059  2.1005
   34bbb     C6  857   0.274   9.536   2.224 -0.0516 -0.3779  0.0341
   34bbb    H11  858   0.269   9.537   2.333  1.2197 -1.4326  0.1221
   34bbb    H12  859   0.298   9.636   2.186  1.9977 -1.0443 -0.5766
   34bbb     C7  860   0.767   9.419   1.947  0.2660 -0.1040  0.1932
   34bbb     C8  861   0.129   9.500   2.194  0.2695 -0.6019  0.2497
   34bbb     O1  862   0.851   9.340   1.991  0.5519 -0.0596 -0.5325
   34bbb     O2  863   0.097   9.384   2.182  0.2354 -0.6580 -0.3135
   34bbb     N4  864   0.653   9.390   2.567  0.0986  0.2829 -0.0910
   34bbb    H21  865   0.683   9.293   2.565 -1.1685 -0.1575  0.8176
   35bbb     C1  866   1.216   9.080   3.407  0.1100  0.1666  1.0566
   35bbb     H1  867   1.252   9.026   3.319  1.9543  1.1765  1.1529
   35bbb     H2  868   1.132   9.027   3.454 -0.7594  0.3401 -0.2725
   35bbb     C2  869   1.155   9.215   3.359  0.0172  0.4307  0.7656
   35bbb     H3  870   1.105   9.260   3.446 -2.7196  0.2726 -0.6016
   35bbb     H4  871   1.233   9.282   3.322  1.4850 -0.8326  1.4589
   35bbb     N1  872   1.317   9.114   3.507  0.3651  0.0643  0.5341
   35bbb     C3  873   1.445   9.149   3.449  0.4355 -0.0933 -0.1771
   35bbb     H5  874   1.432   9.227   3.373 -2.0400 -0.6402 -0.4070
   35bbb     H6  875   1.504   9.066   3.407  0.6082  0.0670 -0.2502
   35bbb     C4  876   1.335   8.993   3.587  0.0150  0.2621  0.4749
   35bbb     H7  877   1.296   8.902   3.541  2.9440 -1.4646  1.1284
   35bbb     H8  878   1.441   8.976   3.610 -0.2555 -1.5677  0.4564
   35bbb     C5  879   1.267   9.014   3.719  0.5590  0.7015 -0.2732
   35bbb     H9  880   1.307   9.107   3.760  1.1149  0.2243  0.2812
   35bbb    H10  881   1.161   9.023   3.693  0.5566 -0.8939 -0.9655
   35bbb     C6  882   1.533   9.214   3.554 -0.4136  0.7692 -0.0752
   35bbb    H11  883   1.479   9.287   3.616  1.9929  1.0434  1.8738
   35bbb    H12  884   1.580   9.144   3.625  0.5002  0.2498 -1.1573
   35bbb     C7  885   1.296   8.897   3.803  0.1014  0.4388 -0.3459
   35bbb     C8  886   1.653   9.289   3.487 -0.4501 -0.0084 -0.5946
   35bbb     O1  887   1.358   8.797   3.768 -0.0309  0.2796  0.1540
   35bbb     O2  888   1.754   9.230   3.454  0.3991  0.5607  0.4965
   35bbb     N4  889   1.058   9.196   3.244  0.4696  0.1306 -0.7617
   35bbb    H21  890   1.089   9.144   3.163  3.8461  0.6394  0.0778
   36bbb     C1  891  -0.129   7.750   3.481  0.3892 -0.4218  0.1486
   36bbb     H1  892  -0.202   7.668   3.479  2.1341 -2.0392 -1.6297
   36bbb     H2  893  -0.156   7.807   3.571  0.2302  0.3998 -0.4111
   36bbb     C2  894  -0.158   7.837   3.352  0.5536  0.4787  1.2036
   36bbb     H3  895  -0.154   7.770   3.265  1.6969  0.1280  1.4981
   36bbb     H4  896  -0.257   7.882   3.365  0.0755 -0.4869  1.0241
   36bbb     N1  897   0.008   7.689   3.481  0.1272 -0.2488  0.0712
   36bbb     C3  898   0.035   7.597   3.365 -0.6183 -0.4617  0.0229
   36bbb     H5  899  -0.048   7.608   3.294  1.5081  0.3583 -2.4411
   36bbb     H6  900   0.029   7.493   3.402 -0.8235 -0.7454 -0.7939
   36bbb     C4  901   0.026   7.632   3.612 -0.4383 -0.2786 -0.6401
   36bbb     H7  902   0.002   7.709   3.686  1.4809 -1.1511  1.0041
   36bbb     H8  903  -0.037   7.542   3.623 -2.1908  0.9668 -0.0561
   36bbb     C5  904   0.175   7.597   3.635 -0.6018  0.5602  0.5735
   36bbb     H9  905   0.208   7.522   3.562  1.2280  0.1049  1.7846
   36bbb    H10  906   0.242   7.683   3.621  0.1945 -0.4397 -2.4916
   36bbb     C6  907   0.157   7.647   3.297 -0.1852  0.1786  0.4570
   36bbb    H11  908   0.146   7.756   3.284  2.6922  0.6391  1.1633
   36bbb    H12  909   0.244   7.617   3.356 -1.7069 -1.1460  2.1578
   36bbb     C7  910   0.181   7.549   3.777  0.2884 -0.1904 -0.9878
   36bbb     C8  911   0.181   7.577   3.169  0.4247 -0.3822 -0.3865
   36bbb     O1  912   0.156   7.620   3.873  0.1052  0.0131  0.1921
   36bbb     O2  913   0.160   7.456   3.153  0.1754 -0.1926 -0.2169
   36bbb     N4  914  -0.059   7.951   3.330 -0.0877  0.4146  0.1103
   36bbb    H21  915   0.003   7.950   3.250 -0.5422  1.4497 -0.2723
   37bbb     C1  916   0.142   8.704   2.841 -0.5889 -0.0457 -0.4672
   37bbb     H1  917   0.116   8.602   2.811 -1.0739  0.1255 -0.6305
   37bbb     H2  918   0.239   8.705   2.893  0.4233 -0.3607 -2.2565
   37bbb     C2  919   0.039   8.747   2.947  0.4737  0.5622  0.4046
   37bbb     H3  920   0.065   8.842   2.995 -0.6800  1.4071 -0.6100
   37bbb     H4  921  -0.063   8.742   2.908 -0.2955 -3.4454  2.3739
   37bbb     N1  922   0.154   8.801   2.727  0.2998  0.1686 -0.3592
   37bbb     C3  923   0.224   8.919   2.771 -0.3471  0.3915 -0.0554
   37bbb     H5  924   0.328   8.892   2.793  0.0183  1.3511 -0.5492
   37bbb     H6  925   0.185   8.963   2.863  0.9448  0.7186  0.3531
   37bbb     C4  926   0.230   8.726   2.624 -0.3619 -0.2767  0.1700
   37bbb     H7  927   0.291   8.793   2.561  4.3059 -1.1714  3.2430
   37bbb     H8  928   0.315   8.672   2.668  2.0043  3.8102  1.1172
   37bbb     C5  929   0.144   8.630   2.545  0.1045 -0.5540 -0.0509
   37bbb     H9  930   0.089   8.559   2.609  1.6098 -1.1116  0.6833
   37bbb    H10  931   0.075   8.676   2.473  1.3713 -0.4595 -1.2417
   37bbb     C6  932   0.224   9.016   2.653 -0.2493 -0.7973 -0.5158
   37bbb    H11  933   0.297   8.988   2.576 -1.2024 -1.3219 -1.2484
   37bbb    H12  934   0.121   9.018   2.616 -0.3227 -0.6691 -0.3060
   37bbb     C7  935   0.232   8.545   2.464  0.3339  0.2900  0.9412
   37bbb     C8  936   0.267   9.148   2.693 -0.0193 -0.6817  0.1013
   37bbb     O1  937   0.347   8.512   2.489  0.2511 -0.6284  0.2390
   37bbb     O2  938   0.331   9.164   2.796 -0.1281 -0.0317 -0.2398
   37bbb     N4  939   0.023   8.643   3.055 -0.3346 -0.1212 -0.0628
   37bbb    H21  940   0.007   8.548   3.025  0.0818 -0.2389  0.0844
   38bbb     C1  941   1.626   8.445   1.919  0.3475 -0.4072  0.0972
   38bbb     H1  942   1.538   8.392   1.881 -1.2970 -0.2301  3.3330
   38bbb     H2  943   1.719   8.409   1.872  0.1971  0.7879 -1.1664
   38bbb     C2  944   1.641   8.428   2.071 -0.2444 -0.2285 -0.2245
   38bbb     H3  945   1.543   8.424   2.118 -0.8328  0.0731 -1.3903
   38bbb     H4  946   1.695   8.334   2.083  3.2910  1.7342  0.8933
   38bbb     N1  947   1.619   8.590   1.887  0.1172 -0.0158 -0.1584
   38bbb     C3  948   1.497   8.659   1.934  0.8376 -0.0030  0.4577
   38bbb     H5  949   1.469   8.616   2.030 -0.3746 -0.8286 -0.2450
   38bbb     H6  950   1.416   8.662   1.860  1.1508  0.5802  0.1276
   38bbb     C4  951   1.673   8.632   1.750  0.4407  0.0049 -0.6618
   38bbb     H7  952   1.620   8.581   1.668  0.5261 -1.0480 -0.0831
   38bbb     H8  953   1.651   8.738   1.735  2.5345  0.8691  1.7288
   38bbb     C5  954   1.821   8.614   1.749 -1.1065 -0.9300  0.3708
   38bbb     H9  955   1.883   8.668   1.821 -0.1933  0.0140 -1.0502
   38bbb    H10  956   1.839   8.507   1.763 -3.2622 -1.4225 -0.2253
   38bbb     C6  957   1.531   8.810   1.971 -0.6842 -0.1349 -0.1059
   38bbb    H11  958   1.620   8.819   2.034 -0.3271 -0.8059 -0.4969
   38bbb    H12  959   1.559   8.860   1.878  0.5044 -1.0167 -0.2506
   38bbb     C7  960   1.866   8.649   1.605 -0.4086  1.0002 -0.6196
   38bbb     C8  961   1.411   8.881   2.029 -0.3385  0.1448 -0.4648
   38bbb     O1  962   1.817   8.723   1.529 -0.3790 -0.3905 -0.4107
   38bbb     O2  963   1.378   8.880   2.145  0.3966 -0.4640 -0.0480
   38bbb     N4  964   1.727   8.539   2.130  0.2135  0.1556  0.5417
   38bbb    H21  965   1.712   8.635   2.098  0.6770  0.0322 -0.0878
   39bbb     C1  966   1.629   9.495   2.630 -0.4616 -0.0035 -0.1464
   39bbb     H1  967   1.664   9.458   2.727  0.4102 -0.6379 -0.6927
   39bbb     H2  968   1.557   9.575   2.652 -1.7526 -0.9616 -0.7648
   39bbb     C2  969   1.551   9.380   2.571  0.3808 -0.5375 -0.0637
   39bbb     H3  970   1.466   9.355   2.636  0.6874  0.0993  0.5965
   39bbb     H4  971   1.499   9.409   2.478 -0.1020  1.3575  0.7593
   39bbb     N1  972   1.747   9.537   2.551 -0.3275  0.3375  0.4754
   39bbb     C3  973   1.853   9.593   2.639  0.4787 -0.0071 -0.9561
   39bbb     H5  974   1.799   9.655   2.711 -0.5682 -0.0031 -1.7115
   39bbb     H6  975   1.920   9.666   2.591  0.4325 -0.2710 -1.4328
   39bbb     C4  976   1.710   9.611   2.425  0.2360  0.1500 -0.9015
   39bbb     H7  977   1.614   9.572   2.389  0.4762  0.0100 -1.3926
   39bbb     H8  978   1.703   9.720   2.439 -0.7284  0.1263 -1.1482
   39bbb     C5  979   1.815   9.590   2.325 -0.3182 -0.1224 -0.9190
   39bbb     H9  980   1.910   9.639   2.349 -0.3605  0.0832 -1.1630
   39bbb    H10  981   1.840   9.484   2.319  2.5127  0.1219  3.1575
   39bbb     C6  982   1.939   9.485   2.702 -0.0716 -0.0698  0.4791
   39bbb    H11  983   1.870   9.405   2.731 -0.2159 -1.4327 -3.1128
   39bbb    H12  984   2.007   9.455   2.621 -0.8955 -1.6808  0.3428
   39bbb     C7  985   1.749   9.643   2.201  0.3662 -0.3039  0.0252
   39bbb     C8  986   2.009   9.554   2.820  0.7402 -0.4279  0.1300
   39bbb     O1  987   1.691   9.748   2.186 -0.1117 -0.1112  0.0889
   39bbb     O2  988   1.963   9.554   2.931  0.2175  0.4348 -0.5820
   39bbb     N4  989   1.633   9.256   2.542  0.1746 -0.8227  0.1883
   39bbb    H21  990   1.681   9.210   2.618  0.5151 -0.8390 -0.0328
   40bbb     C1  991   1.489   8.491   2.458 -0.2848 -0.1628 -0.7071
   40bbb     H1  992   1.508   8.554   2.370 -0.2670 -3.3192 -3.1620
   40bbb     H2  993   1.585   8.492   2.512  0.2154  2.1917 -1.5102
   40bbb     C2  994   1.467   8.347   2.401 -0.5675  0.2558  0.4932
   40bbb     H3  995   1.428   8.276   2.474 -1.2353 -1.2956 -1.3129
   40bbb     H4  996   1.401   8.361   2.315 -0.6797 -1.4172  0.2800
   40bbb     N1  997   1.382   8.537   2.546  0.2181 -0.0752  0.1021
   40bbb     C3  998   1.366   8.450   2.664 -0.0592  0.4091 -0.3789
   40bbb     H5  999   1.384   8.504   2.757  1.2702 -0.2870 -0.2034
   40bbb     H6 1000   1.427   8.359   2.661  0.7954  0.9870 -1.3648
   40bbb     C4 1001   1.408   8.665   2.588 -0.1467 -0.0238  0.7536
   40bbb     H7 1002   1.336   8.682   2.669 -1.8953 -2.0250 -0.2749
   40bbb     H8 1003   1.514   8.662   2.615  0.0529 -2.2559 -0.0945
   40bbb     C5 1004   1.366   8.763   2.475 -0.1453 -0.4259  0.0958
   40bbb     H9 1005   1.421   8.766   2.381 -1.0385 -0.9910 -0.4638
   40bbb    H10 1006   1.263   8.732   2.452 -0.1773 -1.9406  1.9690
   40bbb     C6 1007   1.219   8.412   2.664 -0.4225 -0.1547  0.1484
   40bbb    H11 1008   1.158   8.503   2.671 -2.2967 -1.4397  1.8458
   40bbb    H12 1009   1.185   8.353   2.578 -2.4468 -0.4502  1.0898
   40bbb     C7 1010   1.366   8.908   2.520 -0.4859 -0.2578 -0.5655
   40bbb     C8 1011   1.183   8.322   2.785 -0.1738  0.0696  0.7592
   40bbb     O1 1012   1.407   8.946   2.632 -0.0724  0.1514  0.3819
   40bbb     O2 1013   1.246   8.327   2.888 -0.4064 -0.9106 -0.4131
   40bbb     N4 1014   1.589   8.273   2.340 -0.1973  0.4204 -0.0230
   40bbb    H21 1015   1.675   8.326   2.330  0.4114 -0.4085  0.6190
   41bbb     C1 1016   2.468   7.819   2.193 -0.0261  0.7463  0.1601
   41bbb     H1 1017   2.416   7.730   2.155  1.4145 -0.1275  0.1903
   41bbb     H2 1018   2.553   7.787   2.254 -0.3984 -0.7508 -0.0589
   41bbb     C2 1019   2.367   7.889   2.293  0.5032 -0.2979 -0.5483
   41bbb     H3 1020   2.329   7.808   2.357  0.3182 -0.4043 -0.7875
   41bbb     H4 1021   2.417   7.950   2.368 -2.0355  0.3331  0.7408
   41bbb     N1 1022   2.518   7.899   2.080 -0.1792  0.4734  0.0582
   41bbb     C3 1023   2.585   7.815   1.983  1.0115  0.0232  0.1583
   41bbb     H5 1024   2.640   7.731   2.027 -0.4112 -3.3156 -3.7859
   41bbb     H6 1025   2.646   7.872   1.912 -2.2076  0.7583 -2.2424
   41bbb     C4 1026   2.602   8.007   2.132 -0.1991 -0.0790  0.0808
   41bbb     H7 1027   2.551   8.068   2.207  1.5422  2.0973 -0.4116
   41bbb     H8 1028   2.682   7.960   2.192 -1.7940 -1.3156  1.3473
   41bbb     C5 1029   2.655   8.100   2.021 -0.1401 -0.6478  0.0976
   41bbb     H9 1030   2.590   8.094   1.933 -0.6926 -1.8616  0.5695
   41bbb    H10 1031   2.651   8.206   2.049 -0.1790 -0.6752  0.1969
   41bbb     C6 1032   2.469   7.765   1.901  0.3678  0.5730 -0.0709
   41bbb    H11 1033   2.412   7.689   1.956 -0.7052  1.7225  0.4625
   41bbb    H12 1034   2.395   7.840   1.868 -0.9716 -0.5792  0.1928
   41bbb     C7 1035   2.794   8.078   1.988  0.4240  0.7262 -0.8330
   41bbb     C8 1036   2.527   7.704   1.781  0.3352 -0.3351  0.7607
   41bbb     O1 1037   2.877   8.060   2.069  0.3402 -0.4939 -0.1348
   41bbb     O2 1038   2.544   7.766   1.677  0.0066 -0.2241  0.5020
   41bbb     N4 1039   2.256   7.966   2.233 -0.1884 -0.6475 -0.5717
   41bbb    H21 1040   2.277   8.060   2.203 -0.6063 -1.0957 -2.3792
   42bbb     C1 1041   1.126   8.687   2.919 -0.2682 -0.5927  0.4145
   42bbb     H1 1042   1.229   8.650   2.911  0.3260  1.1165 -0.1462
   42bbb     H2 1043   1.059   8.615   2.870 -1.3110  0.7031 -0.1200
   42bbb     C2 1044   1.125   8.814   2.836  0.1235  0.1065 -0.0180
   42bbb     H3 1045   1.138   8.783   2.732  0.1602  0.6773 -0.1871
   42bbb     H4 1046   1.033   8.871   2.853  0.3694  0.9569 -1.3735
   42bbb     N1 1047   1.097   8.718   3.058 -0.6704  0.2263  0.0159
   42bbb     C3 1048   1.180   8.647   3.158  0.1951 -0.0571  0.3477
   42bbb     H5 1049   1.202   8.541   3.136 -0.3209  0.3007 -2.1989
   42bbb     H6 1050   1.127   8.650   3.254 -2.3613  1.1085 -0.9966
   42bbb     C4 1051   0.952   8.698   3.079  0.6297 -0.6282  0.4548
   42bbb     H7 1052   0.901   8.738   2.990 -0.4170 -0.2097  1.2288
   42bbb     H8 1053   0.923   8.595   3.102  0.0673 -0.4565  0.5374
   42bbb     C5 1054   0.901   8.785   3.194 -0.2922  0.5846 -0.2479
   42bbb     H9 1055   0.953   8.774   3.290  1.3402  0.9238 -1.0553
   42bbb    H10 1056   0.930   8.887   3.167 -0.5053  0.2964 -1.6908
   42bbb     C6 1057   1.304   8.725   3.193 -0.0631 -0.0216  0.4512
   42bbb    H11 1058   1.351   8.745   3.096  0.6116  0.3137  0.8411
   42bbb    H12 1059   1.276   8.824   3.232 -1.6883 -0.1955 -0.1850
   42bbb     C7 1060   0.752   8.773   3.213 -0.0490  0.2137 -0.0530
   42bbb     C8 1061   1.390   8.646   3.280  0.2662 -0.5820 -0.4338
   42bbb     O1 1062   0.677   8.745   3.123  0.2143 -0.1149  0.2303
   42bbb     O2 1063   1.341   8.582   3.373 -0.1191 -0.3668  0.3017
   42bbb     N4 1064   1.241   8.908   2.853 -0.1675 -0.2631  0.3565
   42bbb    H21 1065   1.308   8.912   2.778  2.0093 -0.2411  2.1725
   43bbb     C1 1066   1.525   9.860   2.781 -0.5281  0.3974 -0.2030
   43bbb     H1 1067   1.484   9.858   2.679  0.5756  0.8028 -0.6727
   43bbb     H2 1068   1.601   9.781   2.784  2.2164  2.8468 -0.0882
   43bbb     C2 1069   1.423   9.832   2.889 -0.4256 -1.0833  0.2626
   43bbb     H3 1070   1.439   9.889   2.981  1.0979  0.5527 -0.9617
   43bbb     H4 1071   1.331   9.878   2.851 -0.3131 -0.1433  1.1013
   43bbb     N1 1072   1.585   9.991   2.808  0.5513 -0.0669  0.2142
   43bbb     C3 1073   1.511  10.097   2.739  0.3609 -0.2049 -0.0383
   43bbb     H5 1074   1.404  10.073   2.744  0.4184 -0.2369  2.0947
   43bbb     H6 1075   1.541  10.107   2.634  1.8108 -0.1905  0.3546
   43bbb     C4 1076   1.728  10.000   2.766  0.0584 -0.0099  0.5558
   43bbb     H7 1077   1.728   9.948   2.669 -0.4388  1.1858 -0.1211
   43bbb     H8 1078   1.776  10.097   2.748 -1.6172  0.6981 -0.3223
   43bbb     C5 1079   1.819   9.925   2.867  0.6361 -0.0276  0.1616
   43bbb     H9 1080   1.795   9.972   2.962 -1.8091  1.6715 -1.1863
   43bbb    H10 1081   1.796   9.818   2.879 -0.5929  0.2179  0.1275
   43bbb     C6 1082   1.534  10.231   2.808 -0.2012  0.7044  0.5571
   43bbb    H11 1083   1.640  10.257   2.805 -0.1387  0.3536 -2.0613
   43bbb    H12 1084   1.476  10.306   2.753  1.4394 -0.5103 -3.1260
   43bbb     C7 1085   1.969   9.943   2.844 -0.3560  0.3216 -0.2955
   43bbb     C8 1086   1.478  10.225   2.946  0.1718  0.2329  0.7902
   43bbb     O1 1087   2.014   9.965   2.735 -0.1434  0.0612 -0.2229
   43bbb     O2 1088   1.357  10.210   2.956 -0.2864  1.1173 -0.1985
   43bbb     N4 1089   1.404   9.687   2.910 -0.4678  0.0886  0.0526
   43bbb    H21 1090   1.388   9.621   2.836  1.6270 -0.4595  0.0481
   44bbb     C1 1091   1.792   9.083   1.972  0.1738  0.5381 -0.0494
   44bbb     H1 1092   1.682   9.092   1.968  0.1407  0.4521  0.5235
   44bbb     H2 1093   1.819   8.996   2.033 -2.8655  0.7031  1.7296
   44bbb     C2 1094   1.842   9.209   2.046  0.2490  0.8891  0.6078
   44bbb     H3 1095   1.823   9.293   1.978 -2.6933  0.7062  1.0571
   44bbb     H4 1096   1.772   9.225   2.130 -1.7967 -2.1199 -0.3360
   44bbb     N1 1097   1.852   9.083   1.846  0.1658 -0.0122 -0.1154
   44bbb     C3 1098   1.764   9.041   1.737 -0.2487  0.3770  0.0565
   44bbb     H5 1099   1.709   8.951   1.769  0.3639  0.2032  0.6468
   44bbb     H6 1100   1.831   9.005   1.658  0.0227 -1.6948  1.1578
   44bbb     C4 1101   1.973   8.996   1.851 -0.1344 -0.2245  0.8281
   44bbb     H7 1102   2.016   8.994   1.952 -2.9592 -3.2313  2.1799
   44bbb     H8 1103   1.948   8.892   1.827  1.9307 -0.5024 -0.3377
   44bbb     C5 1104   2.076   9.049   1.758 -0.1207  0.1328 -0.5243
   44bbb     H9 1105   2.025   9.066   1.662 -1.2392 -0.5195 -0.0680
   44bbb    H10 1106   2.096   9.154   1.784 -1.1223  0.1800  0.1096
   44bbb     C6 1107   1.678   9.149   1.689  0.1240  0.6794 -0.4363
   44bbb    H11 1108   1.647   9.209   1.775  1.9011 -0.3297  0.9741
   44bbb    H12 1109   1.743   9.215   1.629 -1.0137 -0.0993 -2.6201
   44bbb     C7 1110   2.192   8.962   1.744 -0.8300  0.1683 -0.0901
   44bbb     C8 1111   1.566   9.091   1.619 -0.4159 -0.5182  0.7611
   44bbb     O1 1112   2.185   8.842   1.723 -0.3332 -0.4687 -0.1911
   44bbb     O2 1113   1.479   9.019   1.669  0.4329  0.2919 -0.3689
   44bbb     N4 1114   1.982   9.213   2.102  0.2140 -0.5615 -0.0843
   44bbb    H21 1115   2.020   9.131   2.148  1.2474 -0.8743 -1.4142
   45bbb     C1 1116   2.905   9.079   2.308 -0.4883 -0.0174  0.2467
   45bbb     H1 1117   3.001   9.044   2.348 -0.2149 -1.3783 -1.4672
   45bbb     H2 1118   2.864   9.146   2.385  0.3890 -1.0645  1.6613
   45bbb     C2 1119   2.813   8.953   2.281  0.2911 -0.2215 -0.4759
   45bbb     H3 1120   2.845   8.888   2.198 -0.8882  1.1926 -2.0935
   45bbb     H4 1121   2.826   8.894   2.372 -0.8614  0.2834  0.0275
   45bbb     N1 1122   2.925   9.158   2.189  0.1423  0.4233  0.0368
   45bbb     C3 1123   2.976   9.092   2.065  0.1179 -0.3133 -0.0666
   45bbb     H5 1124   2.960   8.984   2.074 -0.1137 -0.2218  0.6794
   45bbb     H6 1125   3.084   9.107   2.054  0.0626 -0.7344 -1.3147
   45bbb     C4 1126   2.977   9.291   2.210 -0.4920 -0.3077  0.0822
   45bbb     H7 1127   3.008   9.330   2.112  0.6469 -2.9910 -0.7135
   45bbb     H8 1128   2.907   9.356   2.263  0.5757  0.6237  0.4076
   45bbb     C5 1129   3.102   9.290   2.300 -0.6093  0.1712  0.2913
   45bbb     H9 1130   3.060   9.269   2.399 -3.0612 -0.2102 -0.7498
   45bbb    H10 1131   3.168   9.209   2.266  1.3042  1.6602  0.2771
   45bbb     C6 1132   2.896   9.131   1.933 -0.0116  0.4102 -0.5512
   45bbb    H11 1133   2.788   9.123   1.950  0.2336  0.4774  1.3065
   45bbb    H12 1134   2.919   9.234   1.903 -0.5504  1.0890  1.2188
   45bbb     C7 1135   3.170   9.425   2.305 -0.2061  0.0474 -0.0871
   45bbb     C8 1136   2.933   9.048   1.812 -1.0137 -0.0737  0.2491
   45bbb     O1 1137   3.137   9.513   2.231 -0.8962 -0.7279 -0.0038
   45bbb     O2 1138   2.988   8.941   1.827  0.3562  0.0984  0.6737
   45bbb     N4 1139   2.670   8.983   2.264  0.3215  0.2591  0.1596
   45bbb    H21 1140   2.622   9.029   2.341 -0.5519 -0.5017  0.0869
   46bbb     C1 1141   0.156  10.149   3.777 -0.2721 -0.0688 -0.2810
   46bbb     H1 1142   0.075  10.077   3.757  0.0318 -0.5760  0.2836
   46bbb     H2 1143   0.123  10.198   3.870  0.8863 -2.0164  1.2408
   46bbb     C2 1144   0.174  10.253   3.660 -0.2447  0.3666  0.1871
   46bbb     H3 1145   0.080  10.305   3.638 -0.7794 -0.3739  0.6548
   46bbb     H4 1146   0.250  10.322   3.697  0.6932  0.0004 -0.9826
   46bbb     N1 1147   0.281  10.081   3.805  0.6635 -0.4662 -0.0459
   46bbb     C3 1148   0.251   9.946   3.860  0.2865 -0.0944 -0.1202
   46bbb     H5 1149   0.186   9.892   3.790  1.8927 -0.9808 -0.9758
   46bbb     H6 1150   0.200   9.954   3.957  0.1824  2.0138 -0.3004
   46bbb     C4 1151   0.372  10.165   3.884  0.0528  0.1897  0.1725
   46bbb     H7 1152   0.323  10.262   3.896 -1.7023 -0.9384  2.9305
   46bbb     H8 1153   0.379  10.118   3.983 -0.2859  1.3884  0.7803
   46bbb     C5 1154   0.502  10.175   3.811 -0.3854  0.4212 -0.6318
   46bbb     H9 1155   0.548  10.076   3.798 -0.5399  0.5742 -2.6581
   46bbb    H10 1156   0.480  10.212   3.710 -2.7352 -0.6545 -0.5813
   46bbb     C6 1157   0.378   9.863   3.875  0.3295 -0.0846  0.0418
   46bbb    H11 1158   0.429   9.862   3.778 -0.3726  0.1710 -0.3344
   46bbb    H12 1159   0.443   9.912   3.949  0.9205  1.5920 -1.4983
   46bbb     C7 1160   0.601  10.254   3.886 -0.6189 -0.4330  0.7547
   46bbb     C8 1161   0.343   9.722   3.906 -0.5495 -0.4435 -0.2082
   46bbb     O1 1162   0.649  10.223   3.991  0.2664  0.2458  0.2694
   46bbb     O2 1163   0.258   9.681   3.987  0.3163 -0.0340 -0.0788
   46bbb     N4 1164   0.215  10.186   3.540  0.6792 -0.5475 -0.1977
   46bbb    H21 1165   0.215  10.085   3.539  0.9273 -0.5603  0.3592
   47bbb     C1 1166   0.259  10.305   2.716  0.1630 -0.3518  0.2517
   47bbb     H1 1167   0.219  10.212   2.671  0.6515 -0.3383 -0.2198
   47bbb     H2 1168   0.242  10.385   2.644 -1.9568  0.8364  1.9682
   47bbb     C2 1169   0.408  10.269   2.726  0.1826  0.3103 -0.2074
   47bbb     H3 1170   0.439  10.209   2.640  0.0546  1.2100 -0.9029
   47bbb     H4 1171   0.477  10.355   2.726 -0.1403  0.5741 -0.0034
   47bbb     N1 1172   0.194  10.337   2.842 -0.1230  0.2710 -0.2228
   47bbb     C3 1173   0.047  10.354   2.829  0.1475 -0.5131 -0.3487
   47bbb     H5 1174   0.021  10.425   2.750  2.4321 -1.4316 -2.0544
   47bbb     H6 1175  -0.004  10.391   2.918  1.4313  0.6000 -0.0436
   47bbb     C4 1176   0.243  10.472   2.890  0.4563  0.7905 -0.5466
   47bbb     H7 1177   0.346  10.484   2.855  1.2442 -2.3767  0.3889
   47bbb     H8 1178   0.178  10.551   2.850 -0.1134  0.6670  0.1309
   47bbb     C5 1179   0.252  10.466   3.042  0.1460  0.5403  0.2686
   47bbb     H9 1180   0.168  10.414   3.090  1.1467 -3.5483 -1.9021
   47bbb    H10 1181   0.334  10.403   3.078 -1.8664 -1.8312  0.9863
   47bbb     C6 1182  -0.020  10.214   2.803 -0.2009 -0.1305 -0.4147
   47bbb    H11 1183  -0.128  10.232   2.803 -0.0735  0.9079  1.6454
   47bbb    H12 1184   0.019  10.178   2.707  0.3581 -1.9940  0.4629
   47bbb     C7 1185   0.281  10.595   3.112  0.1893  0.1007  0.1356
   47bbb     C8 1186   0.013  10.115   2.905 -0.2625 -0.3811  0.2996
   47bbb     O1 1187   0.322  10.692   3.061 -0.1875  0.6996  0.2905
   47bbb     O2 1188  -0.005  10.140   3.023 -0.4294  0.9490 -0.6669
   47bbb     N4 1189   0.433  10.185   2.844  1.0848  0.1324  0.4735
   47bbb    H21 1190   0.347  10.158   2.891 -0.5116  2.4633 -0.9360
   48bbb     C1 1191   0.745   9.777   2.454 -0.7046 -0.4117  0.3858
   48bbb     H1 1192   0.693   9.714   2.528 -0.2379 -2.4128 -0.8913
   48bbb     H2 1193   0.706   9.748   2.355  4.3935  0.7925 -2.2864
   48bbb     C2 1194   0.896   9.743   2.461 -0.3201  0.0069 -0.2962
   48bbb     H3 1195   0.908   9.636   2.437 -1.1309 -0.3967  1.0016
   48bbb     H4 1196   0.950   9.788   2.377  3.2089 -3.3945 -0.1415
   48bbb     N1 1197   0.719   9.919   2.471 -0.5114  0.0230 -0.1864
   48bbb     C3 1198   0.584   9.944   2.518 -0.7364  0.1487 -0.3726
   48bbb     H5 1199   0.577  10.053   2.532 -0.4111 -0.1147  2.3560
   48bbb     H6 1200   0.557   9.893   2.610 -2.7496  0.4723 -0.7540
   48bbb     C4 1201   0.761  10.005   2.362 -0.7644 -0.6658  0.2247
   48bbb     H7 1202   0.854   9.962   2.324  0.3394 -0.4193  2.4722
   48bbb     H8 1203   0.685  10.011   2.283  0.8439 -0.9015 -1.4179
   48bbb     C5 1204   0.799  10.141   2.418 -0.1912 -0.2878  0.5516
   48bbb     H9 1205   0.709  10.196   2.449 -0.4902 -0.4351 -0.0432
   48bbb    H10 1206   0.866  10.125   2.504  0.6826 -0.8596 -0.2231
   48bbb     C6 1207   0.483   9.896   2.413 -0.1431 -0.0252  0.7009
   48bbb    H11 1208   0.497   9.956   2.322  3.2682 -0.3277  0.8953
   48bbb    H12 1209   0.490   9.790   2.386 -3.4568  0.0033 -0.7402
   48bbb     C7 1210   0.861  10.219   2.306  0.4696 -0.0447 -0.3998
   48bbb     C8 1211   0.340   9.917   2.454 -0.4084 -0.3353 -0.4961
   48bbb     O1 1212   0.786  10.297   2.248  0.5832  0.8312  0.3105
   48bbb     O2 1213   0.297   9.869   2.557 -0.1860 -0.2679  0.3688
   48bbb     N4 1214   0.966   9.765   2.597  0.6848 -0.5186  0.0369
   48bbb    H21 1215   0.994   9.860   2.617 -0.7601  0.3494 -1.7087
   49bbb     C1 1216   0.987  10.000   3.459  0.0248  0.0676  0.6914
   49bbb     H1 1217   1.010   9.893   3.470 -1.4947 -0.4830 -0.9987
   49bbb     H2 1218   0.916  10.010   3.377  2.2130  3.3516 -1.0217
   49bbb     C2 1219   1.109  10.077   3.419 -0.5275 -0.3199 -0.4356
   49bbb     H3 1220   1.088  10.177   3.379  1.2579 -0.2155 -1.2249
   49bbb     H4 1221   1.179  10.092   3.503  0.4143 -1.4562 -0.9944
   49bbb     N1 1222   0.935  10.059   3.581 -0.1866  0.1706 -0.0589
   49bbb     C3 1223   0.917   9.968   3.696 -0.0063 -0.3173  0.2204
   49bbb     H5 1224   0.882   9.870   3.663  2.3088 -0.9150 -0.6620
   49bbb     H6 1225   0.849  10.006   3.774 -0.5060 -3.4218  1.4133
   49bbb     C4 1226   0.813  10.141   3.563 -0.6658  0.2860 -0.3560
   49bbb     H7 1227   0.723  10.082   3.541 -0.6335 -0.1528  0.6443
   49bbb     H8 1228   0.801  10.202   3.653 -1.1637  0.5317 -0.5811
   49bbb     C5 1229   0.820  10.246   3.447 -0.5781 -0.1580  0.3939
   49bbb     H9 1230   0.894  10.323   3.471 -0.6532  0.4464 -1.2463
   49bbb    H10 1231   0.860  10.205   3.353  0.3493  1.1980  0.1766
   49bbb     C6 1232   1.049   9.955   3.760 -0.2029 -0.9325 -0.5476
   49bbb    H11 1233   1.117   9.903   3.692  1.3216 -0.3869  0.4925
   49bbb    H12 1234   1.089  10.054   3.785  0.0666 -0.1466 -3.6870
   49bbb     C7 1235   0.698  10.333   3.446  0.4135 -0.3573 -0.2965
   49bbb     C8 1236   1.035   9.870   3.881  0.1604  0.4471 -0.2697
   49bbb     O1 1237   0.611  10.332   3.533 -0.1168 -0.1975 -1.4471
   49bbb     O2 1238   0.958   9.772   3.896 -0.0876 -0.5880 -0.1236
   49bbb     N4 1239   1.164   9.999   3.314 -0.6719  0.6115 -0.4549
   49bbb    H21 1240   1.225   9.920   3.332 -1.0002 -0.0205 -1.9819
   50bbb     C1 1241   0.552   7.744   3.911  0.0504 -0.2006 -0.4481
   50bbb     H1 1242   0.492   7.811   3.848  0.8038 -0.1411 -1.1242
   50bbb     H2 1243   0.652   7.789   3.909 -0.1290  0.4759  2.3566
   50bbb     C2 1244   0.556   7.599   3.856 -0.5159 -0.5400  0.4073
   50bbb     H3 1245   0.623   7.550   3.928  1.2595  0.2032 -0.6586
   50bbb     H4 1246   0.452   7.563   3.857 -0.4431 -0.9286 -1.9227
   50bbb     N1 1247   0.510   7.754   4.048  0.1784  0.5217 -0.7227
   50bbb     C3 1248   0.382   7.697   4.085  0.2030 -0.1026 -0.3760
   50bbb     H5 1249   0.375   7.601   4.031  0.6009 -0.5465  0.3452
   50bbb     H6 1250   0.302   7.763   4.050  1.6360  2.8779  1.5530
   50bbb     C4 1251   0.513   7.903   4.080  0.7829  0.1622 -0.0832
   50bbb     H7 1252   0.477   7.966   3.997 -1.4101 -1.1050 -0.1696
   50bbb     H8 1253   0.431   7.925   4.149 -1.3444  0.8119 -2.6501
   50bbb     C5 1254   0.647   7.934   4.143  0.8684  0.1146  0.3638
   50bbb     H9 1255   0.634   7.912   4.250 -1.8047 -0.8104 -0.0737
   50bbb    H10 1256   0.735   7.880   4.107  1.4448 -1.1520  3.3776
   50bbb     C6 1257   0.367   7.658   4.227  0.0565 -0.5754  0.2646
   50bbb    H11 1258   0.467   7.630   4.262 -0.2451 -0.3522  1.3434
   50bbb    H12 1259   0.339   7.741   4.293  2.5766  0.5962 -0.0157
   50bbb     C7 1260   0.670   8.074   4.134 -0.0079 -0.7838 -0.0037
   50bbb     C8 1261   0.279   7.540   4.239 -0.3076  0.1560 -0.5721
   50bbb     O1 1262   0.700   8.129   4.030 -0.1650  0.0997 -0.0238
   50bbb     O2 1263   0.317   7.437   4.194 -0.2051 -0.2518 -0.8009
   50bbb     N4 1264   0.614   7.591   3.717  0.1458 -0.4443  0.0953
   50bbb    H21 1265   0.688   7.655   3.690  1.0496  0.1934  3.6248
   51bbb     C1 1266   1.025   7.427   2.757 -0.1585 -0.2436  0.0399
   51bbb     H1 1267   1.076   7.479   2.839  0.4931 -0.8236  0.0136
   51bbb     H2 1268   0.950   7.493   2.712 -0.0797 -1.4378 -1.9498
   51bbb     C2 1269   0.962   7.297   2.816 -0.2168  0.0087 -0.4635
   51bbb     H3 1270   0.919   7.236   2.736 -1.5352  0.5951 -0.2232
   51bbb     H4 1271   1.038   7.228   2.855 -3.3542 -2.5905  1.4921
   51bbb     N1 1272   1.119   7.381   2.648 -0.1801  0.2226 -0.0531
   51bbb     C3 1273   1.216   7.487   2.622  0.0873 -0.1280 -0.4799
   51bbb     H5 1274   1.251   7.524   2.719 -3.3743  1.6277  0.2548
   51bbb     H6 1275   1.174   7.568   2.562  1.6611 -0.4208 -2.0648
   51bbb     C4 1276   1.046   7.331   2.532 -1.1502  0.1986 -0.5266
   51bbb     H7 1277   0.938   7.330   2.552 -0.9809 -1.4476  0.5439
   51bbb     H8 1278   1.062   7.384   2.438 -0.6922 -0.6250 -0.9173
   51bbb     C5 1279   1.091   7.187   2.495 -0.5251  0.4958 -0.2096
   51bbb     H9 1280   1.200   7.180   2.481 -0.5650 -0.9433  0.0962
   51bbb    H10 1281   1.077   7.116   2.578 -1.6134  1.9407  0.8894
   51bbb     C6 1282   1.338   7.444   2.547 -0.0870 -0.0126 -0.2620
   51bbb    H11 1283   1.391   7.369   2.607 -2.5031 -2.4338 -0.9470
   51bbb    H12 1284   1.307   7.386   2.459 -3.0198 -1.1583  1.3745
   51bbb     C7 1285   1.013   7.130   2.385 -0.1321  0.2294 -0.8482
   51bbb     C8 1286   1.410   7.572   2.497  0.7481 -0.3033  0.6062
   51bbb     O1 1287   0.930   7.194   2.327  0.3068  0.4087  0.4884
   51bbb     O2 1288   1.354   7.664   2.438 -1.0515 -0.0509  0.2805
   51bbb     N4 1289   0.847   7.315   2.913 -0.5939  0.0175  0.0461
   51bbb    H21 1290   0.781   7.385   2.880  0.6123  0.7180 -0.9725
   52bbb     C1 1291  -0.423   8.742   3.277 -0.1360  0.0334 -0.2851
   52bbb     H1 1292  -0.418   8.814   3.360  3.7621  0.0510 -0.3378
   52bbb     H2 1293  -0.505   8.670   3.287 -0.3830  0.4792  1.0963
   52bbb     C2 1294  -0.298   8.648   3.282 -0.6194  0.0025  0.1340
   52bbb     H3 1295  -0.312   8.580   3.197 -0.0585  0.7012 -0.5370
   52bbb     H4 1296  -0.206   8.708   3.282 -0.6827  0.1501  2.0224
   52bbb     N1 1297  -0.429   8.821   3.147 -0.5806 -0.1060 -0.0378
   52bbb     C3 1298  -0.329   8.931   3.168  0.1567 -0.3121  0.3482
   52bbb     H5 1299  -0.235   8.887   3.204  0.5784  0.7466  0.5708
   52bbb     H6 1300  -0.364   9.004   3.242  0.2287 -0.1596  0.2312
   52bbb     C4 1301  -0.565   8.862   3.122 -0.0972  0.5673 -0.5794
   52bbb     H7 1302  -0.627   8.891   3.208 -1.4846  1.4370 -1.8211
   52bbb     H8 1303  -0.565   8.949   3.055  0.7036  0.7575 -0.3399
   52bbb     C5 1304  -0.655   8.752   3.067 -0.1354 -0.1359  0.4078
   52bbb     H9 1305  -0.615   8.692   2.985  1.0065  1.9684 -0.6680
   52bbb    H10 1306  -0.687   8.681   3.145 -2.2651  0.6025  0.2932
   52bbb     C6 1307  -0.293   9.006   3.039  0.1980  0.1115 -0.0551
   52bbb    H11 1308  -0.285   8.932   2.959 -1.4121  0.1284 -0.2451
   52bbb    H12 1309  -0.371   9.077   3.011 -0.2935 -0.7567 -0.9224
   52bbb     C7 1310  -0.782   8.805   2.998  0.5375 -0.4779  0.9608
   52bbb     C8 1311  -0.161   9.066   3.057  0.2488 -0.1537 -0.2863
   52bbb     O1 1312  -0.828   8.917   3.014  1.2362  0.1853 -0.0635
   52bbb     O2 1313  -0.105   9.079   3.161  0.1356  0.6500 -0.4121
   52bbb     N4 1314  -0.287   8.564   3.405 -0.2130  0.3504 -0.6515
   52bbb    H21 1315  -0.342   8.479   3.401 -0.3649  0.4469 -0.6304
   53bbb     C1 1316   0.347   8.727   4.138  0.1580 -0.5728 -0.3749
   53bbb     H1 1317   0.352   8.743   4.247  2.0272 -0.2509 -0.4663
   53bbb     H2 1318   0.251   8.774   4.116 -0.4226 -1.6198 -0.1505
   53bbb     C2 1319   0.335   8.575   4.112 -0.3801 -0.3426  0.3430
   53bbb     H3 1320   0.429   8.534   4.072 -0.1864 -1.3643  1.7696
   53bbb     H4 1321   0.326   8.525   4.209 -1.7888 -0.6913  0.0576
   53bbb     N1 1322   0.453   8.796   4.066  0.1532 -0.5031  0.3083
   53bbb     C3 1323   0.424   8.819   3.926  0.1589 -0.6992 -0.6443
   53bbb     H5 1324   0.319   8.792   3.911 -0.3746  0.1616  1.2393
   53bbb     H6 1325   0.491   8.754   3.868  0.9032  0.2649 -0.8895
   53bbb     C4 1326   0.593   8.750   4.084  0.4312  0.3613  0.4031
   53bbb     H7 1327   0.612   8.655   4.033 -1.0761  1.1286 -1.7345
   53bbb     H8 1328   0.653   8.826   4.032 -0.4705  0.3638 -0.6859
   53bbb     C5 1329   0.624   8.745   4.236 -0.6267 -0.0831 -0.1228
   53bbb     H9 1330   0.609   8.834   4.298  2.0416 -0.0587  0.6305
   53bbb    H10 1331   0.563   8.665   4.280 -2.8500  1.2022 -0.6969
   53bbb     C6 1332   0.446   8.961   3.901 -0.1165 -0.7684  0.5163
   53bbb    H11 1333   0.375   9.021   3.958 -0.5469 -0.0822 -0.6914
   53bbb    H12 1334   0.551   8.990   3.902  0.2836 -2.1393  0.3705
   53bbb     C7 1335   0.768   8.709   4.257 -1.0181 -0.0336  0.2575
   53bbb     C8 1336   0.400   8.984   3.756 -0.1995 -0.0376  0.0173
   53bbb     O1 1337   0.858   8.713   4.173  0.6867  0.3520 -0.7866
   53bbb     O2 1338   0.463   8.936   3.661  0.2856  0.3736 -0.2490
   53bbb     N4 1339   0.220   8.536   4.029 -0.0657 -0.3151 -0.0558
   53bbb    H21 1340   0.166   8.614   3.993  0.4400 -0.5000 -1.2685
   54bbb     C1 1341   1.942   8.048   4.510  0.1623 -0.7322 -0.4527
   54bbb     H1 1342   1.914   7.945   4.533 -1.1846  0.0925  1.8856
   54bbb     H2 1343   1.974   8.079   4.610  1.7635 -2.7001 -0.3042
   54bbb     C2 1344   1.829   8.123   4.455  0.4997 -0.3115 -0.3767
   54bbb     H3 1345   1.737   8.095   4.507 -0.1843  2.0786 -0.1734
   54bbb     H4 1346   1.858   8.226   4.478 -1.4474 -0.2175  2.0890
   54bbb     N1 1347   2.054   8.056   4.416  0.5308  0.0247  0.1429
   54bbb     C3 1348   2.139   7.938   4.431 -0.6922 -0.3643 -0.4160
   54bbb     H5 1349   2.128   7.913   4.537 -2.1190 -0.6871 -0.6256
   54bbb     H6 1350   2.247   7.949   4.410 -0.5894  0.3274  0.4307
   54bbb     C4 1351   2.131   8.177   4.428 -0.6300 -0.0384 -0.0174
   54bbb     H7 1352   2.075   8.267   4.456  1.1565  1.5139 -1.2062
   54bbb     H8 1353   2.194   8.173   4.518 -0.4405  1.7462 -0.0456
   54bbb     C5 1354   2.202   8.206   4.299  0.1475  0.0820  0.0203
   54bbb     H9 1355   2.230   8.118   4.240 -0.4058 -0.2093  0.1772
   54bbb    H10 1356   2.135   8.257   4.229 -1.5007 -0.2623  1.2728
   54bbb     C6 1357   2.084   7.813   4.360 -0.0589 -0.3291 -0.2572
   54bbb    H11 1358   2.047   7.738   4.431 -0.6374 -0.8248 -1.0574
   54bbb    H12 1359   2.005   7.838   4.288 -0.3650  0.4891  0.3561
   54bbb     C7 1360   2.322   8.290   4.326  0.1802 -0.3811 -0.5186
   54bbb     C8 1361   2.200   7.754   4.274  0.9169 -0.3447 -0.4539
   54bbb     O1 1362   2.431   8.250   4.369  0.1057  0.1550  0.1629
   54bbb     O2 1363   2.209   7.766   4.154  0.0338  0.0272 -0.3279
   54bbb     N4 1364   1.802   8.112   4.305  0.3620  0.2405 -0.0779
   54bbb    H21 1365   1.870   8.064   4.247 -0.1501 -0.6493  0.0288
   55bbb     C1 1366   1.845   8.834   3.564 -0.3719 -0.2611 -0.0243
   55bbb     H1 1367   1.877   8.922   3.506 -0.2075  0.7179  1.4987
   55bbb     H2 1368   1.819   8.754   3.494  0.4115 -0.2861 -0.3030
   55bbb     C2 1369   1.722   8.858   3.655 -0.4475 -0.2921 -0.2974
   55bbb     H3 1370   1.742   8.929   3.736 -0.5964  1.2340 -1.5616
   55bbb     H4 1371   1.649   8.903   3.587  0.4046  0.5691 -0.6724
   55bbb     N1 1372   1.959   8.791   3.647  0.6519 -0.4468  0.1820
   55bbb     C3 1373   2.029   8.907   3.709 -0.0621  0.0633 -0.5698
   55bbb     H5 1374   1.947   8.958   3.760 -0.8026 -1.6666  0.0704
   55bbb     H6 1375   2.078   8.963   3.629  2.9998 -1.7134 -0.1072
   55bbb     C4 1376   2.051   8.702   3.568 -0.3320  0.6859 -0.3627
   55bbb     H7 1377   2.027   8.715   3.462  1.1497  0.2432 -0.7626
   55bbb     H8 1378   2.158   8.723   3.574  0.3817 -2.3321 -0.8162
   55bbb     C5 1379   2.033   8.560   3.616 -0.0731 -0.0517  0.2720
   55bbb     H9 1380   2.072   8.555   3.718  0.7479  1.7556  0.0856
   55bbb    H10 1381   1.926   8.538   3.625 -0.2160 -0.3072 -1.5579
   55bbb     C6 1382   2.140   8.874   3.802  0.5714  0.2252  0.3720
   55bbb    H11 1383   2.112   8.800   3.878 -0.3684  0.6665  0.4756
   55bbb    H12 1384   2.233   8.842   3.754  0.4553 -1.1104  1.0119
   55bbb     C7 1385   2.093   8.453   3.534 -0.0471  0.1048 -0.5305
   55bbb     C8 1386   2.174   8.997   3.880  0.1022  0.3963  0.4931
   55bbb     O1 1387   2.018   8.379   3.471 -0.1018 -0.3573  0.4117
   55bbb     O2 1388   2.205   9.109   3.833 -0.3614 -1.0733 -0.4195
   55bbb     N4 1389   1.669   8.738   3.728 -0.5693 -0.3971 -0.3333
   55bbb    H21 1390   1.621   8.666   3.676 -0.2813  0.5541 -1.9849
   56bbb     C1 1391   2.156   8.436   4.748 -0.2954  0.0952  0.5057
   56bbb     H1 1392   2.178   8.354   4.678 -0.1700  0.2473  0.3646
   56bbb     H2 1393   2.070   8.410   4.811  0.2889 -0.0088  1.2627
   56bbb     C2 1394   2.109   8.560   4.671  0.1792 -0.2399  1.1681
   56bbb     H3 1395   2.098   8.649   4.733 -0.3372  0.0028  0.7390
   56bbb     H4 1396   2.180   8.575   4.588 -0.2521 -1.3403  0.5721
   56bbb     N1 1397   2.272   8.473   4.826  0.9690 -0.3254 -0.6028
   56bbb     C3 1398   2.243   8.483   4.971  0.5938  0.2562  0.3998
   56bbb     H5 1399   2.280   8.393   5.022  1.8229 -1.2762 -2.8629
   56bbb     H6 1400   2.135   8.473   4.978  0.3962 -0.8278 -2.6412
   56bbb     C4 1401   2.389   8.390   4.824  0.3799  0.3831 -0.2664
   56bbb     H7 1402   2.462   8.429   4.896  1.0378  0.1486 -0.7955
   56bbb     H8 1403   2.363   8.286   4.850  1.5413  0.6620  2.2504
   56bbb     C5 1404   2.455   8.391   4.690 -0.2856 -0.2461  0.0969
   56bbb     H9 1405   2.387   8.349   4.614 -0.2491 -2.1069  1.0284
   56bbb    H10 1406   2.477   8.492   4.654 -1.9900  0.0066 -0.3123
   56bbb     C6 1407   2.301   8.611   5.015 -0.0493 -0.4944  0.2591
   56bbb    H11 1408   2.410   8.614   5.005 -0.1289  0.1720 -0.5246
   56bbb    H12 1409   2.258   8.695   4.959  0.4910 -0.1657  0.3317
   56bbb     C7 1410   2.583   8.317   4.691  0.3740  0.3072 -0.5498
   56bbb     C8 1411   2.270   8.635   5.160 -1.0392  0.0733 -0.5991
   56bbb     O1 1412   2.655   8.312   4.790 -0.0806  0.0458 -0.0281
   56bbb     O2 1413   2.259   8.545   5.246  0.4342 -0.0705  0.1669
   56bbb     N4 1414   1.975   8.527   4.604  0.0889  0.0127  0.0179
   56bbb    H21 1415   1.899   8.515   4.670  1.3575  1.6668  1.8850
   57bbb     C1 1416   1.709   9.182   3.957  0.1497 -0.1779  0.1038
   57bbb     H1 1417   1.768   9.097   3.922 -0.6501 -1.1611  1.0563
   57bbb     H2 1418   1.753   9.202   4.056  2.2104 -1.3329 -0.5140
   57bbb     C2 1419   1.571   9.117   3.985  0.9959  0.1701 -0.0414
   57bbb     H3 1420   1.495   9.187   4.024  0.3708 -0.2546 -0.4719
   57bbb     H4 1421   1.539   9.095   3.882 -1.6236  1.5950  0.3677
   57bbb     N1 1422   1.698   9.295   3.861  0.1212 -0.2683 -0.1233
   57bbb     C3 1423   1.600   9.397   3.911  0.1764  0.1079  0.2669
   57bbb     H5 1424   1.632   9.424   4.012  2.5956  3.7208 -1.2501
   57bbb     H6 1425   1.501   9.352   3.918 -0.5834  1.6026 -0.4862
   57bbb     C4 1426   1.824   9.342   3.812 -0.7921 -0.6854  0.0285
   57bbb     H7 1427   1.811   9.407   3.725  0.0623 -2.1030 -1.2025
   57bbb     H8 1428   1.879   9.397   3.889 -0.8386  0.4432 -0.7194
   57bbb     C5 1429   1.903   9.234   3.748 -0.6123  0.1387  0.2960
   57bbb     H9 1430   1.956   9.187   3.832 -0.9284 -1.4004 -0.3166
   57bbb    H10 1431   1.834   9.166   3.695  1.3219 -0.5093 -1.5347
   57bbb     C6 1432   1.593   9.512   3.815  0.6084  0.1006 -0.4082
   57bbb    H11 1433   1.688   9.564   3.801 -1.1116  5.1233  3.4751
   57bbb    H12 1434   1.555   9.472   3.720  0.0168  0.4005 -0.3056
   57bbb     C7 1435   2.003   9.290   3.649 -0.5832  0.9970 -0.6333
   57bbb     C8 1436   1.489   9.595   3.870  0.1129 -0.1130 -0.2035
   57bbb     O1 1437   2.052   9.397   3.662 -0.2953  0.0864  0.6272
   57bbb     O2 1438   1.386   9.552   3.919  0.3708  0.2673 -0.1604
   57bbb     N4 1439   1.576   8.992   4.060  0.4066  0.0554  0.9633
   57bbb    H21 1440   1.637   8.921   4.020  0.6636  0.2937  0.9269
   58bbb     C1 1441   1.501   7.440   2.933  0.2800 -0.1883  0.7251
   58bbb     H1 1442   1.401   7.399   2.945 -0.8380  1.5940 -1.7044
   58bbb     H2 1443   1.496   7.479   2.831 -0.0443  1.3199  1.2939
   58bbb     C2 1444   1.607   7.321   2.947  0.4347 -0.3332 -0.9756
   58bbb     H3 1445   1.584   7.241   2.876 -2.4793 -0.2076 -0.2941
   58bbb     H4 1446   1.700   7.375   2.927 -0.9996  2.3076 -0.9254
   58bbb     N1 1447   1.509   7.551   3.027 -0.0483  0.2998  0.0315
   58bbb     C3 1448   1.640   7.620   3.034 -0.3269  0.5049 -0.7627
   58bbb     H5 1449   1.715   7.567   3.093  2.5398  1.5328 -3.2227
   58bbb     H6 1450   1.631   7.718   3.082 -0.2166  1.4096 -2.5016
   58bbb     C4 1451   1.402   7.653   3.001  0.2099  0.4790  0.0347
   58bbb     H7 1452   1.434   7.746   3.051  2.1339  0.3837 -0.9479
   58bbb     H8 1453   1.395   7.681   2.896  0.9678  2.6068  0.4953
   58bbb     C5 1454   1.263   7.614   3.056 -0.9432 -0.3759 -0.2500
   58bbb     H9 1455   1.227   7.531   2.993  1.0861  0.8207 -3.1738
   58bbb    H10 1456   1.272   7.589   3.162  0.0487  0.9429 -0.0014
   58bbb     C6 1457   1.701   7.660   2.897 -0.6510 -0.1402  0.3853
   58bbb    H11 1458   1.714   7.570   2.836 -2.4431 -0.4229  0.3645
   58bbb    H12 1459   1.642   7.732   2.839  2.1519  0.6454 -1.7230
   58bbb     C7 1460   1.159   7.723   3.039  0.3273  0.8926  0.7688
   58bbb     C8 1461   1.834   7.734   2.908  0.2601  0.0104 -1.0347
   58bbb     O1 1462   1.110   7.739   2.927  0.1239  0.0449  0.3323
   58bbb     O2 1463   1.861   7.794   3.011  0.1908  0.2182 -0.4164
   58bbb     N4 1464   1.616   7.267   3.083  1.0180  0.2082  0.8348
   58bbb    H21 1465   1.551   7.305   3.151 -0.8305 -2.6280  0.8271
   59bbb     C1 1466   2.264   7.751   3.415 -0.1122  0.0783  0.1646
   59bbb     H1 1467   2.201   7.831   3.375  1.1130  1.3348  0.6696
   59bbb     H2 1468   2.293   7.680   3.337 -0.9707  2.3672 -2.3836
   59bbb     C2 1469   2.200   7.659   3.522  0.0670  0.9836 -0.2474
   59bbb     H3 1470   2.287   7.597   3.547  0.5569  1.9761  0.5872
   59bbb     H4 1471   2.168   7.711   3.613 -1.0836  0.8815 -0.5858
   59bbb     N1 1472   2.379   7.815   3.483  0.1857  0.2314 -0.2740
   59bbb     C3 1473   2.337   7.931   3.571 -0.1151  0.6589  0.2516
   59bbb     H5 1474   2.243   7.899   3.619 -1.8266  1.0030 -2.6829
   59bbb     H6 1475   2.312   8.027   3.525 -2.8438 -0.0057  0.1288
   59bbb     C4 1476   2.466   7.874   3.386 -0.2516 -0.3346 -0.8462
   59bbb     H7 1477   2.408   7.936   3.317 -0.5032 -0.8129 -1.0721
   59bbb     H8 1478   2.525   7.949   3.439 -2.7139  0.5028  0.9223
   59bbb     C5 1479   2.553   7.772   3.324  0.3607  0.1909  0.5535
   59bbb     H9 1480   2.605   7.721   3.406  0.7980 -0.9141 -0.3811
   59bbb    H10 1481   2.496   7.692   3.275  0.5331 -0.2680  1.0822
   59bbb     C6 1482   2.446   7.941   3.675 -0.2943 -0.3274 -0.7736
   59bbb    H11 1483   2.446   7.840   3.717  0.9226 -0.1582 -0.3033
   59bbb    H12 1484   2.545   7.967   3.636  1.1543 -1.6897  1.6952
   59bbb     C7 1485   2.642   7.845   3.225 -0.3520  0.2009 -0.0236
   59bbb     C8 1486   2.416   8.030   3.788  0.6993 -0.0085 -0.3751
   59bbb     O1 1487   2.608   7.848   3.110  0.9406  0.3991 -0.2308
   59bbb     O2 1488   2.333   8.120   3.786 -0.6078 -0.3590 -0.0666
   59bbb     N4 1489   2.095   7.564   3.476  0.5952 -0.0329  0.7254
   59bbb    H21 1490   2.031   7.591   3.402  2.0374  0.1948 -0.4790
   60bbb     C1 1491   1.408   6.867   4.175  0.5556  0.2330  1.0709
   60bbb     H1 1492   1.441   6.762   4.167  0.9248  0.4548 -0.9475
   60bbb     H2 1493   1.501   6.925   4.181  1.1009 -0.3405 -0.9998
   60bbb     C2 1494   1.313   6.906   4.293  0.2427  0.2230  0.6345
   60bbb     H3 1495   1.248   6.820   4.314  0.4772 -0.8718 -2.5567
   60bbb     H4 1496   1.383   6.902   4.377  1.0154  1.9536  0.1227
   60bbb     N1 1497   1.347   6.900   4.040  0.2010  0.2683  0.0898
   60bbb     C3 1498   1.221   6.825   4.006 -0.1808 -0.0204 -0.5090
   60bbb     H5 1499   1.146   6.831   4.086 -2.5287 -1.0480 -2.4931
   60bbb     H6 1500   1.247   6.718   3.995 -0.2602  0.0927 -1.9692
   60bbb     C4 1501   1.457   6.891   3.942  0.2576  0.3349  1.0080
   60bbb     H7 1502   1.436   6.944   3.849 -0.7956 -0.7208  0.6192
   60bbb     H8 1503   1.550   6.939   3.976 -0.1889  2.2977 -0.4156
   60bbb     C5 1504   1.495   6.753   3.898  0.4088 -0.7132  0.1734
   60bbb     H9 1505   1.506   6.688   3.985  2.4495  0.9180  1.2210
   60bbb    H10 1506   1.418   6.716   3.829  1.6221 -1.4844 -0.7921
   60bbb     C6 1507   1.162   6.884   3.882 -0.0218  0.3615  0.2739
   60bbb    H11 1508   1.148   6.992   3.888 -0.9885  0.3016 -0.6284
   60bbb    H12 1509   1.230   6.871   3.797  0.0468 -2.3789  0.6542
   60bbb     C7 1510   1.618   6.745   3.813 -0.3015  0.0341  0.8667
   60bbb     C8 1511   1.032   6.822   3.851  0.0418 -0.4908  0.4525
   60bbb     O1 1512   1.628   6.788   3.699  0.1008  0.8965 -0.5953
   60bbb     O2 1513   0.933   6.872   3.903 -0.0305  0.4221 -0.0666
   60bbb     N4 1514   1.241   7.034   4.281  0.3903 -0.1152  0.1937
   60bbb    H21 1515   1.251   7.098   4.203 -1.1454 -1.1110 -0.8746
   61bbb     C1 1516   0.996   7.757   3.869  0.8941  0.0988  0.0925
   61bbb     H1 1517   1.070   7.837   3.853  2.0788 -1.0235 -0.1613
   61bbb     H2 1518   0.902   7.782   3.818 -0.4797 -0.8697  2.0329
   61bbb     C2 1519   0.960   7.752   4.018 -0.3317 -0.4840 -0.5695
   61bbb     H3 1520   0.960   7.859   4.042 -1.0723  0.0292 -2.6440
   61bbb     H4 1521   0.863   7.706   4.041  0.1101 -0.4858  1.3999
   61bbb     N1 1522   1.042   7.626   3.810 -0.1294 -0.1303  0.1285
   61bbb     C3 1523   1.074   7.635   3.675  0.2321 -0.1538  0.3090
   61bbb     H5 1524   0.981   7.657   3.620  0.5469  0.6545  0.0883
   61bbb     H6 1525   1.096   7.532   3.644 -2.3667 -1.2912  1.8658
   61bbb     C4 1526   0.951   7.521   3.840 -0.0969  0.5362 -0.4418
   61bbb     H7 1527   0.921   7.535   3.944 -0.7186  2.1143 -0.7940
   61bbb     H8 1528   0.856   7.534   3.785 -0.0369  4.1535  0.0709
   61bbb     C5 1529   1.002   7.380   3.810 -0.6867 -0.5146  0.3960
   61bbb     H9 1530   1.005   7.364   3.702  1.0980  2.2181 -0.0645
   61bbb    H10 1531   1.105   7.374   3.848 -0.2290  0.8254 -0.5286
   61bbb     C6 1532   1.195   7.731   3.646  0.6909  1.0505  0.4165
   61bbb    H11 1533   1.157   7.833   3.632 -1.5579  0.1168 -0.8666
   61bbb    H12 1534   1.272   7.720   3.723  2.1210 -0.5770 -1.1573
   61bbb     C7 1535   0.919   7.289   3.883 -0.1811 -0.3143  0.1144
   61bbb     C8 1536   1.252   7.698   3.516 -0.1723  0.1747 -0.1432
   61bbb     O1 1537   0.803   7.258   3.848 -0.2379 -0.3065  0.8066
   61bbb     O2 1538   1.224   7.765   3.419  0.5999  0.1684 -0.2248
   61bbb     N4 1539   1.056   7.690   4.107 -0.7487 -0.3095 -0.2425
   61bbb    H21 1540   1.144   7.662   4.067 -0.6257  2.0853 -1.8390
   62ccc     C1 1541   0.242   7.764   2.367 -0.5995  1.1048  0.4973
   62ccc     H1 1542   0.294   7.836   2.431  0.3661 -1.4073  2.7063
   62ccc     H2 1543   0.315   7.706   2.310 -0.4433  1.0007  0.8048
   62ccc     C2 1544   0.145   7.841   2.273  0.1681 -0.2557  0.4969
   62ccc     H3 1545   0.200   7.891   2.192  0.4970 -2.6304 -0.8096
   62ccc     H4 1546   0.075   7.770   2.228 -0.7877  0.1811  1.2713
   62ccc     N1 1547   0.064   7.937   2.351 -0.3323 -0.1827  0.5214
   62ccc     H5 1548  -0.001   7.975   2.282  0.3010 -0.0159  0.0106
   62ccc     H6 1549  -0.000   7.875   2.400 -0.6272 -0.0447  0.3127
   62ccc     N2 1550   0.171   7.665   2.450 -0.6041  0.1693 -0.1736
   62ccc     H7 1551   0.081   7.692   2.486 -1.0855  0.7933 -1.7815
   63ccc     C1 1552   0.080   6.652   2.316  0.0952  0.4653 -0.1352
   63ccc     H1 1553  -0.027   6.641   2.295  0.2497  3.3587 -3.5265
   63ccc     H2 1554   0.136   6.648   2.222  0.8762  0.8847  0.3044
   63ccc     C2 1555   0.119   6.527   2.407 -0.8340  0.1241  0.3697
   63ccc     H3 1556   0.059   6.518   2.498  0.2258  0.5693  1.1275
   63ccc     H4 1557   0.102   6.435   2.349 -0.5755  0.9660 -1.0955
   63ccc     N1 1558   0.257   6.543   2.449  0.2488  0.1337  0.3351
   63ccc     H5 1559   0.257   6.628   2.505 -2.6869  0.3234  0.1992
   63ccc     H6 1560   0.265   6.471   2.520 -2.4121 -0.2047  0.4088
   63ccc     N2 1561   0.100   6.785   2.368 -0.6128 -0.4665  0.8554
   63ccc     H7 1562   0.159   6.808   2.447  2.1890  3.0067 -1.8806
   64ccc     C1 1563   0.297   6.369   4.040 -0.4243  0.0895  0.5057
   64ccc     H1 1564   0.332   6.288   3.976 -0.5483  1.3940 -1.2820
   64ccc     H2 1565   0.385   6.426   4.070 -0.3123 -0.0452  0.4322
   64ccc     C2 1566   0.244   6.305   4.165 -0.1550  0.0862  0.1806
   64ccc     H3 1567   0.167   6.234   4.132  0.6780 -1.2091  0.9101
   64ccc     H4 1568   0.304   6.235   4.225 -1.7631 -0.3880  1.3262
   64ccc     N1 1569   0.184   6.400   4.264  0.3503  0.1488  0.2045
   64ccc     H5 1570   0.118   6.445   4.201  1.3964  0.7460 -0.5059
   64ccc     H6 1571   0.118   6.333   4.304  0.8143 -0.4982 -0.0817
   64ccc     N2 1572   0.193   6.461   3.984  0.3537 -0.1546 -0.2811
   64ccc     H7 1573   0.096   6.446   4.008  0.4710  0.4174  0.5758
   65ccc     C1 1574  -0.328   7.237   4.141  0.7668  0.5418  0.4046
   65ccc     H1 1575  -0.427   7.211   4.181  1.4811 -1.4418  1.0001
   65ccc     H2 1576  -0.258   7.206   4.219  1.4438  0.6022 -0.1718
   65ccc     C2 1577  -0.316   7.392   4.108  0.8213  0.4104  0.0915
   65ccc     H3 1578  -0.380   7.435   4.030  1.4825 -0.7900 -1.1591
   65ccc     H4 1579  -0.355   7.429   4.203 -0.7720 -2.1794  0.5415
   65ccc     N1 1580  -0.177   7.426   4.079  0.7968 -0.4214  0.0491
   65ccc     H5 1581  -0.121   7.346   4.108  1.9837 -0.0804 -1.1696
   65ccc     H6 1582  -0.179   7.403   3.979 -1.5010 -0.5035  0.0463
   65ccc     N2 1583  -0.304   7.150   4.023  0.3525  0.2788  0.1780
   65ccc     H7 1584  -0.375   7.088   3.984 -0.1402  2.1191 -1.9957
   66ccc     C1 1585   1.438   6.482   3.481 -0.5328  0.1452  0.0386
   66ccc     H1 1586   1.491   6.498   3.576 -1.2324  3.8121 -0.0505
   66ccc     H2 1587   1.349   6.419   3.494 -0.6836 -0.0745 -1.8468
   66ccc     C2 1588   1.519   6.391   3.385  0.2267 -0.0845 -0.4376
   66ccc     H3 1589   1.554   6.304   3.442  2.6696  0.8748 -0.3354
   66ccc     H4 1590   1.458   6.349   3.304  0.8282 -0.7993 -0.5359
   66ccc     N1 1591   1.639   6.447   3.325 -0.1450  0.5388  0.2961
   66ccc     H5 1592   1.665   6.395   3.241  0.5309  1.2965  0.0148
   66ccc     H6 1593   1.604   6.528   3.275 -0.7748  0.1706  0.1278
   66ccc     N2 1594   1.385   6.610   3.437  0.0240 -0.0570 -0.5584
   66ccc     H7 1595   1.417   6.642   3.346 -1.7303  0.5505 -1.0055
   67ccc     C1 1596   0.580   7.037   3.675  0.0219  0.1295 -1.1922
   67ccc     H1 1597   0.528   7.133   3.678 -1.0251 -0.3958  2.9065
   67ccc     H2 1598   0.539   6.978   3.592 -0.7134  0.7249 -1.2527
   67ccc     C2 1599   0.557   6.954   3.803  0.3015  0.1518  0.9886
   67ccc     H3 1600   0.453   6.969   3.834  0.1392 -0.9013  0.9711
   67ccc     H4 1601   0.573   6.846   3.803  2.6367  0.4542  0.1451
   67ccc     N1 1602   0.635   7.000   3.912 -0.3514 -1.0051 -0.6572
   67ccc     H5 1603   0.604   6.938   3.987 -1.9547  0.5873  0.0778
   67ccc     H6 1604   0.731   6.971   3.894  0.4868  1.2767 -0.1723
   67ccc     N2 1605   0.721   7.070   3.647 -0.3275 -0.0629 -0.5986
   67ccc     H7 1606   0.765   7.142   3.702  1.1369 -0.6644 -0.9223
   68ccc     C1 1607   1.507   6.286   2.895  0.4123 -1.1674  0.1562
   68ccc     H1 1608   1.607   6.248   2.867  0.5029  0.9704 -2.9758
   68ccc     H2 1609   1.515   6.307   3.002  2.0108 -1.0199  0.0321
   68ccc     C2 1610   1.410   6.172   2.865 -0.0711  0.3230  0.5488
   68ccc     H3 1611   1.440   6.132   2.768  0.3557 -1.2283  1.2874
   68ccc     H4 1612   1.413   6.094   2.942 -0.4182  0.1733  0.4136
   68ccc     N1 1613   1.277   6.212   2.849  0.7112  0.5208  0.0789
   68ccc     H5 1614   1.275   6.307   2.811  0.1065  0.3346 -0.3712
   68ccc     H6 1615   1.248   6.164   2.764  0.6651 -0.6412  0.7318
   68ccc     N2 1616   1.482   6.416   2.823  0.3695  0.3887  0.3796
   68ccc     H7 1617   1.390   6.456   2.812  0.4844  0.5967  0.1781
   69ccc     C1 1618   2.017   7.271   2.805  0.0992  0.0577 -0.0880
   69ccc     H1 1619   2.035   7.277   2.913  0.7811  2.6322 -0.2961
   69ccc     H2 1620   2.098   7.216   2.755 -0.2053 -0.7905  0.3205
   69ccc     C2 1621   2.020   7.412   2.747 -0.2062 -0.0175 -0.4122
   69ccc     H3 1622   1.976   7.482   2.819  1.0703  0.7804 -0.3812
   69ccc     H4 1623   2.123   7.443   2.727 -0.2928 -0.6373 -1.9184
   69ccc     N1 1624   1.935   7.424   2.630  0.1330  0.4297 -0.9736
   69ccc     H5 1625   1.953   7.335   2.583 -2.4209 -1.1483  0.7988
   69ccc     H6 1626   1.843   7.414   2.672 -0.5044  0.8907 -2.1837
   69ccc     N2 1627   1.892   7.186   2.795  1.0512  0.0539  1.0024
   69ccc     H7 1628   1.834   7.174   2.877 -1.3201  1.4315 -0.3809
   70ccc     C1 1629   0.885   9.425   1.729  0.3450  0.5936  1.1348
   70ccc     H1 1630   0.984   9.412   1.775  0.4375  2.1915  1.4575
   70ccc     H2 1631   0.849   9.326   1.698  1.7287 -0.2464  2.1038
   70ccc     C2 1632   0.898   9.506   1.599 -0.1714  0.1330 -0.0094
   70ccc     H3 1633   0.975   9.456   1.538 -0.9147 -0.2227 -0.6819
   70ccc     H4 1634   0.803   9.500   1.544 -0.2618 -1.8809  0.2743
   70ccc     N1 1635   0.931   9.652   1.628  0.3506  0.5418  0.1805
   70ccc     H5 1636   0.929   9.698   1.537  0.4340 -1.5155 -0.9409
   70ccc     H6 1637   0.845   9.684   1.671  0.4468 -0.5445  1.2486
   70ccc     N2 1638   0.785   9.472   1.825  0.0165  0.3219  0.2398
   70ccc     H7 1639   0.717   9.540   1.794  0.1237  0.7552  0.9583
   71ccc     C1 1640  -0.083   9.575   2.110 -0.3184 -0.2744  0.1871
   71ccc     H1 1641  -0.080   9.511   2.021  2.0819  0.3190 -0.2127
   71ccc     H2 1642  -0.142   9.515   2.180  2.4043 -1.8337  1.3065
   71ccc     C2 1643  -0.161   9.701   2.072 -0.0381 -0.0957 -0.4144
   71ccc     H3 1644  -0.152   9.718   1.964 -0.3458 -2.6457 -0.9016
   71ccc     H4 1645  -0.264   9.681   2.105  0.1652 -1.6232 -0.6356
   71ccc     N1 1646  -0.121   9.824   2.144 -0.5315  0.5136 -0.9829
   71ccc     H5 1647  -0.198   9.889   2.132  0.2681  1.9515  1.1424
   71ccc     H6 1648  -0.127   9.797   2.242 -1.7703 -2.1523 -1.6964
   71ccc     N2 1649   0.047   9.605   2.166  0.1556 -0.1174 -0.0243
   71ccc     H7 1650   0.084   9.699   2.174  1.4075 -0.5558 -0.4324
   72ccc     C1 1651   1.233   8.796   4.020  0.4520 -0.0738  0.6496
   72ccc     H1 1652   1.152   8.741   3.971 -0.1059  1.0039  0.3312
   72ccc     H2 1653   1.318   8.729   4.033  1.8318  1.9568  3.0734
   72ccc     C2 1654   1.177   8.831   4.162  0.3088 -0.1288  0.2420
   72ccc     H3 1655   1.152   8.742   4.221  0.4680 -0.6999 -0.5361
   72ccc     H4 1656   1.258   8.884   4.215 -0.0257  0.9278 -0.2760
   72ccc     N1 1657   1.067   8.927   4.152  0.1110  0.0146 -0.2071
   72ccc     H5 1658   0.993   8.859   4.137  0.8102 -1.0459  0.8837
   72ccc     H6 1659   1.046   8.963   4.245  0.1401 -0.2422 -0.0996
   72ccc     N2 1660   1.258   8.920   3.932 -0.2124  0.0204 -0.3339
   72ccc     H7 1661   1.229   9.013   3.960  0.7487  0.1885  0.1419
   73ccc     C1 1662   1.737   9.513   3.417 -0.4890  0.2021 -0.0076
   73ccc     H1 1663   1.838   9.480   3.445 -0.8923  0.0919  1.3763
   73ccc     H2 1664   1.742   9.529   3.309 -0.4226  0.8787  0.0912
   73ccc     C2 1665   1.720   9.655   3.478 -0.3819  0.3299  0.6987
   73ccc     H3 1666   1.741   9.647   3.586  1.5106 -0.3864  0.3289
   73ccc     H4 1667   1.804   9.715   3.442 -1.1359  0.8318 -0.2663
   73ccc     N1 1668   1.591   9.713   3.434 -0.1047  0.8359  0.3302
   73ccc     H5 1669   1.520   9.644   3.458  0.3577  0.8370  1.7790
   73ccc     H6 1670   1.576   9.788   3.501  0.8500  2.5737 -1.2932
   73ccc     N2 1671   1.631   9.416   3.460 -0.7304 -0.4746 -0.1113
   73ccc     H7 1672   1.538   9.455   3.471 -0.8132 -0.3627 -1.1297
   74ccc     C1 1673   0.198   7.337   3.907  0.2437 -0.0836  0.3396
   74ccc     H1 1674   0.193   7.391   4.002  2.4814 -0.8454  0.9689
   74ccc     H2 1675   0.105   7.281   3.892  1.3121 -1.4860 -1.5014
   74ccc     C2 1676   0.322   7.238   3.922  0.3737  0.1683  0.3082
   74ccc     H3 1677   0.298   7.181   4.012 -1.0146  0.6311  0.2666
   74ccc     H4 1678   0.338   7.166   3.841  0.2490 -0.7023  1.0497
   74ccc     N1 1679   0.440   7.317   3.941  0.8296  0.0866 -0.4385
   74ccc     H5 1680   0.444   7.364   3.850 -0.1678  1.8891  0.3883
   74ccc     H6 1681   0.415   7.384   4.013 -1.8520  1.1791 -2.1879
   74ccc     N2 1682   0.223   7.419   3.786  0.5058  0.0628 -0.2475
   74ccc     H7 1683   0.224   7.373   3.696 -0.7711 -1.0784  0.2809
   75ccc     C1 1684   0.225   7.617   2.923  0.2794  0.4210 -0.4575
   75ccc     H1 1685   0.292   7.533   2.903 -0.7645 -0.9356  1.4589
   75ccc     H2 1686   0.127   7.586   2.885  0.1261 -0.0287  0.2859
   75ccc     C2 1687   0.280   7.726   2.823 -0.0937  0.0891 -0.0028
   75ccc     H3 1688   0.389   7.744   2.823 -0.0692 -0.0459 -0.4764
   75ccc     H4 1689   0.265   7.704   2.717  0.8426 -0.0592 -0.1184
   75ccc     N1 1690   0.210   7.848   2.858  0.0536 -0.0216 -0.3789
   75ccc     H5 1691   0.211   7.908   2.776 -0.0318 -1.0012 -1.1175
   75ccc     H6 1692   0.113   7.816   2.858  0.8443 -2.6882  1.1325
   75ccc     N2 1693   0.226   7.656   3.066  0.2506  0.2836  0.0755
   75ccc     H7 1694   0.248   7.752   3.089 -1.5632  0.9091 -0.6355
   76ccc     C1 1695   0.214   8.403   2.256  0.3428  0.0578  0.5655
   76ccc     H1 1696   0.242   8.426   2.152 -2.8192  1.8657 -0.0079
   76ccc     H2 1697   0.302   8.363   2.307  1.9461  3.9190  1.1680
   76ccc     C2 1698   0.104   8.292   2.239  0.5502  0.4631  0.3964
   76ccc     H3 1699   0.020   8.326   2.176  2.1131  1.5839 -1.1663
   76ccc     H4 1700   0.147   8.199   2.199  1.7206  1.6725 -1.2639
   76ccc     N1 1701   0.051   8.257   2.366 -0.7857 -1.0202 -0.2094
   76ccc     H5 1702   0.007   8.345   2.389 -3.3738 -1.6154 -2.4113
   76ccc     H6 1703  -0.027   8.194   2.349 -1.7012  0.5485 -2.1791
   76ccc     N2 1704   0.181   8.519   2.338  0.6963  0.0002  0.9334
   76ccc     H7 1705   0.087   8.555   2.334  1.2069  1.4286  1.1087
   77ccc     C1 1706   0.241   9.397   2.653  0.1922 -0.0105  0.2017
   77ccc     H1 1707   0.222   9.411   2.760 -0.4807 -0.1549  0.1049
   77ccc     H2 1708   0.341   9.444   2.653  0.2609 -0.1559  0.6040
   77ccc     C2 1709   0.140   9.474   2.564  0.0387 -0.1576 -0.2676
   77ccc     H3 1710   0.162   9.581   2.568 -0.9564  0.1153 -1.2134
   77ccc     H4 1711   0.134   9.439   2.460  1.0012 -1.2481  0.0295
   77ccc     N1 1712   0.004   9.454   2.613  0.0518 -0.0263  0.2112
   77ccc     H5 1713  -0.045   9.495   2.535  0.2179 -1.2198 -0.5515
   77ccc     H6 1714  -0.013   9.355   2.596  0.2303 -0.0702  0.2799
   77ccc     N2 1715   0.248   9.253   2.605  0.0337 -0.5642 -0.5939
   77ccc     H7 1716   0.197   9.230   2.520  0.4558  1.0885 -1.3370
   78ccc     C1 1717   2.055   8.584   1.437  0.3391 -0.3050  0.0713
   78ccc     H1 1718   2.122   8.497   1.425 -1.3225 -1.4218 -1.8109
   78ccc     H2 1719   1.978   8.572   1.360  1.2980 -0.6201 -0.8622
   78ccc     C2 1720   2.133   8.710   1.392  0.0091 -0.4077  0.0087
   78ccc     H3 1721   2.234   8.695   1.431  1.7731  1.5005 -3.3040
   78ccc     H4 1722   2.137   8.706   1.282  1.8070  1.3872 -0.0592
   78ccc     N1 1723   2.071   8.830   1.446 -0.5880  0.1587  0.2128
   78ccc     H5 1724   1.974   8.810   1.425 -0.6047 -0.6846  1.0648
   78ccc     H6 1725   2.068   8.806   1.544 -2.3152  1.8549  0.6433
   78ccc     N2 1726   1.987   8.585   1.573  0.0695  0.1140 -0.4108
   78ccc     H7 1727   2.023   8.521   1.643  0.2357 -1.3510 -1.7885
   79ccc     C1 1728   1.212   9.018   1.955  0.7066  0.3881  0.5312
   79ccc     H1 1729   1.127   8.949   1.948  0.4994  0.7939 -1.9230
   79ccc     H2 1730   1.211   9.055   2.058  1.0129 -1.1514  1.1093
   79ccc     C2 1731   1.202   9.135   1.853 -0.1955 -0.0646  0.1360
   79ccc     H3 1732   1.178   9.100   1.752 -2.4145  0.4698  0.4214
   79ccc     H4 1733   1.117   9.198   1.884 -0.7261 -0.9673  0.5695
   79ccc     N1 1734   1.322   9.220   1.858  0.1576  0.6468  0.2580
   79ccc     H5 1735   1.394   9.158   1.822  0.9211  1.4445  0.3814
   79ccc     H6 1736   1.299   9.280   1.779 -1.0296  1.2015  0.9856
   79ccc     N2 1737   1.333   8.934   1.933  0.2431 -0.5703 -0.4389
   79ccc     H7 1738   1.362   8.926   1.836  2.6907 -0.4873  0.2148
   80ccc     C1 1739   1.685   9.576   1.973 -0.0948 -0.0710  0.0239
   80ccc     H1 1740   1.636   9.673   1.964 -1.3089 -0.3176  2.9011
   80ccc     H2 1741   1.757   9.555   1.893  1.4434 -1.8873  1.7644
   80ccc     C2 1742   1.576   9.473   1.941  0.2483  0.6447 -0.3944
   80ccc     H3 1743   1.510   9.489   1.855 -2.4237  0.5760  1.5209
   80ccc     H4 1744   1.621   9.377   1.914 -0.4195 -0.2850  1.6005
   80ccc     N1 1745   1.494   9.451   2.063  0.2442  0.9326 -0.3021
   80ccc     H5 1746   1.553   9.434   2.144 -1.6549 -0.7683  0.7857
   80ccc     H6 1747   1.456   9.542   2.089 -0.3912  1.3316 -2.4129
   80ccc     N2 1748   1.762   9.554   2.100  0.0049 -0.0004  0.3573
   80ccc     H7 1749   1.812   9.466   2.109 -0.3474 -0.1440  0.9230
   81ccc     C1 1750   2.242   9.621   2.884  0.3112 -0.4045 -0.0315
   81ccc     H1 1751   2.259   9.726   2.913 -0.4903  0.3127 -1.9875
   81ccc     H2 1752   2.221   9.556   2.970  1.1260 -1.9143 -0.9282
   81ccc     C2 1753   2.381   9.578   2.825  0.6527  0.2776  0.4247
   81ccc     H3 1754   2.459   9.628   2.883  0.7123  1.5518 -0.7053
   81ccc     H4 1755   2.379   9.469   2.838 -0.7730  0.5453  3.5124
   81ccc     N1 1756   2.410   9.620   2.682 -0.0693  0.2046  0.3947
   81ccc     H5 1757   2.426   9.720   2.691  0.4737  0.2129 -0.5641
   81ccc     H6 1758   2.506   9.588   2.665  0.2749  1.3135  0.1939
   81ccc     N2 1759   2.127   9.608   2.783 -0.0577  0.1196  0.0630
   81ccc     H7 1760   2.151   9.607   2.684 -0.3260 -1.1042 -0.0017
   82ccc     C1 1761   1.312   9.137   2.423  0.5910  0.0062  0.0570
   82ccc     H1 1762   1.217   9.158   2.474  1.2991  2.4785  0.4901
   82ccc     H2 1763   1.388   9.182   2.488  0.9727  0.1954 -0.5165
   82ccc     C2 1764   1.284   9.205   2.288 -0.2253  0.3480  0.9158
   82ccc     H3 1765   1.196   9.163   2.237  0.1036 -0.1803  0.7660
   82ccc     H4 1766   1.266   9.313   2.290 -2.5715 -0.0036  2.1715
   82ccc     N1 1767   1.400   9.181   2.203 -0.1511  0.2453 -0.0777
   82ccc     H5 1768   1.482   9.209   2.257  0.1945 -2.8390  1.1882
   82ccc     H6 1769   1.414   9.080   2.205 -2.1148 -0.0845 -0.8204
   82ccc     N2 1770   1.332   8.992   2.418 -0.1292 -0.4884 -0.2493
   82ccc     H7 1771   1.305   8.944   2.333 -0.8822 -0.3065 -0.1157
   83ccc     C1 1772   1.015   8.165   2.880 -0.0215 -0.7215 -0.3182
   83ccc     H1 1773   0.974   8.073   2.837 -0.2230 -0.2986 -1.0509
   83ccc     H2 1774   1.081   8.143   2.965 -1.2489 -0.0334  0.8551
   83ccc     C2 1775   0.895   8.245   2.923  0.0044 -0.4011  0.8389
   83ccc     H3 1776   0.874   8.219   3.028  0.2865 -2.2752  0.4815
   83ccc     H4 1777   0.918   8.352   2.929 -0.2616 -0.3441  0.8557
   83ccc     N1 1778   0.783   8.216   2.831 -0.2835  0.0234 -1.6457
   83ccc     H5 1779   0.724   8.289   2.870  0.7345 -0.1338  0.3198
   83ccc     H6 1780   0.814   8.262   2.746 -0.2655  1.4905 -0.8768
   83ccc     N2 1781   1.088   8.231   2.770  0.5829 -0.6519 -0.0420
   83ccc     H7 1782   1.038   8.240   2.682 -0.5867 -0.6928  0.6052
   84ccc     C1 1783   2.943   8.014   1.792 -0.4636 -0.6314 -0.0140
   84ccc     H1 1784   3.034   8.064   1.827 -0.1478 -1.7440  0.8426
   84ccc     H2 1785   2.961   7.916   1.840  0.7385 -0.2756  0.3156
   84ccc     C2 1786   2.946   8.005   1.640  0.1203  0.1207  0.4772
   84ccc     H3 1787   2.960   8.103   1.593  1.7808 -0.7545 -0.9878
   84ccc     H4 1788   3.018   7.931   1.602  1.7639  2.0284 -0.3028
   84ccc     N1 1789   2.823   7.958   1.584 -0.2453  0.0545  0.2559
   84ccc     H5 1790   2.756   8.025   1.621  1.2467  1.4494  0.5231
   84ccc     H6 1791   2.824   7.965   1.483  0.3434 -0.3219  0.2303
   84ccc     N2 1792   2.827   8.082   1.856 -1.0123 -0.9764  0.8000
   84ccc     H7 1793   2.750   8.102   1.794 -0.3468  0.6207  0.4504
   85ccc     C1 1794   2.612   7.487   1.690  1.1609 -0.2524 -0.2801
   85ccc     H1 1795   2.575   7.385   1.708  2.4743 -0.4501  1.6220
   85ccc     H2 1796   2.584   7.526   1.592  1.4689  0.8055  0.0409
   85ccc     C2 1797   2.760   7.486   1.697 -1.1395 -0.6061  0.0417
   85ccc     H3 1798   2.791   7.431   1.787  0.4428 -0.9151 -0.6644
   85ccc     H4 1799   2.805   7.434   1.611 -0.6481  3.3890 -2.3453
   85ccc     N1 1800   2.815   7.624   1.709 -0.5073 -0.5972 -0.2801
   85ccc     H5 1801   2.806   7.651   1.807 -2.0964 -2.1818  0.0785
   85ccc     H6 1802   2.917   7.616   1.713 -0.3467 -0.5125 -2.7033
   85ccc     N2 1803   2.553   7.570   1.794 -0.8971  0.0868  0.2563
   85ccc     H7 1804   2.509   7.527   1.875  0.2278  1.9171  1.9505
   86ccc     C1 1805   0.559   8.780   3.366  0.4134 -0.6018  0.2854
   86ccc     H1 1806   0.518   8.699   3.305  0.1051  0.3507 -0.8066
   86ccc     H2 1807   0.544   8.751   3.471  2.5226  0.0520  0.8040
   86ccc     C2 1808   0.482   8.911   3.332 -0.2769 -0.5051  0.8877
   86ccc     H3 1809   0.478   8.928   3.224 -4.3363  1.4605  1.1631
   86ccc     H4 1810   0.379   8.902   3.370  0.4464 -0.1827  3.1066
   86ccc     N1 1811   0.541   9.033   3.406  0.0961  0.2629 -0.3872
   86ccc     H5 1812   0.529   9.016   3.506 -0.2195  2.4938 -0.0060
   86ccc     H6 1813   0.640   9.010   3.399  0.2271  0.4960  0.5458
   86ccc     N2 1814   0.703   8.800   3.341  0.1718  0.4540 -0.0170
   86ccc     H7 1815   0.773   8.830   3.408  0.3268  0.8851 -0.3683
   87ccc     C1 1816   1.621   8.566   3.321 -0.9736 -0.2931  0.3160
   87ccc     H1 1817   1.636   8.637   3.403 -1.7607  1.5273 -1.0336
   87ccc     H2 1818   1.587   8.468   3.355 -0.2995  0.5001  3.5518
   87ccc     C2 1819   1.763   8.556   3.259  0.2413  0.2764  0.4499
   87ccc     H3 1820   1.794   8.661   3.261 -3.8047  1.6902 -0.6710
   87ccc     H4 1821   1.833   8.510   3.330  0.8945  2.1792  1.1068
   87ccc     N1 1822   1.762   8.510   3.116  0.4198 -0.2294 -0.7683
   87ccc     H5 1823   1.716   8.418   3.112  0.0137 -0.0006 -1.6706
   87ccc     H6 1824   1.687   8.569   3.081  0.6441  0.4550 -0.1230
   87ccc     N2 1825   1.521   8.642   3.252  0.2079 -0.0840 -0.3921
   87ccc     H7 1826   1.541   8.702   3.173 -3.3269  2.6357  0.5115
   88ccc     C1 1827   2.179   9.985   2.980 -0.3512 -0.0436  0.9533
   88ccc     H1 1828   2.216   9.915   3.056 -0.4003 -2.0700 -0.7876
   88ccc     H2 1829   2.233   9.949   2.892 -0.5949 -2.7567  1.8057
   88ccc     C2 1830   2.207  10.131   3.014 -0.6499  0.1002 -0.1113
   88ccc     H3 1831   2.161  10.149   3.112 -0.5435 -1.5400  0.2774
   88ccc     H4 1832   2.314  10.141   3.034 -0.8854 -0.3494  1.4737
   88ccc     N1 1833   2.160  10.216   2.910  0.1091 -0.4971  0.1442
   88ccc     H5 1834   2.188  10.312   2.927 -0.7151 -0.5991  2.4395
   88ccc     H6 1835   2.219  10.206   2.827 -2.5862  0.2336 -2.0180
   88ccc     N2 1836   2.044   9.946   2.964 -0.5552 -0.0715  0.5436
   88ccc     H7 1837   1.982   9.920   3.040 -0.4351 -4.1777 -0.5430
   89ccc     C1 1838   1.521  10.214   3.193  0.3386  0.1115 -0.2850
   89ccc     H1 1839   1.599  10.261   3.254 -0.6235  3.2766 -1.3269
   89ccc     H2 1840   1.421  10.258   3.206 -0.3387 -1.5154  0.2813
   89ccc     C2 1841   1.492  10.065   3.227  0.3649  0.3006 -0.3447
   89ccc     H3 1842   1.434  10.059   3.320  0.5739 -1.3281 -0.2860
   89ccc     H4 1843   1.436  10.020   3.143 -0.0234  0.0667  0.0360
   89ccc     N1 1844   1.622   9.993   3.249 -0.1966  0.1808  0.0113
   89ccc     H5 1845   1.644  10.008   3.347  0.6314  0.8113 -0.2541
   89ccc     H6 1846   1.690  10.057   3.206  1.3792 -0.9618  0.7303
   89ccc     N2 1847   1.561  10.234   3.053 -0.0520 -0.9970  0.1150
   89ccc     H7 1848   1.661  10.230   3.037  0.5581  0.0062  3.0919
   90ccc     C1 1849   2.442   8.967   1.724 -0.6663 -0.3267 -0.5318
   90ccc     H1 1850   2.451   8.881   1.791 -1.6320 -0.5782 -0.7085
   90ccc     H2 1851   2.455   8.919   1.627  0.7363  1.1064 -1.1131
   90ccc     C2 1852   2.563   9.062   1.746 -0.8877 -0.3978  0.1453
   90ccc     H3 1853   2.552   9.128   1.833 -0.5604  2.4312 -1.8086
   90ccc     H4 1854   2.658   9.010   1.761 -0.5076 -0.4921 -2.1762
   90ccc     N1 1855   2.569   9.142   1.629  0.3406 -0.1314  0.0403
   90ccc     H5 1856   2.473   9.178   1.629  0.9364  1.5754 -0.7153
   90ccc     H6 1857   2.614   9.232   1.644 -1.9198  1.3259 -1.3645
   90ccc     N2 1858   2.312   9.031   1.744  0.1535  0.3259 -0.1849
   90ccc     H7 1859   2.305   9.131   1.755 -1.0587  0.3415 -0.9610
   91ccc     C1 1860   1.405   9.166   1.441 -0.1925 -0.0282 -0.2792
   91ccc     H1 1861   1.343   9.077   1.450 -3.0851  1.8838  0.2150
   91ccc     H2 1862   1.353   9.247   1.495 -1.5025  0.8999 -2.7629
   91ccc     C2 1863   1.411   9.217   1.293 -0.6516  0.3336  0.5188
   91ccc     H3 1864   1.308   9.242   1.262 -0.4729  0.5486  0.0904
   91ccc     H4 1865   1.477   9.303   1.282  0.3092 -0.4356  0.1565
   91ccc     N1 1866   1.455   9.108   1.201 -0.3799 -0.1542  0.3785
   91ccc     H5 1867   1.395   9.027   1.217  0.2771 -1.0917 -1.5419
   91ccc     H6 1868   1.417   9.132   1.109 -2.5990 -3.0504  0.3872
   91ccc     N2 1869   1.540   9.153   1.498  0.1990  0.1330 -0.5799
   91ccc     H7 1870   1.611   9.199   1.442  1.3188 -0.5963  0.2057
   92ccc     C1 1871   3.351   9.544   2.434 -0.5835 -0.2583 -0.5532
   92ccc     H1 1872   3.445   9.502   2.472 -0.0796  1.8739  0.7130
   92ccc     H2 1873   3.382   9.598   2.343 -1.0546 -2.0141 -1.8012
   92ccc     C2 1874   3.278   9.640   2.530  0.4907  0.0644  0.1637
   92ccc     H3 1875   3.342   9.723   2.562  2.2706 -0.7138 -1.1588
   92ccc     H4 1876   3.194   9.681   2.473 -0.4810  0.7710  2.0377
   92ccc     N1 1877   3.232   9.561   2.651  0.1375  0.8024  0.2780
   92ccc     H5 1878   3.203   9.472   2.610 -0.5255  0.0869  2.1805
   92ccc     H6 1879   3.314   9.528   2.701 -0.1699 -1.2383 -0.4421
   92ccc     N2 1880   3.273   9.425   2.394  0.0648  0.7850 -0.1305
   92ccc     H7 1881   3.274   9.341   2.451  1.5630  0.7856 -0.1025
   93ccc     C1 1882   2.964   9.053   1.562 -0.5954 -1.0477 -0.8546
   93ccc     H1 1883   3.072   9.044   1.577 -0.9257 -0.7461  2.3645
   93ccc     H2 1884   2.918   8.954   1.551 -0.5663 -1.5640  2.6372
   93ccc     C2 1885   2.933   9.136   1.435 -0.0380  0.0857 -0.3196
   93ccc     H3 1886   3.001   9.222   1.435 -1.5434  1.3267 -0.1250
   93ccc     H4 1887   2.950   9.074   1.346 -2.3615 -0.8579 -0.1858
   93ccc     N1 1888   2.792   9.183   1.439 -0.5659 -0.1300  0.1115
   93ccc     H5 1889   2.793   9.241   1.523 -1.0632 -0.3138  0.2467
   93ccc     H6 1890   2.798   9.258   1.370  3.0460 -1.0751 -0.8667
   93ccc     N2 1891   2.919   9.113   1.694 -0.7121 -0.2571 -0.0737
   93ccc     H7 1892   2.858   9.194   1.696  1.4430  1.4614 -0.0732
   94ccc     C1 1893   0.696  10.483   3.886  0.4259 -0.4119  0.0939
   94ccc     H1 1894   0.658  10.492   3.989 -1.2895 -0.0742 -0.5322
   94ccc     H2 1895   0.802  10.464   3.907 -0.1449 -1.8439  2.0105
   94ccc     C2 1896   0.669  10.610   3.806 -0.1372 -0.4312 -1.1911
   94ccc     H3 1897   0.705  10.699   3.859  0.4933  0.9584 -3.7603
   94ccc     H4 1898   0.729  10.612   3.714  3.0669 -0.9036  0.7261
   94ccc     N1 1899   0.522  10.612   3.773  0.1126 -0.8789  0.1767
   94ccc     H5 1900   0.499  10.514   3.787 -1.6327 -0.3432  1.3164
   94ccc     H6 1901   0.474  10.644   3.857  0.1652  0.2994 -0.2307
   94ccc     N2 1902   0.631  10.369   3.817 -0.1320  0.0769 -0.4053
   94ccc     H7 1903   0.621  10.376   3.717  2.3411  0.0800 -0.7150
   95ccc     C1 1904   0.423   9.483   3.872  0.5706  0.2469  0.0065
   95ccc     H1 1905   0.452   9.476   3.977  0.5553  1.3182  0.0966
   95ccc     H2 1906   0.321   9.442   3.864  0.7695 -0.1546 -0.5263
   95ccc     C2 1907   0.510   9.391   3.779 -0.6693  0.2159 -0.0174
   95ccc     H3 1908   0.615   9.403   3.806 -0.7607  1.3229 -0.1345
   95ccc     H4 1909   0.479   9.286   3.791  1.1321 -0.5923 -1.7666
   95ccc     N1 1910   0.488   9.441   3.642 -0.4108 -0.5241 -0.6219
   95ccc     H5 1911   0.548   9.522   3.629 -0.0826 -0.0055  2.9826
   95ccc     H6 1912   0.533   9.373   3.581  2.3017 -0.2955  0.9412
   95ccc     N2 1913   0.420   9.627   3.835 -0.0426  0.4742  0.1418
   95ccc     H7 1914   0.491   9.661   3.771 -0.1978  1.4297  0.4546
   96ccc     C1 1915   0.233  10.715   3.316 -0.3108  0.2148 -0.5261
   96ccc     H1 1916   0.332  10.762   3.317  0.5806 -1.2934 -3.7615
   96ccc     H2 1917   0.172  10.788   3.261  0.3965  1.1046 -0.1500
   96ccc     C2 1918   0.183  10.698   3.457  0.3100 -0.0950 -0.6045
   96ccc     H3 1919   0.172  10.795   3.507  0.3434 -0.4504  0.1134
   96ccc     H4 1920   0.093  10.640   3.480  0.1637  0.8430  1.4336
   96ccc     N1 1921   0.278  10.624   3.540 -0.0014 -0.7318 -0.4567
   96ccc     H5 1922   0.228  10.616   3.628  0.1627  1.2830 -0.1317
   96ccc     H6 1923   0.257  10.530   3.507  3.1037 -1.0280 -1.9930
   96ccc     N2 1924   0.251  10.587   3.246  0.0254 -0.2177  0.3680
   96ccc     H7 1925   0.231  10.501   3.295 -1.1157 -0.3856 -0.3723
   97ccc     C1 1926   0.125   9.896   2.943 -0.2845  0.9371 -0.1633
   97ccc     H1 1927   0.230   9.878   2.917  0.2743  0.7602  2.0418
   97ccc     H2 1928   0.124   9.939   3.044 -0.6817 -0.0825  0.2816
   97ccc     C2 1929   0.052   9.763   2.936 -0.9141 -0.1107 -0.1882
   97ccc     H3 1930   0.113   9.701   3.003 -0.1871  0.0146 -0.7212
   97ccc     H4 1931  -0.050   9.775   2.975 -0.7823  0.4510 -0.0123
   97ccc     N1 1932   0.057   9.703   2.804 -0.2715 -0.5029 -0.3314
   97ccc     H5 1933   0.026   9.772   2.736 -0.8427 -1.1797 -0.7740
   97ccc     H6 1934   0.157   9.702   2.785  0.1891  0.4617  1.6910
   97ccc     N2 1935   0.067   9.996   2.857 -0.7045 -0.5138 -0.2477
   97ccc     H7 1936   0.050   9.979   2.759  0.4585  1.3490 -0.8346
   98ccc     C1 1937   1.069  10.269   2.176 -0.1086  0.5481  0.8125
   98ccc     H1 1938   1.166  10.218   2.167  0.6386  1.5397  2.6099
   98ccc     H2 1939   1.014  10.254   2.083 -1.0459  1.4242  1.1956
   98ccc     C2 1940   1.093  10.419   2.196  0.0382 -0.4684 -0.1017
   98ccc     H3 1941   1.133  10.444   2.295  1.6756 -0.6145 -0.6893
   98ccc     H4 1942   1.163  10.449   2.117 -0.6422  1.6748  0.0369
   98ccc     N1 1943   0.968  10.491   2.165 -0.0716 -0.3637  0.3489
   98ccc     H5 1944   0.928  10.457   2.077  1.1935 -1.4899  0.1888
   98ccc     H6 1945   0.906  10.445   2.231 -0.0796 -2.4913 -1.0489
   98ccc     N2 1946   0.995  10.207   2.286 -0.4989 -0.3777  0.1527
   98ccc     H7 1947   1.040  10.146   2.354  2.2095 -0.1906 -1.3475
   99ccc     C1 1948   0.119  10.000   2.389 -0.0780 -0.2323 -0.0200
   99ccc     H1 1949   0.060   9.923   2.338 -0.7848 -0.2583  0.8111
   99ccc     H2 1950   0.104  10.004   2.497  0.6225  0.1924  0.0662
   99ccc     C2 1951   0.064  10.131   2.326  0.2734 -0.6982  0.7434
   99ccc     H3 1952  -0.044  10.146   2.343  0.4110 -0.8449  1.8218
   99ccc     H4 1953   0.116  10.213   2.378  3.0595 -2.3807  0.7746
   99ccc     N1 1954   0.086  10.128   2.179 -0.1552  0.1145 -0.4181
   99ccc     H5 1955   0.053  10.219   2.147 -1.4195  0.2523  1.1589
   99ccc     H6 1956   0.186  10.139   2.167  0.1084  0.3378  1.6090
   99ccc     N2 1957   0.263   9.984   2.364 -0.4141 -0.1228  0.0402
   99ccc     H7 1958   0.306  10.004   2.275 -1.9411 -0.8847 -0.9237
  100ccc     C1 1959   0.579  10.493   3.288  0.4008 -0.2436  0.0631
  100ccc     H1 1960   0.556  10.489   3.181  1.6411  0.7069 -0.2647
  100ccc     H2 1961   0.487  10.469   3.342 -0.1449 -0.4311 -0.9283
  100ccc     C2 1962   0.616  10.640   3.294  0.6454 -0.3319  0.0605
  100ccc     H3 1963   0.706  10.667   3.237  1.0091 -0.1862  0.6922
  100ccc     H4 1964   0.529  10.691   3.251  0.6984  0.3841  0.7665
  100ccc     N1 1965   0.629  10.678   3.435 -0.0725  0.0305 -0.3729
  100ccc     H5 1966   0.718  10.637   3.463  0.9240  2.4202  0.1717
  100ccc     H6 1967   0.654  10.776   3.429 -1.5304  0.4204 -0.3575
  100ccc     N2 1968   0.685  10.403   3.329 -0.2542  0.3557 -0.2302
  100ccc     H7 1969   0.770  10.409   3.273 -1.5978  2.8809 -2.1797
  101ccc     C1 1970   1.112   9.860   4.116 -0.5775  0.5068 -0.3817
  101ccc     H1 1971   1.049   9.771   4.115 -2.8373  1.9715  0.9502
  101ccc     H2 1972   1.213   9.823   4.139  0.1312  2.3361 -0.3483
  101ccc     C2 1973   1.058   9.959   4.220 -0.5298  0.0018  0.1308
  101ccc     H3 1974   1.051   9.898   4.311  0.9561 -0.9863 -0.3744
  101ccc     H4 1975   1.123  10.046   4.233 -1.4989  1.0879 -1.8687
  101ccc     N1 1976   0.920   9.999   4.185  0.0700 -0.0457 -1.1296
  101ccc     H5 1977   0.868   9.913   4.202 -0.6736  0.5166 -0.5025
  101ccc     H6 1978   0.905  10.041   4.276  1.4830 -1.4594 -0.1962
  101ccc     N2 1979   1.109   9.917   3.984 -0.0436 -0.6587 -0.3613
  101ccc     H7 1980   1.154  10.006   3.965  1.6382 -1.3151  0.4365
  102ccc     C1 1981   0.608   8.294   4.243  0.0146 -0.2540 -0.1979
  102ccc     H1 1982   0.702   8.345   4.222  0.1901  0.1691  1.4530
  102ccc     H2 1983   0.532   8.326   4.171 -0.7651  0.7323  1.0099
  102ccc     C2 1984   0.547   8.354   4.375 -0.8832  0.2726 -0.7482
  102ccc     H3 1985   0.543   8.463   4.365 -3.0045  0.1152 -2.1448
  102ccc     H4 1986   0.443   8.329   4.397 -1.4599  1.8113 -1.6017
  102ccc     N1 1987   0.628   8.319   4.494  0.1234 -0.0322 -0.1384
  102ccc     H5 1988   0.573   8.353   4.573  0.5366 -0.9667  0.5702
  102ccc     H6 1989   0.600   8.222   4.505  0.3338 -0.1130 -0.3168
  102ccc     N2 1990   0.621   8.143   4.243 -0.1357 -0.2255  0.0988
  102ccc     H7 1991   0.586   8.088   4.320 -1.6633 -0.8482 -0.9864
  103ccc     C1 1992   0.060   7.444   4.323 -0.5915 -0.2598  0.7947
  103ccc     H1 1993   0.047   7.413   4.219  1.9439  1.2323 -0.0460
  103ccc     H2 1994   0.119   7.366   4.373  1.4101  0.0868 -0.8929
  103ccc     C2 1995  -0.064   7.478   4.401 -0.2178 -0.5018  0.5447
  103ccc     H3 1996  -0.136   7.396   4.394  0.9177 -1.4569 -0.1840
  103ccc     H4 1997  -0.037   7.501   4.505 -0.3953  0.5727  0.3650
  103ccc     N1 1998  -0.116   7.608   4.354  0.2282  0.3309 -0.2099
  103ccc     H5 1999  -0.196   7.619   4.416  0.7756  0.9099  0.4154
  103ccc     H6 2000  -0.063   7.672   4.413  0.3046 -0.3859  0.5114
  103ccc     N2 2001   0.158   7.549   4.307  0.5446 -0.5988 -0.0597
  103ccc     H7 2002   0.123   7.644   4.319  0.9692 -0.5933  1.2650
  104ccc     C1 2003   0.994   6.931   2.237  0.6807 -0.7426 -0.0897
  104ccc     H1 2004   0.964   6.830   2.269 -1.6598 -0.5793 -1.5469
  104ccc     H2 2005   0.905   6.981   2.199  0.9272  0.5162  0.9110
  104ccc     C2 2006   1.092   6.938   2.111 -0.7575  0.4500  0.0415
  104ccc     H3 2007   1.067   6.862   2.035  1.8652  0.9833 -1.4682
  104ccc     H4 2008   1.074   7.035   2.064 -2.2429  0.2593  0.1667
  104ccc     N1 2009   1.230   6.929   2.153 -0.6835  0.4316 -0.0303
  104ccc     H5 2010   1.232   7.003   2.224  1.4264 -2.7357  3.6150
  104ccc     H6 2011   1.232   6.852   2.220  1.5564  1.0271  0.6910
  104ccc     N2 2012   1.052   7.003   2.358  0.3280 -0.0839 -0.0412
  104ccc     H7 2013   1.117   6.958   2.422  0.3857  0.6663  0.4400
  105ccc     C1 2014   1.631   7.696   2.484  0.5702  0.5877  0.4852
  105ccc     H1 2015   1.577   7.791   2.471  0.3390  0.1312 -2.6621
  105ccc     H2 2016   1.708   7.700   2.562  1.3659  1.6816 -0.3019
  105ccc     C2 2017   1.707   7.674   2.346 -0.7538 -0.1784  0.0007
  105ccc     H3 2018   1.638   7.652   2.264  0.4695 -1.3094 -0.7534
  105ccc     H4 2019   1.767   7.762   2.320 -0.5417 -0.6604 -1.1623
  105ccc     N1 2020   1.796   7.557   2.353  0.3388  0.1364 -0.1094
  105ccc     H5 2021   1.728   7.481   2.350  0.6430 -0.1133 -1.7776
  105ccc     H6 2022   1.838   7.547   2.261 -1.3222  1.9772 -1.1434
  105ccc     N2 2023   1.543   7.582   2.520  0.1687  0.1636 -0.5470
  105ccc     H7 2024   1.582   7.497   2.558  0.2761  0.9287  1.1460
  106ccc     C1 2025  -0.994   8.715   2.885 -0.3379 -0.0078 -0.5068
  106ccc     H1 2026  -1.049   8.711   2.981  1.5813  0.8338  0.6796
  106ccc     H2 2027  -1.023   8.810   2.841 -0.4649  0.4355  0.4991
  106ccc     C2 2028  -1.034   8.602   2.795  0.0370  0.7022  0.0400
  106ccc     H3 2029  -1.139   8.597   2.765  0.6880  0.2644 -2.3818
  106ccc     H4 2030  -0.973   8.608   2.704  3.9257  0.0517  2.3797
  106ccc     N1 2031  -1.014   8.468   2.857  0.1964 -0.1474  0.4990
  106ccc     H5 2032  -1.045   8.416   2.775 -2.1829  2.5792 -0.4413
  106ccc     H6 2033  -0.912   8.458   2.861  0.0831 -1.4342  0.8930
  106ccc     N2 2034  -0.849   8.709   2.927 -0.3267 -0.0983  0.1960
  106ccc     H7 2035  -0.808   8.617   2.926 -2.5053 -1.1496  1.0569
  107ccc     C1 2036   0.016   9.217   2.960 -0.2787 -0.4181  0.1022
  107ccc     H1 2037   0.099   9.166   3.011  0.2448  0.9369  0.6444
  107ccc     H2 2038   0.048   9.251   2.861  1.5817 -0.8221  0.5365
  107ccc     C2 2039  -0.018   9.355   3.034 -0.4097 -0.0103  0.2068
  107ccc     H3 2040  -0.049   9.357   3.139 -0.0179 -0.6838  0.3439
  107ccc     H4 2041   0.079   9.403   3.053 -0.0714 -0.8412  0.6564
  107ccc     N1 2042  -0.110   9.432   2.944  0.7983  0.0648 -0.2347
  107ccc     H5 2043  -0.194   9.374   2.933  0.0467  1.0755 -0.0032
  107ccc     H6 2044  -0.152   9.501   3.006 -0.5381  1.2242 -2.2958
  107ccc     N2 2045  -0.097   9.121   2.948  0.4833 -0.3035 -0.0783
  107ccc     H7 2046  -0.139   9.116   2.856 -0.5815  2.7566  0.1445
  108ccc     C1 2047   0.935   8.647   4.433  0.4422  0.5670  0.5483
  108ccc     H1 2048   0.978   8.563   4.377 -0.1332 -0.5648  1.7466
  108ccc     H2 2049   0.993   8.739   4.418 -1.5158  2.2414  2.5550
  108ccc     C2 2050   0.939   8.607   4.579  0.3848  0.7100 -0.1194
  108ccc     H3 2051   1.042   8.583   4.608  0.6903  0.8466 -1.0550
  108ccc     H4 2052   0.917   8.693   4.644  1.5680  0.6186  0.4380
  108ccc     N1 2053   0.857   8.489   4.616 -0.7032  0.5103  0.0042
  108ccc     H5 2054   0.862   8.484   4.718 -0.7823  0.3840  0.0015
  108ccc     H6 2055   0.764   8.529   4.603 -0.1936  1.8835  0.3630
  108ccc     N2 2056   0.796   8.670   4.385 -0.1731  0.4230 -0.2367
  108ccc     H7 2057   0.723   8.667   4.455  0.3149 -1.2214  0.2335
  109ccc     C1 2058   0.248   9.113   3.616 -0.2773 -0.0934  0.3967
  109ccc     H1 2059   0.328   9.167   3.564 -2.0052  1.4080 -0.8205
  109ccc     H2 2060   0.219   9.027   3.554  0.8689 -0.7757  0.7721
  109ccc     C2 2061   0.131   9.207   3.629 -0.5444 -0.2958  0.1404
  109ccc     H3 2062   0.096   9.248   3.534 -0.0303  1.2249  0.5829
  109ccc     H4 2063   0.050   9.158   3.685  0.5836 -0.9906  1.2363
  109ccc     N1 2064   0.169   9.334   3.692 -0.3802  0.1624  0.4143
  109ccc     H5 2065   0.085   9.391   3.695 -0.2843  0.3613 -0.5507
  109ccc     H6 2066   0.174   9.306   3.790 -0.7762 -0.3125  0.3060
  109ccc     N2 2067   0.290   9.067   3.742  0.2511 -0.0427 -0.3280
  109ccc     H7 2068   0.240   9.096   3.825  0.8764  0.8397 -0.2513
  110ccc     C1 2069   2.395   8.527   4.370 -0.0387  0.3360 -0.4990
  110ccc     H1 2070   2.350   8.608   4.429  0.0691 -1.0396  1.5723
  110ccc     H2 2071   2.475   8.479   4.427 -1.9106 -0.2684  1.7802
  110ccc     C2 2072   2.443   8.598   4.242 -0.3722  0.6078 -0.3034
  110ccc     H3 2073   2.529   8.662   4.265  0.5758 -0.9567  0.6622
  110ccc     H4 2074   2.483   8.533   4.164 -2.7057  0.9290 -1.8470
  110ccc     N1 2075   2.340   8.682   4.181 -0.4691 -0.1785  0.1597
  110ccc     H5 2076   2.385   8.744   4.114 -3.3599  2.1107  0.0986
  110ccc     H6 2077   2.291   8.614   4.123  0.5508 -1.1570  0.4142
  110ccc     N2 2078   2.290   8.425   4.343  0.1279  0.3897 -0.5101
  110ccc     H7 2079   2.198   8.454   4.312  0.3587  0.2588 -1.3570
  111ccc     C1 2080   2.389   7.598   4.266 -0.0206  0.4565  0.7597
  111ccc     H1 2081   2.419   7.516   4.332  2.2828 -1.2930 -2.2002
  111ccc     H2 2082   2.345   7.555   4.175  1.2215  1.3214 -0.2733
  111ccc     C2 2083   2.518   7.673   4.243  0.1538 -0.0573 -0.3844
  111ccc     H3 2084   2.561   7.705   4.338 -1.7337 -2.4875  1.4288
  111ccc     H4 2085   2.586   7.602   4.194  0.7959  1.3224 -1.5574
  111ccc     N1 2086   2.508   7.786   4.151  0.4776  0.5154  0.9285
  111ccc     H5 2087   2.510   7.735   4.063  2.0178  0.8397  0.7449
  111ccc     H6 2088   2.408   7.808   4.145  0.4297 -0.1353 -2.6542
  111ccc     N2 2089   2.281   7.673   4.344  0.3551  0.1193 -0.3330
  111ccc     H7 2090   2.277   7.664   4.445 -0.7451  2.5229 -0.1040
  112ccc     C1 2091   2.282   8.313   3.513 -0.2477 -0.4353  1.2703
  112ccc     H1 2092   2.253   8.227   3.575  2.6388 -2.2599  0.2754
  112ccc     H2 2093   2.262   8.298   3.406  0.6609  0.1556  1.0089
  112ccc     C2 2094   2.432   8.313   3.540  0.2701 -0.3315  0.1278
  112ccc     H3 2095   2.475   8.215   3.515 -1.5262 -0.9056 -0.9117
  112ccc     H4 2096   2.480   8.385   3.472 -1.1559  0.1299 -0.4504
  112ccc     N1 2097   2.457   8.350   3.675  0.3183 -0.4645 -0.4653
  112ccc     H5 2098   2.406   8.289   3.739  0.9523  0.6463  1.1470
  112ccc     H6 2099   2.552   8.318   3.695  0.6106 -1.8772 -3.4671
  112ccc     N2 2100   2.221   8.434   3.543 -0.2596  0.4664  0.0404
  112ccc     H7 2101   2.268   8.504   3.600 -0.2847  1.4826 -1.1352
  113ccc     C1 2102   2.194   9.087   4.111  0.2060 -0.6001 -0.5724
  113ccc     H1 2103   2.152   9.181   4.074 -3.5187 -0.6215  2.9200
  113ccc     H2 2104   2.133   9.062   4.199 -0.5542  1.5256 -0.4557
  113ccc     C2 2105   2.330   9.120   4.162  0.1058  0.4358 -0.2770
  113ccc     H3 2106   2.394   9.163   4.084 -1.2604  0.5316 -1.3928
  113ccc     H4 2107   2.327   9.200   4.237 -1.3976 -1.1211  1.4009
  113ccc     N1 2108   2.393   8.997   4.208 -0.7855  0.2271 -0.4698
  113ccc     H5 2109   2.424   8.946   4.126 -1.2136 -1.3055  0.2909
  113ccc     H6 2110   2.484   9.035   4.236  0.3309 -2.1163 -0.6406
  113ccc     N2 2111   2.176   8.978   4.015 -0.7763 -0.6562  0.3720
  113ccc     H7 2112   2.149   8.886   4.047  0.7673 -0.9262  0.9836
  114ccc     C1 2113   2.708   8.132   4.567  0.2416 -0.4177 -0.4524
  114ccc     H1 2114   2.801   8.168   4.612  0.0017  2.6354 -2.1021
  114ccc     H2 2115   2.675   8.046   4.626 -0.9308 -0.2386 -0.8114
  114ccc     C2 2116   2.745   8.078   4.421 -0.2763 -0.4622 -0.7676
  114ccc     H3 2117   2.774   8.166   4.364 -3.1077  0.0421 -1.5970
  114ccc     H4 2118   2.824   8.003   4.429 -0.1542 -0.2371  0.1989
  114ccc     N1 2119   2.630   8.017   4.369 -0.2485  0.0815  0.5804
  114ccc     H5 2120   2.590   7.951   4.436 -2.9849  0.0565 -0.9290
  114ccc     H6 2121   2.558   8.089   4.372  0.1962  0.6821 -1.6180
  114ccc     N2 2122   2.611   8.245   4.576  1.4290 -0.0686 -0.3237
  114ccc     H7 2123   2.551   8.260   4.496  0.2082 -1.9780  0.1716
  115ccc     C1 2124   2.255   8.832   5.321 -0.3109 -0.1841  0.2036
  115ccc     H1 2125   2.200   8.761   5.384  1.7698 -2.3262 -0.2795
  115ccc     H2 2126   2.352   8.838   5.371  0.5901  1.1405 -1.5973
  115ccc     C2 2127   2.188   8.972   5.326  0.3653  1.1792 -0.1576
  115ccc     H3 2128   2.080   8.961   5.312 -0.0208  2.3052  1.5946
  115ccc     H4 2129   2.186   9.010   5.429  0.4568  0.1589  0.2333
  115ccc     N1 2130   2.242   9.070   5.227  0.2568 -0.1644  0.5528
  115ccc     H5 2131   2.234   9.165   5.263  2.6448  0.7918 -1.1827
  115ccc     H6 2132   2.341   9.062   5.251  0.6406  0.6235 -0.6605
  115ccc     N2 2133   2.278   8.775   5.191  0.1632  0.4280  0.0783
  115ccc     H7 2134   2.277   8.840   5.113  0.6025 -0.0398 -0.3266
  116ccc     C1 2135   2.101   9.249   3.424  0.1550 -0.3282  1.4836
  116ccc     H1 2136   2.066   9.349   3.396 -1.8142 -0.9716  1.4639
  116ccc     H2 2137   2.210   9.250   3.435  0.5639  1.4296 -1.5795
  116ccc     C2 2138   2.063   9.148   3.308  0.2365  0.0820 -0.1644
  116ccc     H3 2139   2.138   9.150   3.228 -1.3587  2.6629 -1.7320
  116ccc     H4 2140   2.058   9.047   3.351 -0.4850 -0.0789 -0.6087
  116ccc     N1 2141   1.934   9.168   3.241  0.3777  0.0980 -0.4010
  116ccc     H5 2142   1.869   9.182   3.318 -0.5684 -0.6173 -1.0434
  116ccc     H6 2143   1.936   9.264   3.208  1.2546 -0.2266 -1.3697
  116ccc     N2 2144   2.028   9.206   3.542 -0.4351  0.3825 -0.0529
  116ccc     H7 2145   1.959   9.133   3.531 -2.5726  2.4525 -1.5253
  117ccc     C1 2146   1.411   9.821   3.814  0.1883  0.6857 -0.0134
  117ccc     H1 2147   1.341   9.768   3.749 -0.3578  0.4971  0.7141
  117ccc     H2 2148   1.358   9.852   3.905  1.0071  0.1821  0.6453
  117ccc     C2 2149   1.450   9.952   3.743  0.0052 -0.4320  0.2177
  117ccc     H3 2150   1.369  10.021   3.719  0.9407  0.6853  0.1709
  117ccc     H4 2151   1.525  10.010   3.798  1.2984 -0.2019 -1.6838
  117ccc     N1 2152   1.526   9.924   3.628  0.3545 -0.5520 -0.6934
  117ccc     H5 2153   1.538  10.019   3.591  0.8463 -1.4563 -3.0450
  117ccc     H6 2154   1.616   9.919   3.676 -0.2649 -1.7132  0.3935
  117ccc     N2 2155   1.518   9.726   3.847  0.6381 -0.2664  0.2115
  117ccc     H7 2156   1.610   9.748   3.811  0.8394 -1.3238  0.0499
  118ccc     C1 2157   0.993   7.877   3.155 -0.6625  0.4557 -0.0110
  118ccc     H1 2158   1.024   7.982   3.150  0.7899  0.0365 -0.1032
  118ccc     H2 2159   0.932   7.870   3.064  0.0009 -0.0107 -0.4208
  118ccc     C2 2160   0.901   7.842   3.275 -0.0497  0.3299  0.6214
  118ccc     H3 2161   0.807   7.898   3.267  0.1059  0.9189  2.3129
  118ccc     H4 2162   0.869   7.738   3.269 -0.3122  0.3834  1.0739
  118ccc     N1 2163   0.952   7.867   3.411 -0.2680 -0.3266  0.0994
  118ccc     H5 2164   1.050   7.837   3.404  0.0184  0.3370  1.0558
  118ccc     H6 2165   0.957   7.968   3.425  0.0335 -0.0148 -1.9321
  118ccc     N2 2166   1.117   7.793   3.152  0.0111 -0.2162  0.0997
  118ccc     H7 2167   1.165   7.762   3.236  0.8421 -1.0332 -0.6471
  119ccc     C1 2168   2.013   7.832   2.764  0.1846 -0.0084 -0.3130
  119ccc     H1 2169   1.976   7.935   2.768  1.3576  0.4390 -0.6046
  119ccc     H2 2170   2.086   7.820   2.845  0.0449  2.7232  0.3083
  119ccc     C2 2171   2.079   7.805   2.632 -0.1259  0.1632 -0.0081
  119ccc     H3 2172   2.149   7.884   2.606 -0.8575  0.0424 -2.5854
  119ccc     H4 2173   2.138   7.714   2.649 -0.1201  0.0502 -0.6223
  119ccc     N1 2174   1.964   7.788   2.534 -0.3013  0.3385  0.4278
  119ccc     H5 2175   1.890   7.856   2.551 -0.2890  1.3050 -2.6642
  119ccc     H6 2176   1.995   7.804   2.438 -3.4573 -0.6061 -0.8902
  119ccc     N2 2177   1.907   7.736   2.794  1.0250  0.6003 -0.2920
  119ccc     H7 2178   1.880   7.673   2.719 -2.0720 -0.9935  1.9153
  120ccc     C1 2179   2.858   7.963   3.182  0.1042  0.1925  0.6126
  120ccc     H1 2180   2.879   7.905   3.091 -2.3738 -1.7440  1.1432
  120ccc     H2 2181   2.811   8.055   3.144  0.1484 -0.3224 -0.7492
  120ccc     C2 2182   2.986   8.003   3.259  0.0191  0.0914 -0.5074
  120ccc     H3 2183   3.015   7.926   3.331 -0.4100  0.8448  0.4835
  120ccc     H4 2184   3.075   8.034   3.202  1.3752  0.3522  1.6240
  120ccc     N1 2185   2.952   8.121   3.337  0.6805 -0.2531  0.4025
  120ccc     H5 2186   2.905   8.070   3.411  2.7567 -1.3657  1.0579
  120ccc     H6 2187   3.034   8.133   3.396  2.1074  1.3246 -1.7253
  120ccc     N2 2188   2.760   7.894   3.270 -0.2876  0.1620 -0.7182
  120ccc     H7 2189   2.784   7.878   3.367  0.8447  1.1986 -0.8185
  121ccc     C1 2190   2.525   8.106   4.007 -0.0590  0.0834 -0.4564
  121ccc     H1 2191   2.478   8.200   3.977 -0.3112  0.7903  1.9192
  121ccc     H2 2192   2.485   8.057   4.097 -0.7571 -0.4518 -1.0447
  121ccc     C2 2193   2.672   8.130   4.026  0.3151  0.0536  0.0615
  121ccc     H3 2194   2.709   8.186   3.939 -3.6867 -0.0141 -1.9248
  121ccc     H4 2195   2.685   8.201   4.109  1.4229 -0.7451  0.5818
  121ccc     N1 2196   2.744   8.004   4.051  0.2992  0.2341  0.4129
  121ccc     H5 2197   2.839   8.028   4.079  0.1272  0.7039  0.5864
  121ccc     H6 2198   2.757   7.976   3.954 -0.4818  1.5579 -0.0932
  121ccc     N2 2199   2.506   8.013   3.892  0.3586  0.0755  0.5522
  121ccc     H7 2200   2.565   7.931   3.891 -0.5370 -0.6091 -1.0795
  122ccc     C1 2201   1.852   6.651   3.799 -0.4582 -0.3662  0.2442
  122ccc     H1 2202   1.879   6.750   3.762  1.1345 -1.2373 -1.0318
  122ccc     H2 2203   1.920   6.635   3.883 -0.5183  1.0426  0.5931
  122ccc     C2 2204   1.870   6.539   3.702 -0.1384  0.1389  0.8997
  122ccc     H3 2205   1.977   6.532   3.682 -0.5876 -0.2907 -1.7539
  122ccc     H4 2206   1.816   6.449   3.734  0.5781 -1.0389 -1.0498
  122ccc     N1 2207   1.808   6.579   3.576  0.0638 -0.3827 -0.2768
  122ccc     H5 2208   1.724   6.630   3.603 -0.4747 -0.9603 -0.8379
  122ccc     H6 2209   1.867   6.649   3.530  0.7433 -0.5615  0.2972
  122ccc     N2 2210   1.717   6.669   3.868 -0.7670 -0.5208  0.4561
  122ccc     H7 2211   1.709   6.653   3.967  2.5213 -1.2524  0.7160
  123ccc     C1 2212   0.913   6.628   3.721 -0.0750 -0.8831 -0.5377
  123ccc     H1 2213   0.888   6.554   3.798 -1.3355  0.5754  0.5393
  123ccc     H2 2214   0.827   6.696   3.709 -0.6560 -1.2661  1.1526
  123ccc     C2 2215   0.934   6.557   3.593  0.4476 -0.1114 -0.6038
  123ccc     H3 2216   1.013   6.482   3.604  0.2597 -0.2483 -0.1906
  123ccc     H4 2217   0.839   6.507   3.569 -1.2424  2.2932  0.6388
  123ccc     N1 2218   0.971   6.644   3.474  0.2037  0.7695 -0.2990
  123ccc     H5 2219   1.060   6.677   3.512  0.8173 -0.0850 -0.9562
  123ccc     H6 2220   1.009   6.577   3.407  0.3487  0.9359 -0.3866
  123ccc     N2 2221   1.029   6.719   3.762 -0.1872  0.5920 -0.3180
  123ccc     H7 2222   1.118   6.703   3.717  0.9944 -0.8496  2.2726
  124ccc     C1 2223   0.907   7.140   4.078 -0.1783 -0.3109 -0.4653
  124ccc     H1 2224   0.846   7.062   4.030  1.8526 -2.1134 -0.2608
  124ccc     H2 2225   0.986   7.081   4.125 -1.3124  0.0971  2.1453
  124ccc     C2 2226   0.811   7.203   4.186  0.1802 -0.6351 -0.0251
  124ccc     H3 2227   0.774   7.118   4.244  0.3521 -2.0315 -1.8981
  124ccc     H4 2228   0.875   7.278   4.234  0.7647 -1.4566  0.5066
  124ccc     N1 2229   0.698   7.266   4.126 -0.3307  0.6962 -0.2274
  124ccc     H5 2230   0.623   7.245   4.191 -0.0847 -0.4550 -0.2859
  124ccc     H6 2231   0.724   7.363   4.143  2.7161 -0.1023  0.4150
  124ccc     N2 2232   0.971   7.237   3.998 -0.6988 -0.4599 -0.1985
  124ccc     H7 2233   1.062   7.274   4.023 -0.9071 -1.5683  2.5234
  125ccc     C1 2234   1.443   7.577   3.402 -0.3214 -0.2480 -0.6189
  125ccc     H1 2235   1.401   7.504   3.332  0.2344 -2.3257  1.1299
  125ccc     H2 2236   1.466   7.667   3.344  1.3717 -2.7926 -4.2979
  125ccc     C2 2237   1.574   7.522   3.456 -0.0380 -0.2512 -0.2380
  125ccc     H3 2238   1.654   7.521   3.381  1.5879  0.5797  1.4303
  125ccc     H4 2239   1.606   7.568   3.549  0.4654 -0.9717 -0.0438
  125ccc     N1 2240   1.534   7.384   3.496  0.1584 -0.4040  0.0438
  125ccc     H5 2241   1.486   7.354   3.411 -1.0020  0.5709  0.3173
  125ccc     H6 2242   1.614   7.321   3.493  1.6716  1.4461 -0.6694
  125ccc     N2 2243   1.346   7.597   3.517  0.1003 -0.4567  0.9577
  125ccc     H7 2244   1.362   7.541   3.599  0.1218 -0.8920  0.6614
  126SOL     OW 2245   7.202   7.645   6.171 -0.2046  0.7477  0.3115
  126SOL    HW1 2246   7.130   7.628   6.111 -1.1180  3.9294  0.3240
  126SOL    HW2 2247   7.172   7.610   6.255 -0.8997  0.2903 -0.1182
  127SOL     OW 2248   0.841   6.650   2.103  0.7380 -0.4515 -0.0602
  127SOL    HW1 2249   0.916   6.670   2.047  1.1421 -1.0138  0.2659
  127SOL    HW2 2250   0.868   6.572   2.152  0.6176  0.3204  1.3047
  128SOL     OW 2251   4.600   7.314   3.093  0.0819  0.0844 -0.0411
  128SOL    HW1 2252   4.600   7.405   3.123  1.2529 -0.0560  0.4561
  128SOL    HW2 2253   4.611   7.320   2.998 -0.5782  0.4683 -0.1015
  129SOL     OW 2254   6.790   6.313   6.612  0.4056  0.3359  0.0835
  129SOL    HW1 2255   6.875   6.284   6.646  0.7227 -1.3363 -1.9561
  129SOL    HW2 2256   6.727   6.283   6.677  1.1847 -0.5016  0.4729
  130SOL     OW 2257   1.873   3.541   5.936 -0.0323 -0.9400  0.1740
  130SOL    HW1 2258   1.834   3.614   5.888 -1.1324 -2.7789 -1.8820
  130SOL    HW2 2259   1.966   3.564   5.941 -0.1194  0.0055 -1.6224
  131SOL     OW 2260   5.768   8.012   1.174  0.2954 -0.0981  0.1676
  131SOL    HW1 2261   5.757   8.045   1.263  0.6085 -1.6457  0.8284
  131SOL    HW2 2262   5.858   8.032   1.151  0.0057  0.9482 -0.1037
  132SOL     OW 2263   3.438   6.303   8.324 -0.2163  0.0726 -0.4080
  132SOL    HW1 2264   3.364   6.343   8.369 -0.7661 -1.5004  0.1418
  132SOL    HW2 2265   3.411   6.299   8.232 -1.0743 -1.0339 -0.1183
  133SOL     OW 2266   1.382   5.717   0.521 -0.0797  0.7516 -0.1600
  133SOL    HW1 2267   1.305   5.770   0.540 -0.4919  0.4309 -0.8872
  133SOL    HW2 2268   1.404   5.676   0.604  0.2760  2.0816  0.4270
  134SOL     OW 2269   1.592   7.497   0.950  0.2855 -0.2561  0.1147
  134SOL    HW1 2270   1.531   7.545   1.006  0.5307  0.7826 -0.4968
  134SOL    HW2 2271   1.564   7.405   0.959 -0.3027 -0.0005  1.1471
  135SOL     OW 2272   6.047   0.155   7.231 -0.3595 -0.1723  0.5447
  135SOL    HW1 2273   6.051   0.207   7.311 -1.2169  0.5889  0.1180
  135SOL    HW2 2274   6.050   0.065   7.261 -1.0878  0.0947  1.4746
  136SOL     OW 2275   1.156   4.881   3.945 -0.1705 -0.2005 -0.0512
  136SOL    HW1 2276   1.236   4.846   3.905  0.3140  0.0086  0.6981
  136SOL    HW2 2277   1.116   4.935   3.877  0.9763  0.6813 -0.0695
  137SOL     OW 2278   5.667   6.818   7.851 -0.6037 -0.3060 -0.5007
  137SOL    HW1 2279   5.711   6.754   7.796 -2.9401 -3.3486  0.8674
  137SOL    HW2 2280   5.595   6.851   7.798 -1.1379 -1.0783 -0.2767
  138SOL     OW 2281   2.870   7.812   2.335  0.6192 -0.3164 -0.2354
  138SOL    HW1 2282   2.889   7.901   2.307  2.2724 -0.9330 -1.2123
  138SOL    HW2 2283   2.947   7.785   2.386 -0.1756 -0.9488  0.6803
  139SOL     OW 2284   6.383   7.065   5.027  0.4135 -0.3012 -0.2730
  139SOL    HW1 2285   6.314   7.006   5.057 -1.9703  1.8499 -1.1687
  139SOL    HW2 2286   6.373   7.066   4.932  0.1704  1.7345 -0.2558
  140SOL     OW 2287   5.766   7.546   3.967 -0.1074 -0.8651 -0.4499
  140SOL    HW1 2288   5.689   7.518   3.916 -0.5079 -2.0631  0.7752
  140SOL    HW2 2289   5.813   7.604   3.907 -1.7184 -0.4668 -1.3993
  141SOL     OW 2290   8.841   6.487   7.721 -0.2971 -0.7307  0.4808
  141SOL    HW1 2291   8.783   6.538   7.778 -0.2771 -0.7224  0.4934
  141SOL    HW2 2292   8.860   6.545   7.648 -0.0749 -0.6299  0.6176
  142SOL     OW 2293   4.555   5.611   0.616 -0.5181  0.6199 -0.5919
  142SOL    HW1 2294   4.536   5.614   0.522 -0.8038 -0.7367 -0.6006
  142SOL    HW2 2295   4.483   5.659   0.656 -1.6934 -0.7528 -0.9352
  143SOL     OW 2296   0.179   5.449   5.375  0.1651  0.0896 -0.0389
  143SOL    HW1 2297   0.235   5.375   5.351  0.6496  0.4448 -0.0442
  143SOL    HW2 2298   0.166   5.496   5.292 -1.7744 -1.0506 -0.4228
  144SOL     OW 2299   2.309   6.242   3.024  0.0614 -0.1751  0.1126
  144SOL    HW1 2300   2.320   6.162   3.076  1.2240 -1.0913 -1.4510
  144SOL    HW2 2301   2.394   6.255   2.982  0.2185  2.4771  1.0691
  145SOL     OW 2302   8.669   1.547   1.333  0.7161 -0.2420  0.2811
  145SOL    HW1 2303   8.590   1.530   1.281  0.8586  0.1094 -0.0590
  145SOL    HW2 2304   8.741   1.537   1.270  0.8816  0.3274  0.3790
  146SOL     OW 2305   8.768   0.505   8.666  0.1366  0.2159 -0.0592
  146SOL    HW1 2306   8.705   0.482   8.598  0.5700  0.0929 -0.4265
  146SOL    HW2 2307   8.740   0.456   8.743 -0.0213 -0.0967 -0.3133
  147SOL     OW 2308   5.707   8.671   5.543 -0.0374 -0.0768 -0.0527
  147SOL    HW1 2309   5.753   8.591   5.521 -2.5141 -1.7494  0.4421
  147SOL    HW2 2310   5.661   8.652   5.625 -0.3379  2.0179  0.3410
  148SOL     OW 2311   5.054   2.871   7.835  0.0410  0.1053  0.0179
  148SOL    HW1 2312   5.056   2.808   7.907  0.4392  1.8261  1.5838
  148SOL    HW2 2313   5.052   2.956   7.878 -0.5135  1.1830 -2.0307
  149SOL     OW 2314   8.039   5.773   4.484 -0.2022  0.2030 -0.0276
  149SOL    HW1 2315   8.091   5.711   4.434 -1.0783  0.3590 -1.1688
  149SOL    HW2 2316   7.980   5.813   4.420  0.3596  2.2524  0.6583
  150SOL     OW 2317   3.723   4.873   6.883 -0.2908  0.1325  0.0853
  150SOL    HW1 2318   3.746   4.966   6.880 -0.9913  0.3142  0.0840
  150SOL    HW2 2319   3.674   4.858   6.802  0.7736 -0.5058 -0.4498
  151SOL     OW 2320   5.971   0.373   5.650 -0.0246 -0.7925 -0.0729
  151SOL    HW1 2321   6.022   0.411   5.579  0.9032 -2.9109 -0.6057
  151SOL    HW2 2322   5.882   0.367   5.616 -0.5258  2.0340  0.5142
  152SOL     OW 2323   0.659   0.309   4.071 -0.4835 -0.2276  0.4106
  152SOL    HW1 2324   0.726   0.376   4.087 -0.7064  0.2314 -0.5374
  152SOL    HW2 2325   0.706   0.226   4.081  0.3877  0.0909 -0.8510
  153SOL     OW 2326   0.348   5.182   7.726 -0.2087 -0.2762 -0.2333
  153SOL    HW1 2327   0.414   5.239   7.688 -1.1619  0.8099 -0.2933
  153SOL    HW2 2328   0.306   5.235   7.795  0.1019 -1.5095  0.9548
  154SOL     OW 2329   6.469   5.808   3.616 -0.6117  0.1905 -0.2764
  154SOL    HW1 2330   6.377   5.808   3.589 -0.8786 -1.3767  0.5364
  154SOL    HW2 2331   6.501   5.721   3.593  0.3528  0.3214  0.4927
  155SOL     OW 2332   2.076   2.966   6.991  0.7426  0.4570 -0.4576
  155SOL    HW1 2333   2.066   3.060   7.001  0.6645  0.3731  0.3140
  155SOL    HW2 2334   2.163   2.954   6.954  0.5788  0.8498 -0.9783
  156SOL     OW 2335   6.390   1.262   3.845  0.5275 -0.0652  0.0188
  156SOL    HW1 2336   6.465   1.260   3.785  0.4535 -0.8053 -0.0604
  156SOL    HW2 2337   6.350   1.175   3.835 -0.0216  0.1364  0.4608
  157SOL     OW 2338   2.320   8.947   6.629 -0.1184 -0.0066 -0.5083
  157SOL    HW1 2339   2.277   8.889   6.691 -0.5281 -2.2832 -2.7664
  157SOL    HW2 2340   2.258   9.020   6.618 -0.8512 -0.4807  0.3543
  158SOL     OW 2341   1.629   4.829   8.093  0.4389  0.2519 -1.0728
  158SOL    HW1 2342   1.685   4.765   8.049  0.8825  0.3022 -0.5936
  158SOL    HW2 2343   1.674   4.847   8.176 -0.4718  0.0121 -0.5094
  159SOL     OW 2344   5.334   8.029   0.934 -0.0552  0.3769 -0.1090
  159SOL    HW1 2345   5.400   7.987   0.989 -0.0599  0.3673 -0.1106
  159SOL    HW2 2346   5.373   8.113   0.910  0.1143  0.2094 -0.4288
  160SOL     OW 2347   4.881   3.656   3.264  0.5332  0.0833  0.3435
  160SOL    HW1 2348   4.837   3.579   3.227  1.1649  0.0589 -0.3944
  160SOL    HW2 2349   4.818   3.727   3.252  0.8798  0.1702 -1.2408
  161SOL     OW 2350   8.736   5.975   6.109  0.4929 -0.0473 -0.1005
  161SOL    HW1 2351   8.654   6.024   6.121  0.1383 -0.8827  1.1443
  161SOL    HW2 2352   8.797   6.015   6.171  0.3100 -0.9173  0.6585
  162SOL     OW 2353   8.752   4.047   2.695 -0.0522 -0.0931 -0.1790
  162SOL    HW1 2354   8.749   4.038   2.600 -0.5357 -0.4113 -0.1353
  162SOL    HW2 2355   8.790   4.134   2.709 -2.6935  1.2453 -0.7086
  163SOL     OW 2356   4.854   8.924   7.158  0.3952  0.2046 -0.1558
  163SOL    HW1 2357   4.802   8.847   7.181 -0.7012  1.3581  1.3456
  163SOL    HW2 2358   4.829   8.943   7.067 -1.7109  0.6368  0.4691
  164SOL     OW 2359   4.367   0.321   6.942 -0.1216 -0.1647  0.3973
  164SOL    HW1 2360   4.285   0.299   6.897  0.9812  0.2026 -1.9508
  164SOL    HW2 2361   4.430   0.256   6.910  0.9917  0.8424  0.4602
  165SOL     OW 2362   5.975   5.549   0.675  0.1278 -0.5309 -0.1540
  165SOL    HW1 2363   5.920   5.485   0.720  0.8483 -0.0443  1.5047
  165SOL    HW2 2364   5.988   5.512   0.588  2.1369 -3.7258  1.3236
  166SOL     OW 2365   6.761   8.817   4.568 -0.1078 -0.1096 -0.1447
  166SOL    HW1 2366   6.837   8.861   4.608 -1.2551  0.6022  1.3958
  166SOL    HW2 2367   6.732   8.877   4.500  1.7424 -1.2310 -2.0418
  167SOL     OW 2368   5.536   1.540   3.933 -0.2469  0.0359 -0.3033
  167SOL    HW1 2369   5.469   1.503   3.876  0.5352 -0.3428 -0.9834
  167SOL    HW2 2370   5.591   1.466   3.957  0.5175  0.5081 -0.5550
  168SOL     OW 2371   7.640   3.135   5.504 -0.2555  0.5081  0.2982
  168SOL    HW1 2372   7.620   3.222   5.470 -0.4860 -0.0402 -0.9999
  168SOL    HW2 2373   7.707   3.101   5.445  0.9472  0.3733  1.6855
  169SOL     OW 2374   7.345   2.663   4.611  0.2973 -0.0879 -0.0147
  169SOL    HW1 2375   7.330   2.669   4.706  0.1577 -1.8091  0.1122
  169SOL    HW2 2376   7.287   2.728   4.573  1.2569  1.5279  1.1244
  170SOL     OW 2377   4.764   8.566   7.117 -0.0887 -0.0596  0.1136
  170SOL    HW1 2378   4.754   8.542   7.025 -2.0008  0.3516  0.1730
  170SOL    HW2 2379   4.858   8.565   7.132  0.1956 -1.6689 -1.4257
  171SOL     OW 2380   0.735   3.826   2.430 -0.2582 -0.8567 -0.0319
  171SOL    HW1 2381   0.804   3.864   2.485 -0.3459 -1.4819  0.5219
  171SOL    HW2 2382   0.654   3.845   2.477 -0.4538 -0.3003 -0.5830
  172SOL     OW 2383   7.937   3.186   1.198 -0.3017  0.3831  0.2628
  172SOL    HW1 2384   7.881   3.250   1.242  1.4856  2.2639 -0.0586
  172SOL    HW2 2385   7.898   3.176   1.111  0.3025  2.3576 -0.2802
  173SOL     OW 2386   1.844   7.311   2.157  0.0006  1.0725  0.4755
  173SOL    HW1 2387   1.936   7.286   2.160 -0.0700  0.8420  0.8496
  173SOL    HW2 2388   1.830   7.340   2.067  0.1859  0.1126  0.1196
  174SOL     OW 2389   0.772   3.645   1.026 -0.0073  0.4196 -0.5314
  174SOL    HW1 2390   0.786   3.661   0.933 -0.5726  2.3950 -0.3149
  174SOL    HW2 2391   0.857   3.662   1.067  0.3095 -0.7014 -0.6838
  175SOL     OW 2392   2.666   3.844   3.343  0.4427 -0.1692 -0.0714
  175SOL    HW1 2393   2.680   3.751   3.356  1.0398 -0.0639  0.0633
  175SOL    HW2 2394   2.700   3.885   3.423  0.8281  0.2148 -0.4298
  176SOL     OW 2395   8.630   8.415   8.593 -0.1974 -0.0363 -0.2050
  176SOL    HW1 2396   8.651   8.505   8.571  0.3171 -0.5205 -1.8559
  176SOL    HW2 2397   8.651   8.407   8.686 -0.4424  1.5711  0.0148
  177SOL     OW 2398   3.848   2.630   3.408 -0.2797  0.5186  0.5353
  177SOL    HW1 2399   3.810   2.684   3.339 -3.2955  0.0210  1.6625
  177SOL    HW2 2400   3.863   2.545   3.367 -0.0065  0.8337 -0.0253
  178SOL     OW 2401   6.660   1.989   0.863 -0.1476 -0.0863 -0.4910
  178SOL    HW1 2402   6.714   2.043   0.804  0.1368  0.6299  0.3879
  178SOL    HW2 2403   6.608   1.934   0.805  1.2771 -0.5480 -1.3812
  179SOL     OW 2404   7.739   1.108   2.103  0.0545 -0.0538 -0.5240
  179SOL    HW1 2405   7.829   1.136   2.086 -0.6094  1.3904 -1.9068
  179SOL    HW2 2406   7.709   1.166   2.174 -0.0272 -0.0173 -0.5884
  180SOL     OW 2407   3.945   8.454   5.856  0.7697  0.6298  0.0236
  180SOL    HW1 2408   3.936   8.363   5.827  1.9598  0.9488 -1.4699
  180SOL    HW2 2409   3.885   8.503   5.799 -0.8559  0.6923  1.6692
  181SOL     OW 2410   4.472   2.536   4.997  0.6445 -0.0912  0.2455
  181SOL    HW1 2411   4.558   2.510   4.964  0.1127 -0.3087 -1.0112
  181SOL    HW2 2412   4.455   2.620   4.954 -0.2494 -0.5920 -0.4178
  182SOL     OW 2413   5.124   0.795   4.508 -0.2186  0.0815  0.5744
  182SOL    HW1 2414   5.102   0.710   4.472 -3.6787  0.4991  1.3320
  182SOL    HW2 2415   5.196   0.827   4.453 -2.9529 -0.6700 -3.9360
  183SOL     OW 2416   0.187   1.063   4.310  0.0863  0.5122  0.3274
  183SOL    HW1 2417   0.244   0.986   4.299 -0.7491 -0.2017  0.8100
  183SOL    HW2 2418   0.131   1.040   4.384  0.7416  2.1766  1.3976
  184SOL     OW 2419   8.391   0.353   8.892  0.3341 -0.5393  0.1290
  184SOL    HW1 2420   8.388   0.302   8.811 -1.1275 -0.2000 -0.0659
  184SOL    HW2 2421   8.345   0.299   8.957  1.0573 -0.5897  0.6124
  185SOL     OW 2422   7.154   0.735   2.338 -0.4803  0.1372 -0.3302
  185SOL    HW1 2423   7.222   0.745   2.405 -0.9030 -0.0550  0.1290
  185SOL    HW2 2424   7.106   0.657   2.363  0.0166 -0.5516 -1.4517
  186SOL     OW 2425   2.531   1.583   7.207  0.0306 -0.6861 -0.0030
  186SOL    HW1 2426   2.624   1.561   7.211  0.1758 -0.2275 -0.6643
  186SOL    HW2 2427   2.497   1.561   7.294  1.0307  0.4044  0.6955
  187SOL     OW 2428   8.819   2.146   3.804  0.5989  0.1813 -0.2127
  187SOL    HW1 2429   8.856   2.147   3.716 -1.7474  0.0391 -1.2743
  187SOL    HW2 2430   8.750   2.079   3.801 -0.5413  1.2117  1.2483
  188SOL     OW 2431   3.460   2.616   8.165 -0.3021 -0.7904 -0.2465
  188SOL    HW1 2432   3.436   2.696   8.119 -0.6888 -0.7248  0.0577
  188SOL    HW2 2433   3.547   2.595   8.133 -0.4953 -0.6509 -0.8685
  189SOL     OW 2434   4.392   3.740   8.466  0.0696 -0.1574 -0.0026
  189SOL    HW1 2435   4.463   3.721   8.527 -1.6829 -0.7601  1.9772
  189SOL    HW2 2436   4.395   3.669   8.402  2.1746  0.6873 -0.9379
  190SOL     OW 2437   7.990   6.409   8.994  0.0801  0.0871  0.8071
  190SOL    HW1 2438   7.896   6.415   8.980  0.3752  0.4498 -1.4331
  190SOL    HW2 2439   8.014   6.491   9.037 -0.6450 -0.1214  1.6220
  191SOL     OW 2440   6.903   4.946   6.378 -0.4416 -0.1356  0.2419
  191SOL    HW1 2441   6.821   4.913   6.341  1.2661 -2.5560 -1.6662
  191SOL    HW2 2442   6.928   5.018   6.321 -1.0297  0.3788  0.6201
  192SOL     OW 2443   1.916   0.000   6.590  0.1487 -0.0268  0.0080
  192SOL    HW1 2444   1.835   0.045   6.617 -0.3355 -0.0827 -1.2573
  192SOL    HW2 2445   1.887  -0.062   6.523  1.1906 -0.3689 -0.1390
  193SOL     OW 2446   4.528   6.288   1.848 -0.3956 -0.2341 -0.1797
  193SOL    HW1 2447   4.469   6.231   1.799 -0.4519 -0.7365  0.4580
  193SOL    HW2 2448   4.569   6.230   1.912  0.4759  0.1921 -0.3377
  194SOL     OW 2449   5.473   1.581   1.394 -0.1575 -0.2406 -0.0505
  194SOL    HW1 2450   5.507   1.556   1.480  0.4778 -1.1099 -0.5471
  194SOL    HW2 2451   5.546   1.625   1.351 -1.1368  2.2683  0.6704
  195SOL     OW 2452   8.010   6.746   0.178  0.0641 -0.0974 -0.2580
  195SOL    HW1 2453   8.059   6.683   0.229 -1.0683 -1.2153 -0.5011
  195SOL    HW2 2454   8.043   6.735   0.088  0.6289  0.4445 -0.1256
  196SOL     OW 2455   7.471   2.056   5.398  0.0386 -0.0356 -0.2594
  196SOL    HW1 2456   7.533   2.037   5.469  0.2950  0.8436 -0.2431
  196SOL    HW2 2457   7.525   2.093   5.328 -0.3478 -0.0555 -0.5703
  197SOL     OW 2458   3.010   4.184   4.392 -0.0348 -0.1391 -0.3207
  197SOL    HW1 2459   2.989   4.121   4.323  1.0630 -1.8102  0.8148
  197SOL    HW2 2460   3.084   4.234   4.358 -0.1877 -0.2101 -0.7641
  198SOL     OW 2461   3.106   8.991   5.075 -0.0776 -0.3248  0.1886
  198SOL    HW1 2462   3.056   9.008   5.154  0.0997  1.8947 -0.1159
  198SOL    HW2 2463   3.194   8.968   5.107 -0.4222 -1.0573  0.6394
  199SOL     OW 2464   0.379   4.543   6.387  0.0499  0.1038  0.3437
  199SOL    HW1 2465   0.416   4.563   6.301 -0.6794  2.3605  0.4989
  199SOL    HW2 2466   0.319   4.470   6.369  2.0568 -1.4629 -0.4602
  200SOL     OW 2467   8.553   4.266   0.483 -0.4291 -0.0083 -0.1589
  200SOL    HW1 2468   8.461   4.249   0.463 -1.3417  1.8911  1.9456
  200SOL    HW2 2469   8.578   4.336   0.423 -1.0468  0.8890  0.5847
  201SOL     OW 2470   4.006   8.077   4.741  0.1184 -0.3270  0.6527
  201SOL    HW1 2471   3.969   8.017   4.806  1.5330  1.1268  2.9354
  201SOL    HW2 2472   4.089   8.036   4.716  0.1233 -0.3096  0.6408
  202SOL     OW 2473   0.550   3.892   4.888  0.6529 -0.3760 -0.2918
  202SOL    HW1 2474   0.561   3.956   4.958  0.9016 -1.3585  0.6027
  202SOL    HW2 2475   0.519   3.813   4.933 -2.9410  0.0217 -1.7411
  203SOL     OW 2476   1.067   2.047   8.818  0.4021 -0.0976  0.1929
  203SOL    HW1 2477   1.029   2.035   8.731  1.6907  1.4972 -0.6479
  203SOL    HW2 2478   1.128   2.121   8.808 -0.2430  0.8944  2.7056
  204SOL     OW 2479   0.237   4.766   3.993 -0.0708  0.1440  0.2773
  204SOL    HW1 2480   0.190   4.827   3.935  0.1534  0.7088  0.6932
  204SOL    HW2 2481   0.227   4.802   4.080  1.0047  0.1810  0.3984
  205SOL     OW 2482   6.751   2.852   4.607  0.0788 -0.1175 -0.5122
  205SOL    HW1 2483   6.793   2.888   4.685 -0.8209 -0.0481 -0.0451
  205SOL    HW2 2484   6.823   2.818   4.554  0.8760  1.4217 -0.4801
  206SOL     OW 2485   2.088   5.335   8.340  0.0032 -0.5560  0.2011
  206SOL    HW1 2486   2.020   5.268   8.348 -0.1250 -0.5094 -0.4327
  206SOL    HW2 2487   2.164   5.287   8.306 -0.6305 -0.0850 -2.0410
  207SOL     OW 2488   4.668   0.508   7.581  0.3767 -0.1029 -0.0620
  207SOL    HW1 2489   4.642   0.418   7.560 -0.7975  0.5320 -1.5915
  207SOL    HW2 2490   4.690   0.547   7.496  0.4189  1.1772  0.5056
  208SOL     OW 2491   3.287   0.210   8.471 -0.1373  0.0182 -0.6897
  208SOL    HW1 2492   3.329   0.258   8.399  3.1605 -1.6728 -0.0841
  208SOL    HW2 2493   3.357   0.195   8.534 -2.5301 -0.0058  2.2071
  209SOL     OW 2494   1.699   2.141   5.144  0.2745  0.1982 -0.4946
  209SOL    HW1 2495   1.681   2.096   5.226 -1.4462  1.3326 -0.2058
  209SOL    HW2 2496   1.763   2.209   5.168  1.4319 -0.8188 -0.5682
  210SOL     OW 2497   6.140   1.985   4.553  0.0472  0.0193  0.0574
  210SOL    HW1 2498   6.173   1.969   4.641 -1.6994 -1.9330  0.4452
  210SOL    HW2 2499   6.178   1.914   4.500 -0.8051 -0.2468 -0.2129
  211SOL     OW 2500   7.440   1.027   7.020 -0.3539 -0.4073 -0.1270
  211SOL    HW1 2501   7.411   1.104   7.070  0.1058 -1.3113  1.6310
  211SOL    HW2 2502   7.499   0.981   7.080  0.5363 -1.3723 -1.6788
  212SOL     OW 2503   1.869   5.231   6.991  0.4731 -0.3640 -0.8548
  212SOL    HW1 2504   1.948   5.274   6.959  0.9498 -1.8503 -1.8402
  212SOL    HW2 2505   1.798   5.272   6.942  0.6684  0.6983 -0.2646
  213SOL     OW 2506   3.813   0.714   8.757  0.2932  0.1418  0.0525
  213SOL    HW1 2507   3.762   0.792   8.736 -0.7776 -0.3729  0.6477
  213SOL    HW2 2508   3.859   0.692   8.676 -1.6762 -0.2748 -1.0104
  214SOL     OW 2509   4.459   6.538   1.549 -0.0136  0.1209  0.3038
  214SOL    HW1 2510   4.501   6.452   1.546  0.1193  0.0375  2.9267
  214SOL    HW2 2511   4.531   6.600   1.544  0.1108  0.0296  0.9035
  215SOL     OW 2512   1.977   5.119   7.986 -0.3000  0.4660 -0.0186
  215SOL    HW1 2513   2.004   5.208   7.966 -0.8876  0.6521 -0.0068
  215SOL    HW2 2514   2.012   5.066   7.914 -0.9518  0.8804 -0.6554
  216SOL     OW 2515   1.917   3.365   3.051  0.2163  0.5299  0.1511
  216SOL    HW1 2516   1.826   3.341   3.036 -0.4550  2.3309  0.9399
  216SOL    HW2 2517   1.914   3.460   3.065  2.2290  0.6426  0.1089
  217SOL     OW 2518   6.866   3.993   3.432 -0.6962 -0.2714  0.5527
  217SOL    HW1 2519   6.947   4.041   3.414 -0.9211  0.1629  0.6822
  217SOL    HW2 2520   6.850   3.942   3.352 -0.8923  0.4981  0.0924
  218SOL     OW 2521   6.731   0.896   2.250 -0.4428  0.6504 -0.4290
  218SOL    HW1 2522   6.815   0.925   2.286 -0.2884  0.4668 -0.6404
  218SOL    HW2 2523   6.668   0.961   2.282  0.2433  2.6665 -2.8575
  219SOL     OW 2524   4.254   3.965   6.729 -0.6855 -0.4018  0.2904
  219SOL    HW1 2525   4.226   3.909   6.801 -0.1601  0.6384  1.3182
  219SOL    HW2 2526   4.284   3.903   6.662 -1.8128 -1.4001  0.6616
  220SOL     OW 2527   0.564   6.828   6.407 -0.0556  0.2496  0.0329
  220SOL    HW1 2528   0.638   6.774   6.380  0.5885  0.2937  1.5711
  220SOL    HW2 2529   0.585   6.916   6.376 -1.0252 -0.2790 -2.3280
  221SOL     OW 2530   2.474   3.035   2.266 -0.3843  0.0049 -0.2279
  221SOL    HW1 2531   2.492   2.948   2.231 -2.7512 -0.8739  0.5533
  221SOL    HW2 2532   2.418   3.077   2.200  2.0445  1.6560 -1.3910
  222SOL     OW 2533   6.953   2.856   3.691 -0.0620  0.2157 -0.0128
  222SOL    HW1 2534   6.913   2.897   3.615 -0.4667 -1.1783 -0.5905
  222SOL    HW2 2535   6.879   2.822   3.741  0.1467  1.7431  1.4170
  223SOL     OW 2536   4.335   3.934   7.205 -0.5552  0.4070 -0.0394
  223SOL    HW1 2537   4.290   3.867   7.154 -1.0945  0.1220  0.7855
  223SOL    HW2 2538   4.423   3.898   7.220 -1.0598 -0.4429  0.9887
  224SOL     OW 2539   2.129   1.946   6.846 -0.4047  0.9720  0.2254
  224SOL    HW1 2540   2.051   1.949   6.791 -0.6875 -0.3353  0.5233
  224SOL    HW2 2541   2.161   2.036   6.847 -0.7247  1.1420 -1.5900
  225SOL     OW 2542   7.121   6.581   6.488  0.1045  0.4710 -0.3551
  225SOL    HW1 2543   7.212   6.604   6.470  0.2931 -0.3985 -0.5288
  225SOL    HW2 2544   7.076   6.666   6.493  0.4984  0.8642 -2.4543
  226SOL     OW 2545   7.416   2.843   2.606 -0.8453 -0.1318  0.3373
  226SOL    HW1 2546   7.413   2.859   2.512 -0.3442 -1.4235  0.0842
  226SOL    HW2 2547   7.475   2.911   2.640  1.4396 -1.4416 -0.7339
  227SOL     OW 2548   4.840   2.875   3.029 -0.1009 -0.1201 -1.0466
  227SOL    HW1 2549   4.861   2.835   3.113  0.7711  0.5256 -0.9439
  227SOL    HW2 2550   4.836   2.801   2.968 -1.2308 -0.6540 -0.3768
  228SOL     OW 2551   1.427   0.363   8.705  0.2623 -0.3718 -0.4618
  228SOL    HW1 2552   1.473   0.400   8.781  0.0925 -2.5453  0.8018
  228SOL    HW2 2553   1.443   0.425   8.635  1.8380  0.9166  0.9381
  229SOL     OW 2554   8.841   1.306   8.370 -0.0673  0.2937 -0.2030
  229SOL    HW1 2555   8.903   1.244   8.409 -1.0453 -0.8451 -0.4002
  229SOL    HW2 2556   8.894   1.359   8.311  1.0783  0.7209  1.1692
  230SOL     OW 2557   1.095   3.666   5.737 -0.1088  0.3048 -0.0976
  230SOL    HW1 2558   1.189   3.671   5.754 -0.3038 -0.4051  1.2585
  230SOL    HW2 2559   1.085   3.705   5.650  1.2606  1.6667  0.3126
  231SOL     OW 2560   4.920   0.981   7.361 -0.4641 -0.1059 -0.1753
  231SOL    HW1 2561   4.851   0.915   7.371 -0.6308  0.1619  0.5311
  231SOL    HW2 2562   4.974   0.948   7.289 -0.0533 -1.4667  0.7107
  232SOL     OW 2563   0.358   1.356   7.930 -0.1931  0.2466  0.2751
  232SOL    HW1 2564   0.373   1.445   7.898 -1.6430  0.2901 -0.3622
  232SOL    HW2 2565   0.385   1.300   7.857 -0.0921  0.2013  0.3476
  233SOL     OW 2566   6.532   0.238   6.730  0.5160 -0.0880  0.2316
  233SOL    HW1 2567   6.530   0.232   6.825 -0.5584  0.0568  0.2265
  233SOL    HW2 2568   6.491   0.157   6.699 -1.1272  0.8121 -0.0544
  234SOL     OW 2569   5.504   5.664   4.948 -0.3348 -0.2548  0.1307
  234SOL    HW1 2570   5.540   5.728   4.886  0.0543 -0.7370 -0.1446
  234SOL    HW2 2571   5.482   5.717   5.025  0.0689  0.2038 -0.0553
  235SOL     OW 2572   7.994   2.846   5.665  0.0894  0.2706 -0.0018
  235SOL    HW1 2573   8.003   2.923   5.608 -1.2547 -1.2947 -2.5016
  235SOL    HW2 2574   7.913   2.861   5.713  0.6773  1.1217  0.7539
  236SOL     OW 2575   6.817   1.083   5.563 -0.0877 -0.0976 -0.2223
  236SOL    HW1 2576   6.865   1.105   5.644 -0.1815 -1.7062  0.3122
  236SOL    HW2 2577   6.872   1.118   5.493 -0.1469  1.5895  0.5307
  237SOL     OW 2578   5.372   3.231   6.919  0.2069  0.1108  0.4648
  237SOL    HW1 2579   5.411   3.237   6.831  1.2816  0.8288  0.9660
  237SOL    HW2 2580   5.439   3.187   6.971 -0.5539 -0.5980  0.8763
  238SOL     OW 2581   4.271   8.739   3.780  0.0536 -0.3854 -0.6939
  238SOL    HW1 2582   4.342   8.804   3.785 -0.8298  0.6259 -1.0113
  238SOL    HW2 2583   4.314   8.659   3.749  0.6577  0.8751 -3.4108
  239SOL     OW 2584   6.831   8.845   1.051  0.1213  0.0847 -0.3932
  239SOL    HW1 2585   6.836   8.872   0.960 -0.2188  1.5140 -0.0051
  239SOL    HW2 2586   6.886   8.767   1.056  0.7099  0.4047 -1.6655
  240SOL     OW 2587   6.607   6.351   4.694 -0.3852  0.2478  0.2876
  240SOL    HW1 2588   6.604   6.298   4.614  0.7717 -0.8870  0.9555
  240SOL    HW2 2589   6.520   6.389   4.701 -1.0107 -0.9378 -0.6557
  241SOL     OW 2590   0.381   8.850   4.975 -0.2020  0.0185  0.4703
  241SOL    HW1 2591   0.314   8.784   4.956 -0.5405  0.3961  0.3586
  241SOL    HW2 2592   0.449   8.801   5.024  0.9921 -1.1389 -2.1447
  242SOL     OW 2593   6.028   6.192   2.152  0.4473 -0.2581  0.5280
  242SOL    HW1 2594   6.067   6.178   2.065 -1.1044  1.3739 -0.5068
  242SOL    HW2 2595   5.933   6.187   2.137  0.1543 -0.1142  2.1638
  243SOL     OW 2596   7.817   3.376   6.819  0.0226 -0.1606  0.0805
  243SOL    HW1 2597   7.828   3.319   6.895 -1.4533  0.7319  1.0093
  243SOL    HW2 2598   7.804   3.463   6.856  0.8120  0.5611 -1.2662
  244SOL     OW 2599   4.473   1.141   1.483 -0.2123  0.2957 -0.0017
  244SOL    HW1 2600   4.411   1.093   1.429  0.4119 -0.7867  0.2314
  244SOL    HW2 2601   4.553   1.146   1.430  0.2271 -0.2982  0.5896
  245SOL     OW 2602   5.002   6.991   1.552  0.4335  0.1736 -0.1906
  245SOL    HW1 2603   5.061   6.924   1.517  1.3970  0.8188  0.1503
  245SOL    HW2 2604   5.059   7.067   1.566 -0.4416  0.7327  0.3728
  246SOL     OW 2605   3.084   6.658   6.917 -0.5488  0.1248  0.1370
  246SOL    HW1 2606   2.993   6.628   6.922  0.1829 -2.1940  0.2885
  246SOL    HW2 2607   3.130   6.607   6.983  1.3216 -0.4479 -1.5184
  247SOL     OW 2608   1.314   6.176   0.504  0.5060 -0.1144 -0.2055
  247SOL    HW1 2609   1.277   6.263   0.521  0.4547 -0.2460  0.3520
  247SOL    HW2 2610   1.312   6.168   0.408 -3.1610 -1.0722 -0.2041
  248SOL     OW 2611   2.573   6.773   5.383  0.7985 -0.2638 -0.3282
  248SOL    HW1 2612   2.548   6.702   5.442 -1.0809  1.9511  1.7511
  248SOL    HW2 2613   2.526   6.754   5.302 -1.4531 -0.3635  0.9118
  249SOL     OW 2614   5.455   0.282   6.934  0.4116 -0.4149 -0.1052
  249SOL    HW1 2615   5.435   0.290   7.027  0.0905  1.5835 -0.3122
  249SOL    HW2 2616   5.546   0.252   6.931  0.1860 -1.2727  0.8182
  250SOL     OW 2617   5.343   1.978   1.060 -0.2661 -0.3227 -0.3352
  250SOL    HW1 2618   5.265   1.943   1.103  0.0480  0.5034  0.9870
  250SOL    HW2 2619   5.311   2.011   0.976 -1.3277 -0.1260  0.1259
  251SOL     OW 2620   6.968   6.777   1.325  0.2270  0.1358  0.1691
  251SOL    HW1 2621   6.880   6.811   1.342  0.1098 -0.6410  1.2244
  251SOL    HW2 2622   6.984   6.796   1.233 -1.5018 -0.6923 -0.3384
  252SOL     OW 2623   8.031   4.150   5.425 -0.7493 -0.7001  0.0674
  252SOL    HW1 2624   7.980   4.197   5.490  0.3980 -0.1832  0.6130
  252SOL    HW2 2625   7.966   4.113   5.366 -1.7480 -0.0345  0.7259
  253SOL     OW 2626   7.435   3.549   2.883 -0.2645 -0.2467 -0.0455
  253SOL    HW1 2627   7.441   3.568   2.790  0.5228 -0.2853 -0.0067
  253SOL    HW2 2628   7.472   3.461   2.892  0.7520  0.2260  0.4650
  254SOL     OW 2629   3.662   6.084   2.703  0.1427  0.1660 -0.1026
  254SOL    HW1 2630   3.609   6.060   2.627  0.9474  1.0007 -0.9597
  254SOL    HW2 2631   3.673   6.002   2.751  1.0603 -0.7819 -1.8192
  255SOL     OW 2632   5.589   2.348   0.049 -0.7366 -0.3170  0.1486
  255SOL    HW1 2633   5.675   2.319   0.018  0.2243  0.8492  1.5903
  255SOL    HW2 2634   5.532   2.338  -0.027  1.4989  2.4803 -2.0987
  256SOL     OW 2635   0.888   2.093   2.382 -0.0584 -0.0988 -0.4524
  256SOL    HW1 2636   0.935   2.092   2.298  1.2944  1.0324  0.2319
  256SOL    HW2 2637   0.950   2.134   2.443 -0.0474 -2.9390  1.6811
  257SOL     OW 2638   7.482   5.991   8.263 -0.2014 -0.0632  0.0601
  257SOL    HW1 2639   7.502   6.060   8.200  2.0434 -1.5347 -0.9613
  257SOL    HW2 2640   7.391   5.966   8.243 -0.4508  1.3478 -0.7136
  258SOL     OW 2641   1.904   4.738   1.468 -0.2819 -0.0170 -0.0918
  258SOL    HW1 2642   1.986   4.691   1.482 -1.1736 -2.0860 -1.3830
  258SOL    HW2 2643   1.888   4.731   1.374 -1.9336  0.3698  0.1304
  259SOL     OW 2644   1.247   2.557   0.345  0.4056  0.8721  0.0675
  259SOL    HW1 2645   1.259   2.640   0.298 -2.1056  0.7369 -0.9704
  259SOL    HW2 2646   1.174   2.574   0.405  0.0184 -0.5142  0.0141
  260SOL     OW 2647   0.540   5.636   0.552  0.0534  0.0282  0.1549
  260SOL    HW1 2648   0.558   5.718   0.600 -0.6630 -0.9869  2.3124
  260SOL    HW2 2649   0.617   5.581   0.570 -1.1213 -1.1281  2.0376
  261SOL     OW 2650   2.504   4.920   1.952  0.9585 -0.0282  0.2020
  261SOL    HW1 2651   2.412   4.919   1.923  1.0538  0.5300 -0.1321
  261SOL    HW2 2652   2.505   4.980   2.026  0.9083 -0.6620  0.7238
  262SOL     OW 2653   1.475   2.330   7.821  0.4584 -0.5487 -0.3157
  262SOL    HW1 2654   1.554   2.372   7.855  0.3016  1.9964 -2.7375
  262SOL    HW2 2655   1.411   2.401   7.814 -0.5904 -1.6079 -2.4973
  263SOL     OW 2656   7.535   1.044   8.165 -0.3537 -0.4278  0.4785
  263SOL    HW1 2657   7.509   0.958   8.197  0.6195 -0.7762  0.3826
  263SOL    HW2 2658   7.626   1.054   8.195 -0.0917  0.0907 -0.4356
  264SOL     OW 2659   8.207   6.284   2.021  0.0224  0.4364 -0.3952
  264SOL    HW1 2660   8.197   6.377   1.999 -0.7104  0.7851  1.2309
  264SOL    HW2 2661   8.122   6.260   2.059  0.5710 -0.5927  0.2254
  265SOL     OW 2662   5.295   3.604   4.594  0.2704  0.0363  0.0138
  265SOL    HW1 2663   5.349   3.557   4.531 -1.6252  0.7533 -2.2765
  265SOL    HW2 2664   5.354   3.668   4.634  1.9009 -1.5550  0.2456
  266SOL     OW 2665   3.201   0.843   0.895  0.1721  0.5498 -0.1199
  266SOL    HW1 2666   3.138   0.793   0.948  0.7362  1.1629  1.1983
  266SOL    HW2 2667   3.148   0.882   0.825 -0.6789 -0.0169  0.1884
  267SOL     OW 2668   6.304   5.869   1.836 -0.2514 -0.0456 -0.0002
  267SOL    HW1 2669   6.347   5.889   1.753  0.7644  0.7981  0.7037
  267SOL    HW2 2670   6.241   5.800   1.814 -0.5365  0.6760 -1.6083
  268SOL     OW 2671   6.315   3.276   3.459 -0.0131 -0.2629  0.1418
  268SOL    HW1 2672   6.386   3.296   3.521  0.4347 -0.4871 -0.2946
  268SOL    HW2 2673   6.245   3.241   3.514  0.8789 -1.7440  0.3928
  269SOL     OW 2674   8.046   1.378   4.656  0.1268  0.2657 -0.2591
  269SOL    HW1 2675   8.101   1.322   4.602 -0.7076 -2.2785  1.3409
  269SOL    HW2 2676   8.105   1.414   4.722  0.6070  1.0652 -1.1008
  270SOL     OW 2677   7.033   0.935   2.653 -0.0371 -0.4742  0.1567
  270SOL    HW1 2678   6.978   0.872   2.605 -0.2273  0.5315 -1.0051
  270SOL    HW2 2679   7.121   0.922   2.617 -0.5359  1.7884 -2.2455
  271SOL     OW 2680   4.290   8.853   4.323 -0.1720 -0.2514 -1.0410
  271SOL    HW1 2681   4.255   8.773   4.284 -0.6764  0.5089 -2.2100
  271SOL    HW2 2682   4.309   8.829   4.414 -1.1825 -1.4335 -1.1107
  272SOL     OW 2683   8.328   0.137   7.078 -0.1571  0.0435 -0.2107
  272SOL    HW1 2684   8.259   0.189   7.119 -0.3758  0.1074 -0.6612
  272SOL    HW2 2685   8.303   0.046   7.094 -0.5648  0.0609 -0.7341
  273SOL     OW 2686   4.375   5.166   2.846 -0.4062  0.3420 -0.1265
  273SOL    HW1 2687   4.345   5.082   2.881 -0.2607  0.7910  1.1347
  273SOL    HW2 2688   4.446   5.192   2.905 -2.7883  3.0648  1.7930
  274SOL     OW 2689   7.359   2.794   5.074 -0.1722 -0.6529 -0.4390
  274SOL    HW1 2690   7.307   2.728   5.029 -0.9896 -1.5834  1.7403
  274SOL    HW2 2691   7.430   2.745   5.115 -0.5196 -0.1382  0.8190
  275SOL     OW 2692   8.112   3.065   1.889  0.7640  0.0136 -0.2254
  275SOL    HW1 2693   8.191   3.096   1.933 -0.4526  1.2285  1.2246
  275SOL    HW2 2694   8.067   3.012   1.955 -0.0284  0.0163 -0.7463
  276SOL     OW 2695   0.982   1.388   3.766 -0.3106 -0.0164  0.0689
  276SOL    HW1 2696   0.889   1.368   3.764 -0.6420  1.4325 -0.5664
  276SOL    HW2 2697   1.010   1.366   3.855 -0.6237 -2.9587 -0.4835
  277SOL     OW 2698   4.218   5.100   6.222 -0.5077  0.0222 -0.1808
  277SOL    HW1 2699   4.168   5.101   6.304 -0.1834  2.1599  0.0459
  277SOL    HW2 2700   4.302   5.060   6.246 -1.3842 -1.8598 -0.1313
  278SOL     OW 2701   7.600   3.600   4.503  0.2890 -0.2940 -0.2111
  278SOL    HW1 2702   7.543   3.624   4.431 -0.5721 -0.0582  0.5231
  278SOL    HW2 2703   7.598   3.675   4.562  1.3169 -0.3084 -0.1271
  279SOL     OW 2704   6.370   3.845   4.686  0.1074 -0.0614  0.4900
  279SOL    HW1 2705   6.411   3.911   4.630  1.3474  0.1063  1.5504
  279SOL    HW2 2706   6.411   3.763   4.660  1.2162  0.1194  1.6172
  280SOL     OW 2707   1.837   8.329   8.682  0.5515 -0.1555 -0.5781
  280SOL    HW1 2708   1.773   8.259   8.698 -1.1316  1.3557 -0.4750
  280SOL    HW2 2709   1.890   8.332   8.761 -0.9882  0.3370  0.4703
  281SOL     OW 2710   2.265   1.592   3.189  0.3506 -0.1756  0.0888
  281SOL    HW1 2711   2.242   1.549   3.106  1.7558 -0.8785  0.0450
  281SOL    HW2 2712   2.249   1.524   3.255  1.6659 -0.4901  0.1143
  282SOL     OW 2713   7.584   8.450   0.511 -0.4284 -0.0865  0.0190
  282SOL    HW1 2714   7.589   8.452   0.416 -0.4207  0.9947  0.0231
  282SOL    HW2 2715   7.658   8.502   0.540 -1.6872  1.5119  0.5293
  283SOL     OW 2716   4.397   5.244   0.106 -0.1776  0.2379 -0.3536
  283SOL    HW1 2717   4.391   5.238   0.201 -0.7341  0.6698 -0.3576
  283SOL    HW2 2718   4.350   5.324   0.084  0.6454  0.5781 -0.9277
  284SOL     OW 2719   7.048   5.790   3.481  0.2042  0.2748  0.1428
  284SOL    HW1 2720   7.011   5.821   3.398  0.0180 -0.0840  0.0908
  284SOL    HW2 2721   7.073   5.870   3.527 -1.3552  0.6034  0.5066
  285SOL     OW 2722   4.721   5.761   5.713  0.0735 -0.0518 -0.1148
  285SOL    HW1 2723   4.645   5.702   5.712  0.1696 -0.1682 -1.0039
  285SOL    HW2 2724   4.746   5.765   5.805 -0.9397 -0.1041  0.1766
  286SOL     OW 2725   2.354   2.485   5.702 -0.4091 -0.6831 -0.1513
  286SOL    HW1 2726   2.401   2.403   5.719 -0.1113 -0.6716 -0.8907
  286SOL    HW2 2727   2.357   2.532   5.785  0.8804 -0.6902 -0.1747
  287SOL     OW 2728   3.835   3.184   1.435 -0.2010 -0.3131  0.2399
  287SOL    HW1 2729   3.765   3.171   1.371  1.2980  1.2867 -1.8266
  287SOL    HW2 2730   3.829   3.276   1.460 -0.0726 -0.6533  1.5873
  288SOL     OW 2731   2.117   7.447   6.911  0.2105  0.3552  0.6932
  288SOL    HW1 2732   2.182   7.417   6.848 -0.1712  0.5310  0.2016
  288SOL    HW2 2733   2.050   7.379   6.910  0.0632  0.4999  0.6891
  289SOL     OW 2734   4.480   1.385   7.194  0.8588 -0.0339 -0.3390
  289SOL    HW1 2735   4.462   1.459   7.252  1.7025 -0.9462  1.1498
  289SOL    HW2 2736   4.395   1.341   7.186  0.4460  0.8310 -0.8940
  290SOL     OW 2737   4.803   4.428   1.483 -0.2863 -0.0091  0.2897
  290SOL    HW1 2738   4.728   4.373   1.459 -0.6680  0.3052  0.7379
  290SOL    HW2 2739   4.801   4.500   1.420 -0.3483 -0.0091  0.2923
  291SOL     OW 2740   0.026   6.331   4.614  0.3040  0.2570  0.0180
  291SOL    HW1 2741  -0.032   6.307   4.542  2.0382  0.7490 -1.6268
  291SOL    HW2 2742   0.106   6.281   4.598 -0.0220 -1.4847  2.9732
  292SOL     OW 2743   5.305   3.329   0.328  0.0782  0.3928 -0.0008
  292SOL    HW1 2744   5.257   3.412   0.321  1.9413  1.5264 -0.0428
  292SOL    HW2 2745   5.370   3.333   0.258 -0.0568 -1.3283 -0.2763
  293SOL     OW 2746   2.704   2.121   1.956 -0.5975 -0.2203  0.0331
  293SOL    HW1 2747   2.683   2.032   1.984  1.2297 -0.0784  2.2139
  293SOL    HW2 2748   2.793   2.115   1.922 -0.2961  0.8183  0.5953
  294SOL     OW 2749   6.430   0.201   5.642  0.5380  0.5244 -0.2033
  294SOL    HW1 2750   6.477   0.119   5.628  2.0757  1.3706 -0.2245
  294SOL    HW2 2751   6.343   0.186   5.605 -0.2323 -2.0335  2.2542
  295SOL     OW 2752   8.407   8.684   8.677  0.2599  0.1898 -0.1457
  295SOL    HW1 2753   8.418   8.674   8.772  0.2128 -0.6158 -0.2163
  295SOL    HW2 2754   8.371   8.600   8.649  0.2325  0.4441 -0.8724
  296SOL     OW 2755   0.945   6.127   3.466 -0.5068 -0.4626  0.1664
  296SOL    HW1 2756   0.872   6.179   3.502 -1.3405 -1.8819  0.6209
  296SOL    HW2 2757   0.915   6.102   3.378  0.6367  1.2385 -0.7505
  297SOL     OW 2758   7.911   0.562   4.062  0.5170 -0.1250  0.0556
  297SOL    HW1 2759   7.854   0.492   4.031 -0.2569  0.3496  0.3793
  297SOL    HW2 2760   7.852   0.637   4.075  0.6199 -0.4638  3.3930
  298SOL     OW 2761   4.508   1.419   1.359 -0.3237  0.2649 -0.2429
  298SOL    HW1 2762   4.534   1.447   1.272 -0.3524  3.0818  0.5450
  298SOL    HW2 2763   4.569   1.348   1.381 -0.5487 -0.7498 -2.6149
  299SOL     OW 2764   1.763   5.485   5.637 -0.6179 -0.0835 -0.4523
  299SOL    HW1 2765   1.732   5.547   5.703  0.6721  0.6169 -0.4711
  299SOL    HW2 2766   1.691   5.476   5.576 -1.9184 -0.8612  1.1142
  300SOL     OW 2767   5.193   8.450   0.025  0.1354 -0.1446  0.6285
  300SOL    HW1 2768   5.154   8.505   0.094  2.3067  0.1608  1.7294
  300SOL    HW2 2769   5.153   8.364   0.037 -2.7607  0.9225 -0.6194
  301SOL     OW 2770   8.793   0.346   0.148 -0.6452  0.0797  0.1108
  301SOL    HW1 2771   8.748   0.369   0.067 -1.7712  3.1491  1.4674
  301SOL    HW2 2772   8.883   0.374   0.134 -0.8840  0.7961 -0.0324
  302SOL     OW 2773   7.628   7.820   1.528 -0.1730  0.0720 -0.3810
  302SOL    HW1 2774   7.718   7.796   1.551  0.6053  2.1102 -1.0866
  302SOL    HW2 2775   7.627   7.915   1.535 -2.5096  0.0388  0.3466
  303SOL     OW 2776   7.170   2.477   4.279  0.3606 -0.7599 -0.4570
  303SOL    HW1 2777   7.109   2.547   4.256 -0.5161 -0.9879  0.9946
  303SOL    HW2 2778   7.135   2.399   4.235 -0.7190 -0.9838  0.7152
  304SOL     OW 2779   3.309   8.299   4.387  0.1157  0.1977 -0.5452
  304SOL    HW1 2780   3.238   8.359   4.411 -1.0557 -1.9171  1.7342
  304SOL    HW2 2781   3.275   8.252   4.311 -0.4635  0.0113 -0.1839
  305SOL     OW 2782   6.141   4.285   7.405 -0.2657  1.0790 -0.1557
  305SOL    HW1 2783   6.084   4.269   7.330 -1.3967 -0.3577  0.9631
  305SOL    HW2 2784   6.100   4.237   7.478  0.4040  2.9585  1.5716
  306SOL     OW 2785   6.440   2.975   8.214 -0.1454 -0.3417 -0.1740
  306SOL    HW1 2786   6.406   3.001   8.300 -3.5404 -1.0084 -1.1706
  306SOL    HW2 2787   6.479   2.889   8.229  0.9619  0.3201  0.9874
  307SOL     OW 2788   6.600   1.461   8.305  0.1306  0.5531  0.2640
  307SOL    HW1 2789   6.617   1.522   8.378 -2.4519  2.3026 -0.4483
  307SOL    HW2 2790   6.676   1.471   8.248  0.4134  2.1123  0.8518
  308SOL     OW 2791   0.538   5.532   6.339  0.5310 -0.1297 -0.9379
  308SOL    HW1 2792   0.474   5.528   6.268 -1.0541 -1.0222  0.4867
  308SOL    HW2 2793   0.506   5.471   6.405 -0.0367  3.1676  2.1599
  309SOL     OW 2794   3.802   8.289   2.671  0.2434  0.4808 -0.1878
  309SOL    HW1 2795   3.814   8.356   2.603  0.3110  1.6361  0.9342
  309SOL    HW2 2796   3.884   8.240   2.670  0.4632  0.8419 -0.5627
  310SOL     OW 2797   2.180   0.762   1.601 -0.2440 -0.1532 -0.0188
  310SOL    HW1 2798   2.244   0.805   1.544  1.1623 -1.8280  0.2077
  310SOL    HW2 2799   2.098   0.809   1.586  0.2909  0.0555 -2.7081
  311SOL     OW 2800   8.956   3.493   7.911  0.6648  0.2189 -0.6698
  311SOL    HW1 2801   9.010   3.548   7.854  2.2209  0.9330  1.3580
  311SOL    HW2 2802   8.980   3.520   7.999 -2.7170  0.1838  0.3779
  312SOL     OW 2803   0.204   6.806   0.760  0.1624  0.3610 -0.3715
  312SOL    HW1 2804   0.147   6.787   0.685 -1.3626 -1.0313  1.0549
  312SOL    HW2 2805   0.291   6.781   0.730 -0.5815 -1.2603 -1.3433
  313SOL     OW 2806   1.223   8.383   1.153  0.2236  0.1538 -0.5716
  313SOL    HW1 2807   1.256   8.304   1.111  2.7137  1.1935 -0.7552
  313SOL    HW2 2808   1.296   8.414   1.207 -1.4239  1.1758  1.2149
  314SOL     OW 2809   3.958   4.678   4.883 -0.4019 -0.7212  0.2395
  314SOL    HW1 2810   3.908   4.756   4.857 -2.4124 -2.1366 -0.4567
  314SOL    HW2 2811   4.030   4.712   4.935 -0.6133  1.6792 -0.8724
  315SOL     OW 2812   8.614   1.247   4.411  0.5013  0.0792  0.3453
  315SOL    HW1 2813   8.595   1.202   4.493 -1.1365  0.8321  0.4110
  315SOL    HW2 2814   8.547   1.216   4.350 -0.1978  1.8049  0.1794
  316SOL     OW 2815   2.673   6.595   8.075 -0.2091 -0.1153  0.1107
  316SOL    HW1 2816   2.739   6.663   8.087 -0.2465 -0.1630  0.6322
  316SOL    HW2 2817   2.652   6.566   8.164 -0.5214 -0.4934 -0.0802
  317SOL     OW 2818   6.985   4.412   3.399  0.1777  0.3616 -0.1304
  317SOL    HW1 2819   7.011   4.341   3.340  2.0558  1.0499 -0.1969
  317SOL    HW2 2820   7.057   4.420   3.461 -0.2180  1.8866  0.1898
  318SOL     OW 2821   7.708   8.321   3.441  0.4209 -0.3879  0.3526
  318SOL    HW1 2822   7.695   8.399   3.387 -0.4242  0.4198  1.6629
  318SOL    HW2 2823   7.620   8.289   3.459  0.7446 -1.3739  0.2391
  319SOL     OW 2824   2.656   3.183   4.294  1.0260  0.0653 -0.4622
  319SOL    HW1 2825   2.638   3.277   4.288 -1.4321 -0.3780 -1.0748
  319SOL    HW2 2826   2.672   3.167   4.387 -2.2611  0.5777  0.3023
  320SOL     OW 2827   8.731   7.534   3.197 -0.5320  0.1247  0.3893
  320SOL    HW1 2828   8.758   7.476   3.268  1.0461  2.1012  1.5225
  320SOL    HW2 2829   8.654   7.579   3.231  0.0705  0.8833  0.7800
  321SOL     OW 2830   6.294   4.433   1.626  0.3077 -0.2012 -0.0566
  321SOL    HW1 2831   6.323   4.461   1.713  2.3460  1.0368 -1.0772
  321SOL    HW2 2832   6.298   4.337   1.630  0.5223 -0.1618  1.1574
  322SOL     OW 2833   5.904   8.259   4.627  0.0856  0.2199  0.9155
  322SOL    HW1 2834   5.944   8.296   4.705  1.1111  0.2383  0.4002
  322SOL    HW2 2835   5.975   8.211   4.584 -0.7931 -0.9241  0.6935
  323SOL     OW 2836   6.088   3.303   0.218  0.5240 -0.4318  0.4596
  323SOL    HW1 2837   6.039   3.220   0.215 -3.4729  1.6861 -2.0995
  323SOL    HW2 2838   6.053   3.349   0.295  0.7415 -0.0568  0.3376
  324SOL     OW 2839   8.290   6.875   4.236 -0.0016 -0.2163  0.2813
  324SOL    HW1 2840   8.199   6.895   4.217  0.1725  0.8680  0.5409
  324SOL    HW2 2841   8.327   6.848   4.152  0.0945  1.9234 -0.4255
  325SOL     OW 2842   6.866   8.733   1.781  0.0606 -0.6187  0.3180
  325SOL    HW1 2843   6.876   8.811   1.836  0.0066 -2.0145  2.4458
  325SOL    HW2 2844   6.943   8.734   1.723  0.0008  1.0428  0.2374
  326SOL     OW 2845   3.521   6.241   6.355  0.7437 -0.4232 -0.5213
  326SOL    HW1 2846   3.581   6.173   6.324  0.0596 -1.9429  1.2978
  326SOL    HW2 2847   3.546   6.257   6.446  0.7070  1.6162 -0.8281
  327SOL     OW 2848   0.252   8.030   4.464 -0.1559  0.2757  0.0828
  327SOL    HW1 2849   0.343   8.004   4.480 -0.3997  0.1906  1.4425
  327SOL    HW2 2850   0.246   8.036   4.368  0.8185 -1.3574 -0.1323
  328SOL     OW 2851   8.016   2.160   2.890  0.1664  0.1867 -0.3157
  328SOL    HW1 2852   8.017   2.243   2.842  0.5715 -1.2945 -3.0550
  328SOL    HW2 2853   7.926   2.130   2.884  0.2577 -0.0883 -0.3372
  329SOL     OW 2854   1.121   3.342   1.776 -0.0467  0.1492 -0.1967
  329SOL    HW1 2855   1.044   3.286   1.773  1.3803 -1.9455 -0.2940
  329SOL    HW2 2856   1.137   3.366   1.684  0.2758 -0.7243 -0.3819
  330SOL     OW 2857   1.538   5.392   6.476  0.6578  0.6162 -0.4681
  330SOL    HW1 2858   1.533   5.445   6.556 -1.0433  1.8037 -1.2881
  330SOL    HW2 2859   1.594   5.443   6.417  0.3003  0.7430 -0.7046
  331SOL     OW 2860   0.661   0.819   4.571  0.5831  0.2811 -0.5812
  331SOL    HW1 2861   0.622   0.734   4.594  0.8269  0.3871  0.2479
  331SOL    HW2 2862   0.601   0.884   4.609 -0.1505  0.5159 -2.0857
  332SOL     OW 2863   3.600   5.299   2.694 -0.5437  0.3995 -0.6017
  332SOL    HW1 2864   3.616   5.223   2.749 -1.0007  0.2681 -0.6507
  332SOL    HW2 2865   3.528   5.273   2.637  0.0019  0.4862 -1.3484
  333SOL     OW 2866   4.900   1.784   6.839 -0.3103 -0.1357  0.2537
  333SOL    HW1 2867   4.923   1.844   6.767 -0.5211 -1.2739 -0.7835
  333SOL    HW2 2868   4.806   1.768   6.828 -0.4463  0.0332  1.0746
  334SOL     OW 2869   2.616   5.313   7.037  0.3365  0.0434 -0.4001
  334SOL    HW1 2870   2.600   5.404   7.062 -2.3230 -0.4641  0.1112
  334SOL    HW2 2871   2.634   5.316   6.943  1.3452  1.1646 -0.1915
  335SOL     OW 2872   8.741   0.154   6.010  0.0923  0.3591 -0.1013
  335SOL    HW1 2873   8.713   0.171   5.920  0.0367 -1.2057 -0.4030
  335SOL    HW2 2874   8.810   0.089   6.002 -0.7487 -0.7235  1.0446
  336SOL     OW 2875   0.775   8.366   1.529  0.0842  0.3186  0.7089
  336SOL    HW1 2876   0.760   8.375   1.623  3.3325  1.3839  1.2258
  336SOL    HW2 2877   0.791   8.455   1.499  1.2213 -0.2503 -0.4228
  337SOL     OW 2878   0.320   7.783   8.182  0.6508  0.6893  0.1944
  337SOL    HW1 2879   0.398   7.798   8.127  0.0334  2.0830 -0.3331
  337SOL    HW2 2880   0.356   7.764   8.269  1.5899  0.7187 -0.1700
  338SOL     OW 2881   3.062   5.339   6.174  0.0340 -0.2751  0.3723
  338SOL    HW1 2882   3.088   5.247   6.166  0.3863 -0.4768  2.8846
  338SOL    HW2 2883   3.118   5.374   6.243 -1.9607  1.0508  1.4377
  339SOL     OW 2884   4.611   5.498   3.384 -0.1962  0.3525 -0.4277
  339SOL    HW1 2885   4.591   5.418   3.432 -1.3067  0.7295 -0.2215
  339SOL    HW2 2886   4.571   5.568   3.436  0.4732  0.9996 -0.7737
  340SOL     OW 2887   1.309   6.446   8.109  0.2822  0.4457  0.0008
  340SOL    HW1 2888   1.312   6.384   8.036 -2.3646  2.1225 -1.7275
  340SOL    HW2 2889   1.216   6.451   8.131  0.5786  2.7993  0.9412
  341SOL     OW 2890   6.294   8.555   6.815  0.1426 -0.1762  0.1252
  341SOL    HW1 2891   6.325   8.475   6.771  0.1840 -0.3717  0.5112
  341SOL    HW2 2892   6.334   8.626   6.765  0.3342 -0.4017 -0.0471
  342SOL     OW 2893   8.712   1.622   3.935 -0.0023 -0.4749  0.4460
  342SOL    HW1 2894   8.661   1.560   3.988  1.4765 -2.6383 -0.5158
  342SOL    HW2 2895   8.740   1.571   3.859  3.8488  0.4523  1.0572
  343SOL     OW 2896   8.327   4.242   4.777 -0.2380  0.0841  0.6415
  343SOL    HW1 2897   8.374   4.323   4.795  0.3220 -0.4847  1.8907
  343SOL    HW2 2898   8.395   4.181   4.748 -0.6169 -0.0083 -0.0641
  344SOL     OW 2899   3.497   8.077   4.167  0.2783  0.1469  0.1888
  344SOL    HW1 2900   3.571   8.025   4.136  2.5679  1.3025  3.1482
  344SOL    HW2 2901   3.477   8.040   4.253 -2.5315  0.0357 -0.4176
  345SOL     OW 2902   6.977   2.903   4.469 -0.4859  0.0206  0.0168
  345SOL    HW1 2903   7.071   2.911   4.481 -0.3835 -0.2511 -0.5729
  345SOL    HW2 2904   6.946   2.994   4.462 -0.4293  0.1552  1.3313
  346SOL     OW 2905   5.620   5.668   7.254  0.0775  0.0386  0.0529
  346SOL    HW1 2906   5.646   5.674   7.162  3.7099 -1.5974  0.8033
  346SOL    HW2 2907   5.554   5.599   7.256  1.8968 -1.8772 -1.1270
  347SOL     OW 2908   5.610   5.327   7.443  0.3186 -0.7343  0.1787
  347SOL    HW1 2909   5.567   5.325   7.528 -0.4110 -0.5380 -0.1795
  347SOL    HW2 2910   5.551   5.278   7.385  2.1018 -3.3344  0.3582
  348SOL     OW 2911   4.158   6.008   4.105  0.2518  0.4367  0.1286
  348SOL    HW1 2912   4.184   6.085   4.155  1.4832 -0.0764  0.2953
  348SOL    HW2 2913   4.137   6.043   4.018  0.8131  0.9626  0.1974
  349SOL     OW 2914   5.124   3.075   6.193 -0.0565  0.6536 -0.6438
  349SOL    HW1 2915   5.160   3.120   6.269  1.3887 -0.0346 -0.8900
  349SOL    HW2 2916   5.180   2.998   6.182 -1.3007 -0.1962 -1.3663
  350SOL     OW 2917   4.689   0.920   5.390  0.4701  0.5498 -0.6348
  350SOL    HW1 2918   4.713   0.828   5.397  1.3753  0.8578  0.5552
  350SOL    HW2 2919   4.657   0.930   5.300 -0.5525 -1.1231 -0.4962
  351SOL     OW 2920   0.658   3.812   1.383 -0.2727 -0.1439 -0.0676
  351SOL    HW1 2921   0.706   3.894   1.376 -0.1560 -0.1968  0.1001
  351SOL    HW2 2922   0.725   3.746   1.402 -0.4640 -0.1406  0.6392
  352SOL     OW 2923   5.650   4.802   7.070  0.4713  0.0209  0.4564
  352SOL    HW1 2924   5.715   4.733   7.080  0.7799  0.3927  1.0956
  352SOL    HW2 2925   5.701   4.883   7.071 -0.0096  0.3196  1.1158
  353SOL     OW 2926   8.081   7.711   1.109  0.7064  0.1773 -0.6373
  353SOL    HW1 2927   8.063   7.678   1.021  1.1130 -0.5157 -0.4654
  353SOL    HW2 2928   8.177   7.718   1.112  0.9631 -2.6156  0.7163
  354SOL     OW 2929   5.996   2.027   6.481 -0.1040  0.7146 -0.0742
  354SOL    HW1 2930   5.960   2.018   6.392  0.6571 -0.6587 -0.2641
  354SOL    HW2 2931   5.927   1.994   6.538  0.0812 -0.0557 -0.2914
  355SOL     OW 2932   4.784   5.257   8.444  0.4337  0.1092  0.1193
  355SOL    HW1 2933   4.793   5.295   8.532  0.5126  0.4255 -0.0255
  355SOL    HW2 2934   4.692   5.269   8.423  0.5350  0.5719 -0.0830
  356SOL     OW 2935   5.430   0.762   0.854  0.0337 -0.2834 -0.1765
  356SOL    HW1 2936   5.364   0.784   0.920 -0.7574 -0.9232 -0.7420
  356SOL    HW2 2937   5.507   0.812   0.881 -1.2229  1.9995 -0.5575
  357SOL     OW 2938   2.253   5.903   6.502 -0.4317  0.1277 -0.1946
  357SOL    HW1 2939   2.218   5.982   6.461 -0.3230 -0.0328 -0.5968
  357SOL    HW2 2940   2.198   5.890   6.579 -1.6119 -0.4302 -1.1006
  358SOL     OW 2941   5.213   7.701   4.328  0.0220 -0.0451 -0.3527
  358SOL    HW1 2942   5.261   7.636   4.276 -0.4381 -0.5949 -0.0961
  358SOL    HW2 2943   5.218   7.781   4.276 -0.4555 -0.5930 -1.2699
  359SOL     OW 2944   8.873   2.484   3.966  0.7760 -0.5931 -0.2039
  359SOL    HW1 2945   8.916   2.493   4.051 -0.2885 -0.9851  0.3918
  359SOL    HW2 2946   8.849   2.573   3.942 -2.6540 -0.7566  1.9268
  360SOL     OW 2947   7.136   1.538   1.479  0.1007 -0.3752  0.0002
  360SOL    HW1 2948   7.107   1.544   1.388  0.4071 -1.1737 -0.1531
  360SOL    HW2 2949   7.175   1.451   1.487  1.2042  0.1474  0.5703
  361SOL     OW 2950   4.809   4.347   5.113  0.0405 -0.5643  0.3225
  361SOL    HW1 2951   4.777   4.360   5.023  0.4805 -1.0846  0.0926
  361SOL    HW2 2952   4.890   4.398   5.117 -0.1159 -0.3255  0.5097
  362SOL     OW 2953   4.214   0.463   4.718 -0.3123 -0.2119 -0.1567
  362SOL    HW1 2954   4.182   0.549   4.692  0.7253  0.1412 -0.3116
  362SOL    HW2 2955   4.206   0.462   4.813  0.7081  0.5025 -0.0488
  363SOL     OW 2956   4.733   2.001   5.584  0.3181  0.5546  0.4239
  363SOL    HW1 2957   4.816   2.038   5.614  1.6540 -2.9102  1.4764
  363SOL    HW2 2958   4.751   1.970   5.495  0.2168 -0.3271  0.7022
  364SOL     OW 2959   7.237   4.528   5.724  0.2695  0.0761 -0.0237
  364SOL    HW1 2960   7.168   4.546   5.787  0.9830 -1.0207  1.0963
  364SOL    HW2 2961   7.313   4.575   5.757  0.3488  0.4805 -0.7376
  365SOL     OW 2962   5.418   2.457   8.590  0.2908 -0.2150 -0.2796
  365SOL    HW1 2963   5.459   2.403   8.522  1.3070 -0.4587  0.5095
  365SOL    HW2 2964   5.374   2.527   8.542  0.9357 -0.4254 -1.1937
  366SOL     OW 2965   7.822   5.903   0.951 -0.0159  0.4936 -0.5571
  366SOL    HW1 2966   7.891   5.837   0.943  0.9409  1.0488  2.0746
  366SOL    HW2 2967   7.740   5.853   0.941  0.6649 -0.3527 -2.6183
  367SOL     OW 2968   7.885   4.631   2.588  0.0917 -0.2405 -0.2425
  367SOL    HW1 2969   7.848   4.556   2.634  0.8667 -0.7763 -0.4867
  367SOL    HW2 2970   7.847   4.707   2.633  1.6568 -0.7209  2.0151
  368SOL     OW 2971   1.350   3.921   6.688 -0.2141  0.1581  0.3703
  368SOL    HW1 2972   1.439   3.921   6.723  0.5253  1.2993 -1.3574
  368SOL    HW2 2973   1.311   4.002   6.719 -0.2149  0.2517  0.1297
  369SOL     OW 2974   1.015   2.857   2.390  0.7293 -0.2206 -0.1885
  369SOL    HW1 2975   1.038   2.925   2.326  1.8920 -0.8493 -0.4752
  369SOL    HW2 2976   0.932   2.821   2.358  0.1663  0.9657 -0.1053
  370SOL     OW 2977   4.967   1.765   8.993  0.3442  0.4578 -0.1138
  370SOL    HW1 2978   4.886   1.784   8.945  0.0207 -0.4448  0.0422
  370SOL    HW2 2979   5.008   1.694   8.942  0.0790 -0.3942  0.8286
  371SOL     OW 2980   8.706   1.456   2.821  0.2882  0.6994 -0.3189
  371SOL    HW1 2981   8.615   1.479   2.839 -0.7801 -2.3585 -1.1994
  371SOL    HW2 2982   8.745   1.538   2.789 -1.8667  2.3083  0.8425
  372SOL     OW 2983   7.510   0.031   6.394  0.4478  0.2336 -0.8846
  372SOL    HW1 2984   7.467  -0.018   6.324 -1.1612  0.6692 -0.2408
  372SOL    HW2 2985   7.548   0.107   6.351  0.6542 -0.2034 -1.4802
  373SOL     OW 2986   4.907   8.685   7.514  0.6277  0.2371  0.4059
  373SOL    HW1 2987   4.818   8.713   7.493  0.1105 -1.2985  0.3831
  373SOL    HW2 2988   4.906   8.672   7.608 -0.0486 -2.3923  0.1236
  374SOL     OW 2989   3.955   6.167   2.422  0.7039 -0.1187  0.6603
  374SOL    HW1 2990   3.946   6.253   2.382 -0.2393 -0.8178 -0.7589
  374SOL    HW2 2991   3.932   6.106   2.351  1.0991 -1.5177  1.6941
  375SOL     OW 2992   6.308   2.820   2.270 -0.0762 -0.4156 -0.8253
  375SOL    HW1 2993   6.295   2.776   2.354  0.2105 -0.2215 -0.6797
  375SOL    HW2 2994   6.394   2.790   2.240  0.9012  1.3351  0.0790
  376SOL     OW 2995   6.512   0.597   8.571 -0.1861  0.6442  0.5792
  376SOL    HW1 2996   6.519   0.682   8.528 -1.0123 -0.1060 -1.0976
  376SOL    HW2 2997   6.425   0.597   8.611 -1.4567 -0.4973 -1.9843
  377SOL     OW 2998   6.155   7.783   4.996 -0.7535  0.0989  0.1259
  377SOL    HW1 2999   6.146   7.874   4.966 -0.5465  0.3527  0.8111
  377SOL    HW2 3000   6.101   7.779   5.075 -2.6233 -0.9970 -1.1273
  378SOL     OW 3001   4.160   8.783   3.300 -0.5226 -0.4095  0.3990
  378SOL    HW1 3002   4.177   8.845   3.229 -0.2599  1.6759  2.1682
  378SOL    HW2 3003   4.237   8.727   3.301  0.0245  0.3076 -0.2339
  379SOL     OW 3004   5.514   5.673   2.945  0.0144 -0.8767  0.3165
  379SOL    HW1 3005   5.459   5.745   2.976 -0.3319  0.0406 -2.1994
  379SOL    HW2 3006   5.600   5.689   2.984  0.1374  1.3598 -0.7359
  380SOL     OW 3007   0.147   2.965   0.510 -0.5263 -0.2764  0.0828
  380SOL    HW1 3008   0.081   2.902   0.538 -2.7105  1.9513  0.2767
  380SOL    HW2 3009   0.112   3.003   0.429  1.1686  0.0985 -0.5302
  381SOL     OW 3010   3.568   1.192   4.806  0.0251  0.1533  0.1727
  381SOL    HW1 3011   3.599   1.281   4.788 -0.5206  0.2097 -0.5749
  381SOL    HW2 3012   3.522   1.199   4.889  0.8403  0.3512  0.6161
  382SOL     OW 3013   5.655   1.448   6.635 -0.5088 -0.1075  0.5300
  382SOL    HW1 3014   5.704   1.370   6.662  0.9307  1.2019  1.9162
  382SOL    HW2 3015   5.598   1.467   6.710  0.6264  1.2751  1.1030
  383SOL     OW 3016   1.850   5.599   1.036 -0.1636 -0.3701 -0.2610
  383SOL    HW1 3017   1.770   5.579   0.987  0.7564 -0.4300 -1.7994
  383SOL    HW2 3018   1.919   5.548   0.993  0.1734 -3.3087  3.3302
  384SOL     OW 3019   7.679   0.173   5.607 -0.0841  0.5724 -0.5912
  384SOL    HW1 3020   7.662   0.182   5.514 -0.4561  0.9047 -0.4973
  384SOL    HW2 3021   7.764   0.130   5.613 -1.0871 -1.5912 -1.0856
  385SOL     OW 3022   3.122   4.008   8.977  0.0888  0.0188  0.5005
  385SOL    HW1 3023   3.065   4.036   9.048  0.0129 -1.0882  0.8953
  385SOL    HW2 3024   3.196   3.966   9.020 -0.1999 -1.1191 -0.0571
  386SOL     OW 3025   1.889   4.133   4.588  0.0792  0.4558  0.0337
  386SOL    HW1 3026   1.971   4.087   4.605 -0.1326  0.1096  0.1138
  386SOL    HW2 3027   1.864   4.107   4.500  0.5737  1.3504 -0.3913
  387SOL     OW 3028   7.717   4.571   1.871 -0.6319  0.0397 -0.6592
  387SOL    HW1 3029   7.766   4.521   1.805  1.2574  1.0811 -0.1275
  387SOL    HW2 3030   7.750   4.540   1.955 -0.9541  0.6880 -0.2807
  388SOL     OW 3031   8.094   7.979   0.204 -0.0793  0.0883 -0.2383
  388SOL    HW1 3032   8.111   8.033   0.282  1.1972  2.7995 -2.2134
  388SOL    HW2 3033   8.142   7.898   0.221 -0.3131  0.3527  2.0159
  389SOL     OW 3034   5.416   3.787   3.739 -0.4206 -0.0194  0.5815
  389SOL    HW1 3035   5.419   3.872   3.696 -0.4909  0.1609  0.9322
  389SOL    HW2 3036   5.405   3.724   3.667 -0.9765  0.3122  0.3745
  390SOL     OW 3037   3.181   7.194   8.688  0.2976  0.4447 -0.4783
  390SOL    HW1 3038   3.139   7.120   8.644 -1.3593  1.1699 -0.1734
  390SOL    HW2 3039   3.211   7.158   8.772 -2.1659  0.4855  0.5075
  391SOL     OW 3040   1.682   5.196   5.212  0.1292  0.1085 -0.4712
  391SOL    HW1 3041   1.667   5.151   5.295  0.5367  0.5259 -0.1707
  391SOL    HW2 3042   1.618   5.266   5.210 -1.9674 -1.7198 -1.8992
  392SOL     OW 3043   8.373   2.491   8.767  0.5543 -0.2266 -0.1084
  392SOL    HW1 3044   8.383   2.464   8.676 -0.6650  0.2149 -0.3839
  392SOL    HW2 3045   8.305   2.434   8.802  0.5796  0.0223  0.3518
  393SOL     OW 3046   7.879   8.172   7.091  0.3837 -0.4339  0.1046
  393SOL    HW1 3047   7.944   8.153   7.024  0.5921  0.3760  0.0710
  393SOL    HW2 3048   7.929   8.177   7.172  0.3086 -0.2163  0.1384
  394SOL     OW 3049   4.831   5.498   8.581  0.5142  0.3221 -0.0889
  394SOL    HW1 3050   4.830   5.527   8.489 -1.2539  2.8829  0.6093
  394SOL    HW2 3051   4.922   5.507   8.608  0.9367  0.2338 -1.4026
  395SOL     OW 3052   5.903   6.823   1.380 -0.2059  0.4404  0.2269
  395SOL    HW1 3053   5.857   6.906   1.386 -0.2252  0.4922 -0.5076
  395SOL    HW2 3054   5.902   6.802   1.287 -2.0096 -1.4069  0.5821
  396SOL     OW 3055   0.244   7.681   4.675  0.9362 -0.3082 -0.2268
  396SOL    HW1 3056   0.254   7.635   4.758 -0.4708  0.4350  0.3839
  396SOL    HW2 3057   0.297   7.760   4.686  1.8079 -0.8198 -0.5633
  397SOL     OW 3058   6.831   1.392   8.689  0.2000  0.8841  0.0689
  397SOL    HW1 3059   6.766   1.366   8.624  1.2208  1.3154 -1.1816
  397SOL    HW2 3060   6.849   1.484   8.670  0.4587  1.0434  1.0257
  398SOL     OW 3061   4.780   6.003   1.756 -0.2008 -0.1273  0.3273
  398SOL    HW1 3062   4.774   6.036   1.666 -0.1887 -0.0644  0.3497
  398SOL    HW2 3063   4.745   5.914   1.751  0.2005 -0.2800  0.1775
  399SOL     OW 3064   4.131   4.170   0.863  0.4054 -0.4704 -0.0411
  399SOL    HW1 3065   4.103   4.230   0.794  0.6708 -0.2895  0.0082
  399SOL    HW2 3066   4.152   4.227   0.937  0.9563 -0.6009 -0.0951
  400SOL     OW 3067   5.144   4.921   0.108 -0.3557  0.1913  0.4513
  400SOL    HW1 3068   5.213   4.982   0.082  0.3596 -0.8379 -0.1742
  400SOL    HW2 3069   5.066   4.974   0.116  0.5841  1.4824  1.5772
  401SOL     OW 3070   2.643   2.862   3.372 -0.3588 -0.1057  0.0429
  401SOL    HW1 3071   2.682   2.880   3.286  0.8136  0.6437  0.7136
  401SOL    HW2 3072   2.556   2.828   3.351 -0.6333  1.3672 -1.4216
  402SOL     OW 3073   4.485   8.186   6.916  0.3203 -0.1984 -0.4355
  402SOL    HW1 3074   4.403   8.161   6.873 -0.6400 -0.4412  1.4541
  402SOL    HW2 3075   4.479   8.281   6.926 -0.3021 -0.3418  0.7469
  403SOL     OW 3076   5.504   6.599   3.185 -0.0256 -0.9871  0.0288
  403SOL    HW1 3077   5.434   6.643   3.233  0.9053 -1.4071  1.8352
  403SOL    HW2 3078   5.504   6.642   3.099 -0.0480  1.6371  1.2390
  404SOL     OW 3079   7.142   7.442   3.259  0.2740  0.0079 -0.3246
  404SOL    HW1 3080   7.052   7.465   3.282  0.8685  0.1696  2.1063
  404SOL    HW2 3081   7.159   7.490   3.178 -1.6502  0.3431 -0.5857
  405SOL     OW 3082   7.421   0.815   8.218 -0.3387  0.0491 -0.2754
  405SOL    HW1 3083   7.328   0.837   8.206 -0.6913 -0.4589  1.2944
  405SOL    HW2 3084   7.423   0.764   8.299  1.1275 -1.2320 -1.0823
  406SOL     OW 3085   5.992   6.368   5.300  0.5745  0.5893 -0.0553
  406SOL    HW1 3086   5.951   6.434   5.244 -0.7046 -1.5990 -1.8813
  406SOL    HW2 3087   5.921   6.308   5.322  1.8601 -0.7291  0.7012
  407SOL     OW 3088   3.507   2.322   1.837  0.5666 -0.3506 -0.4348
  407SOL    HW1 3089   3.596   2.332   1.870 -0.2944  4.3331  1.2083
  407SOL    HW2 3090   3.505   2.372   1.755 -0.4189 -0.9470 -0.8010
  408SOL     OW 3091   5.092   6.714   8.840  0.0481  0.6635  0.6205
  408SOL    HW1 3092   5.005   6.700   8.803  0.5176  0.0351 -0.2909
  408SOL    HW2 3093   5.098   6.808   8.854  0.0843  1.0402 -1.5576
  409SOL     OW 3094   6.979   7.722   0.284 -0.0472  0.0473  0.1760
  409SOL    HW1 3095   7.027   7.733   0.366  0.4998 -0.9890  0.0127
  409SOL    HW2 3096   7.005   7.636   0.253 -1.2335 -0.1026 -0.4470
  410SOL     OW 3097   6.619   6.519   3.847 -0.3698  0.6339 -0.1282
  410SOL    HW1 3098   6.576   6.435   3.863 -0.4114  0.6224 -0.2975
  410SOL    HW2 3099   6.572   6.581   3.903 -2.1225  1.0778 -1.9386
  411SOL     OW 3100   3.301   4.152   0.598 -0.2250 -0.3076 -0.2199
  411SOL    HW1 3101   3.235   4.213   0.633 -0.8109 -0.6512 -0.7044
  411SOL    HW2 3102   3.384   4.185   0.631 -0.5162  0.8497 -0.6029
  412SOL     OW 3103   8.706   7.651   3.782 -0.3100  0.8388  0.0617
  412SOL    HW1 3104   8.749   7.566   3.792 -3.0045 -0.7061 -0.4507
  412SOL    HW2 3105   8.762   7.712   3.831  1.4658 -1.2921  0.8658
  413SOL     OW 3106   3.334   6.647   4.124  0.0961 -0.1611 -0.1308
  413SOL    HW1 3107   3.262   6.603   4.169  0.5220 -1.0976 -0.3414
  413SOL    HW2 3108   3.333   6.611   4.035  1.4235 -0.9381  0.1411
  414SOL     OW 3109   1.874   0.887   3.663 -0.5923  0.0070  0.3229
  414SOL    HW1 3110   1.826   0.885   3.746 -1.2266 -1.2099 -0.0636
  414SOL    HW2 3111   1.927   0.807   3.664  0.9036  0.9568  0.4093
  415SOL     OW 3112   0.203   6.314   8.130 -0.1082  0.0117  0.0054
  415SOL    HW1 3113   0.260   6.237   8.132  0.1267  0.1106 -1.5828
  415SOL    HW2 3114   0.130   6.291   8.187  1.8131  0.1672  2.7185
  416SOL     OW 3115   2.926   7.933   8.520  0.7186  0.5066  0.3284
  416SOL    HW1 3116   2.943   7.855   8.467  1.3597  1.4507 -0.9000
  416SOL    HW2 3117   2.848   7.972   8.480  1.2430  1.2594  0.0232
  417SOL     OW 3118   7.928   8.872   3.904 -0.2870 -0.2109 -0.4426
  417SOL    HW1 3119   7.986   8.923   3.847  0.2159 -1.0579 -0.7120
  417SOL    HW2 3120   7.862   8.836   3.845 -0.0041 -0.7582 -0.4253
  418SOL     OW 3121   7.664   2.901   7.834 -0.3939  0.2212 -0.0237
  418SOL    HW1 3122   7.595   2.879   7.897  0.8667  0.0503  1.3467
  418SOL    HW2 3123   7.719   2.823   7.831 -0.2993  0.3133 -1.1926
  419SOL     OW 3124   6.656   1.416   4.300  0.2851 -0.1757 -0.4327
  419SOL    HW1 3125   6.674   1.330   4.339 -1.0748 -0.6049 -0.7027
  419SOL    HW2 3126   6.664   1.478   4.373  0.9881 -0.5595 -0.1780
  420SOL     OW 3127   5.473   1.610   7.385  0.0047  0.1622  0.0813
  420SOL    HW1 3128   5.458   1.698   7.418  0.6988  0.1067  0.5531
  420SOL    HW2 3129   5.395   1.561   7.411  1.0225 -0.1896  2.7366
  421SOL     OW 3130   3.656   5.110   7.269  0.1846 -0.0614 -0.1538
  421SOL    HW1 3131   3.589   5.098   7.201 -0.6455  1.8863  0.2675
  421SOL    HW2 3132   3.633   5.045   7.335 -0.6188 -0.1755 -0.5273
  422SOL     OW 3133   7.397   3.493   1.870  0.0354 -0.3850  0.1969
  422SOL    HW1 3134   7.489   3.469   1.882 -0.2360 -0.4573  2.5855
  422SOL    HW2 3135   7.393   3.584   1.901 -0.6730 -0.3159 -0.0942
  423SOL     OW 3136   6.981   8.564   8.110 -0.2304 -0.5538 -0.1133
  423SOL    HW1 3137   6.977   8.633   8.044  0.5931 -0.1811  0.2198
  423SOL    HW2 3138   7.071   8.531   8.105 -0.6640 -1.7478 -0.4092
  424SOL     OW 3139   4.926   4.506   4.167 -0.2780 -0.4664 -0.3757
  424SOL    HW1 3140   4.932   4.412   4.151 -0.2081 -0.6897  0.8757
  424SOL    HW2 3141   4.835   4.520   4.194 -0.2554 -0.2047 -0.4339
  425SOL     OW 3142   1.497   6.188   1.308  0.9021 -0.1367  0.0278
  425SOL    HW1 3143   1.477   6.266   1.360 -0.2296  1.2463 -2.2935
  425SOL    HW2 3144   1.588   6.201   1.279  0.2915  1.1285 -1.4969
  426SOL     OW 3145   4.485   2.750   3.091 -0.3096  0.4863  0.2212
  426SOL    HW1 3146   4.400   2.761   3.050 -0.0626 -0.5269 -0.6073
  426SOL    HW2 3147   4.514   2.839   3.112 -0.2962  1.0786 -2.1230
  427SOL     OW 3148   6.955   2.476   2.647  0.4575 -0.2046 -0.4945
  427SOL    HW1 3149   6.931   2.463   2.555 -1.8085 -1.8942  0.2549
  427SOL    HW2 3150   7.003   2.397   2.671 -0.4251 -0.5523  0.1905
  428SOL     OW 3151   6.596   8.363   0.641 -0.2736  0.0303 -0.2450
  428SOL    HW1 3152   6.550   8.444   0.616  0.4173 -0.0524 -1.9099
  428SOL    HW2 3153   6.680   8.394   0.676  0.1151  0.0672 -1.1573
  429SOL     OW 3154   1.206   1.302   5.122 -0.5685  0.6221  0.2011
  429SOL    HW1 3155   1.262   1.269   5.052  0.6317 -0.0258  1.4158
  429SOL    HW2 3156   1.155   1.372   5.081  1.3585  1.4670 -0.8831
  430SOL     OW 3157   0.431   5.221   5.695 -0.3440  0.3987 -0.2158
  430SOL    HW1 3158   0.405   5.310   5.671 -1.5467 -0.0249 -0.5702
  430SOL    HW2 3159   0.425   5.219   5.790  1.8322  1.3046  0.0072
  431SOL     OW 3160   7.279   0.074   5.918 -0.4986  0.4773  0.1170
  431SOL    HW1 3161   7.349   0.119   5.871  0.3511 -1.3141 -0.4484
  431SOL    HW2 3162   7.236   0.019   5.852 -0.3793 -0.8121  1.0552
  432SOL     OW 3163   4.423   7.127   0.632  0.0107  0.3975 -0.0465
  432SOL    HW1 3164   4.421   7.078   0.714  1.4961  1.1513  0.4788
  432SOL    HW2 3165   4.359   7.197   0.644  1.2224  1.3871  1.1129
  433SOL     OW 3166   1.943   4.970   2.678  0.1462  0.0688  0.4795
  433SOL    HW1 3167   1.889   4.898   2.646  0.2100  1.3561 -2.9157
  433SOL    HW2 3168   1.888   5.016   2.741 -1.3517 -0.7408 -0.1880
  434SOL     OW 3169   8.285   8.257   6.643  0.1008  0.0710  0.2651
  434SOL    HW1 3170   8.372   8.281   6.673 -0.0091 -1.4791  2.0116
  434SOL    HW2 3171   8.225   8.306   6.701 -0.1844  0.5661 -0.4402
  435SOL     OW 3172   0.400   8.011   1.753 -0.0683  0.1080 -0.3297
  435SOL    HW1 3173   0.341   8.016   1.678 -0.0337  0.8044 -0.3189
  435SOL    HW2 3174   0.405   7.918   1.774  0.0427 -0.1168 -1.2879
  436SOL     OW 3175   2.657   7.592   4.586  0.3858 -0.7589 -0.3755
  436SOL    HW1 3176   2.641   7.505   4.550 -0.4829 -0.0926 -1.7104
  436SOL    HW2 3177   2.750   7.608   4.568  0.4732 -1.2734 -0.4074
  437SOL     OW 3178   4.772   8.691   8.191  0.1542  0.0430 -0.3214
  437SOL    HW1 3179   4.795   8.771   8.144  0.0909  0.1974 -0.0900
  437SOL    HW2 3180   4.802   8.620   8.134 -1.2487  0.1951 -1.2667
  438SOL     OW 3181   6.667   5.875   4.924 -0.3172 -0.9088  0.8117
  438SOL    HW1 3182   6.669   5.948   4.985 -0.9036 -0.9500  0.8819
  438SOL    HW2 3183   6.644   5.799   4.977 -2.0918 -0.7321  0.3428
  439SOL     OW 3184   1.595   8.560   6.515  0.1173 -0.6059 -0.6902
  439SOL    HW1 3185   1.533   8.618   6.470  0.2602 -0.3826 -0.5981
  439SOL    HW2 3186   1.583   8.579   6.608 -0.3267 -1.2145 -0.6148
  440SOL     OW 3187   4.275   1.578   4.228  0.1939 -0.1842 -0.1825
  440SOL    HW1 3188   4.311   1.666   4.232 -3.4408  1.5581 -1.5899
  440SOL    HW2 3189   4.249   1.558   4.318 -0.2392  0.8083 -0.0775
  441SOL     OW 3190   3.441   3.528   8.143  0.3857  0.5336 -0.3127
  441SOL    HW1 3191   3.366   3.561   8.094 -1.0006  0.7010  1.7963
  441SOL    HW2 3192   3.453   3.438   8.111 -1.4009  0.1420 -0.0009
  442SOL     OW 3193   2.942   3.981   3.869 -0.1391  0.2861  0.1585
  442SOL    HW1 3194   2.894   4.038   3.930 -0.5316 -1.0644  1.1416
  442SOL    HW2 3195   2.978   3.912   3.924  2.5634  0.9680 -0.6043
  443SOL     OW 3196   8.678   7.280   3.105  0.2795 -0.6107  0.2578
  443SOL    HW1 3197   8.589   7.259   3.078 -0.1157 -0.6166  1.5378
  443SOL    HW2 3198   8.674   7.371   3.135  0.6992 -0.6168  0.3471
  444SOL     OW 3199   6.404   3.084   4.168 -0.1507  0.2299  0.2028
  444SOL    HW1 3200   6.410   3.028   4.246  0.3606  1.0733  0.7930
  444SOL    HW2 3201   6.387   3.171   4.204 -2.5477  0.2198 -0.7653
  445SOL     OW 3202   2.286   3.982   1.162 -0.0353  0.7101  0.0590
  445SOL    HW1 3203   2.293   3.946   1.250  0.2287  1.0929  0.1987
  445SOL    HW2 3204   2.368   3.958   1.119 -0.2846  0.2808 -0.1735
  446SOL     OW 3205   6.154   2.742   0.605  0.4982  0.4416 -0.0800
  446SOL    HW1 3206   6.143   2.806   0.676 -1.1263 -0.0763  0.1872
  446SOL    HW2 3207   6.222   2.683   0.637  0.7681  1.0222  0.4422
  447SOL     OW 3208   7.268   4.518   0.258 -0.1060 -0.0628 -0.0837
  447SOL    HW1 3209   7.267   4.551   0.348  1.1129  1.2586 -0.5191
  447SOL    HW2 3210   7.358   4.491   0.242 -0.7059 -2.0504 -0.3305
  448SOL     OW 3211   4.606   1.443   6.940  0.2297 -0.2995  0.3066
  448SOL    HW1 3212   4.550   1.437   7.017 -0.4661  2.0056  0.0540
  448SOL    HW2 3213   4.694   1.424   6.973 -0.1904 -0.3051  1.4804
  449SOL     OW 3214   8.777   2.411   5.848  0.3349  0.1616 -0.9123
  449SOL    HW1 3215   8.817   2.326   5.865  0.2896  0.4726  1.0113
  449SOL    HW2 3216   8.700   2.412   5.905  0.9728  1.9241 -0.0255
  450SOL     OW 3217   4.718   2.428   8.882 -0.1455 -0.4459 -0.4495
  450SOL    HW1 3218   4.647   2.366   8.867 -0.9205  0.4030 -0.3885
  450SOL    HW2 3219   4.686   2.510   8.844  0.6819  0.0167 -0.1606
  451SOL     OW 3220   5.644   2.815   7.301 -0.1519 -0.6375 -0.0217
  451SOL    HW1 3221   5.724   2.839   7.347  0.0012  2.5207 -1.6752
  451SOL    HW2 3222   5.665   2.828   7.208 -2.7712  1.2060 -0.4647
  452SOL     OW 3223   7.931   7.002   2.283 -0.2535 -0.3517 -0.4313
  452SOL    HW1 3224   7.840   6.974   2.282 -0.3366 -0.1116  0.0878
  452SOL    HW2 3225   7.971   6.957   2.208 -0.7217 -0.7042 -0.4739
  453SOL     OW 3226   4.886   5.619   8.335 -0.0110  0.0174  0.1656
  453SOL    HW1 3227   4.970   5.659   8.355 -0.0737  0.6543 -0.7808
  453SOL    HW2 3228   4.883   5.615   8.240 -1.4262  0.8517  0.1403
  454SOL     OW 3229   4.874   3.016   4.428 -0.2563 -0.1429 -0.3304
  454SOL    HW1 3230   4.950   3.012   4.369  1.6336  2.3677  1.6754
  454SOL    HW2 3231   4.908   2.984   4.512 -0.9229  2.2795  0.9615
  455SOL     OW 3232   0.360   6.425   5.991 -0.2792 -0.0764 -0.5895
  455SOL    HW1 3233   0.422   6.399   6.059 -0.3035 -0.7368 -0.8204
  455SOL    HW2 3234   0.408   6.487   5.936 -0.1267  0.1319 -0.2244
  456SOL     OW 3235   5.724   4.836   8.304 -0.5239 -0.2665 -0.2680
  456SOL    HW1 3236   5.765   4.788   8.233 -1.2372 -2.2114  0.5849
  456SOL    HW2 3237   5.755   4.792   8.384 -0.7131  1.0874  0.5934
  457SOL     OW 3238   2.157   1.552   6.215 -0.2494  0.3197  0.2974
  457SOL    HW1 3239   2.213   1.526   6.142 -0.9673 -1.5774  0.3591
  457SOL    HW2 3240   2.158   1.648   6.214  1.6917  0.3411 -0.6787
  458SOL     OW 3241   1.916   3.242   3.499 -0.1034  0.1014 -0.0834
  458SOL    HW1 3242   1.974   3.267   3.427  0.5979 -0.1006  0.4069
  458SOL    HW2 3243   1.908   3.146   3.492 -0.7365  0.1676 -0.4091
  459SOL     OW 3244   1.800   4.360   6.210  0.3514 -0.6605 -0.2267
  459SOL    HW1 3245   1.722   4.359   6.267  1.3557 -1.7697  1.2112
  459SOL    HW2 3246   1.778   4.422   6.141 -0.5500  1.6081  1.9431
  460SOL     OW 3247   1.668   1.560   4.024 -0.5197  0.0078  0.0146
  460SOL    HW1 3248   1.647   1.469   4.000 -0.2334  0.3535 -1.7215
  460SOL    HW2 3249   1.648   1.566   4.117 -0.7054 -1.7909  0.1226
  461SOL     OW 3250   8.699   4.035   0.441  0.4772  0.2198 -0.3320
  461SOL    HW1 3251   8.752   4.025   0.521  0.2556  0.1978 -0.1878
  461SOL    HW2 3252   8.651   4.116   0.455  0.7114  0.4081 -0.6025
  462SOL     OW 3253   6.281   6.818   7.566  0.2618  0.2805 -0.2714
  462SOL    HW1 3254   6.293   6.898   7.618 -0.6391  0.4995 -0.3761
  462SOL    HW2 3255   6.317   6.840   7.480 -1.6893  1.2672 -0.8885
  463SOL     OW 3256   8.742   6.203   5.010 -0.3773 -0.2198  0.2456
  463SOL    HW1 3257   8.776   6.181   5.097  0.2146 -0.6439 -0.0822
  463SOL    HW2 3258   8.746   6.120   4.962 -2.1509 -0.3499  0.2639
  464SOL     OW 3259   0.384   1.592   1.140  0.3128  0.6262  0.2536
  464SOL    HW1 3260   0.352   1.658   1.201 -2.4797 -0.8293  0.5016
  464SOL    HW2 3261   0.433   1.530   1.195 -0.7351  0.2312  0.7528
  465SOL     OW 3262   3.296   7.546   0.401 -0.0119  0.0872 -0.5408
  465SOL    HW1 3263   3.342   7.531   0.318 -0.3325  0.1538 -0.7306
  465SOL    HW2 3264   3.246   7.626   0.387 -1.8767 -1.1137 -1.0614
  466SOL     OW 3265   0.311   6.486   3.110  0.5270 -0.2262 -0.2547
  466SOL    HW1 3266   0.222   6.466   3.081 -0.7551  1.1986  2.3650
  466SOL    HW2 3267   0.348   6.539   3.040 -1.3785  0.7186 -0.6035
  467SOL     OW 3268   5.512   4.251   6.762  0.2462  0.0825  0.3362
  467SOL    HW1 3269   5.543   4.340   6.751  0.8680 -0.1973 -0.2437
  467SOL    HW2 3270   5.461   4.253   6.843 -1.3827  1.4082 -0.6394
  468SOL     OW 3271   7.780   3.997   4.286  0.1257  0.8424 -0.0846
  468SOL    HW1 3272   7.749   4.087   4.275 -1.4979  0.1712 -1.3197
  468SOL    HW2 3273   7.734   3.947   4.219  2.4652 -0.6105 -0.7282
  469SOL     OW 3274   8.771   8.693   8.785 -0.5125 -0.0890 -0.2046
  469SOL    HW1 3275   8.747   8.699   8.692  1.5462  0.4413 -0.7511
  469SOL    HW2 3276   8.863   8.670   8.784  0.4464  3.0152  1.6200
  470SOL     OW 3277   6.780   5.267   0.756 -0.1961 -0.0961  0.0957
  470SOL    HW1 3278   6.768   5.362   0.750  0.0106 -0.0528  0.3142
  470SOL    HW2 3279   6.694   5.230   0.738 -0.4523  0.1655  0.7519
  471SOL     OW 3280   2.883   3.280   0.336 -0.2433 -0.0665  0.7496
  471SOL    HW1 3281   2.902   3.361   0.382  0.9391  0.6036 -0.8166
  471SOL    HW2 3282   2.967   3.234   0.333 -0.4876 -0.4800  0.0308
  472SOL     OW 3283   1.602   2.769   4.454  0.0792  0.1286 -1.0330
  472SOL    HW1 3284   1.580   2.806   4.368 -0.2249  3.0751  0.1836
  472SOL    HW2 3285   1.541   2.812   4.514  2.2319  0.4599  1.0464
  473SOL     OW 3286   2.734   0.680   1.086 -0.4489  0.4262 -0.2409
  473SOL    HW1 3287   2.733   0.766   1.126 -0.8088  0.5973 -0.6106
  473SOL    HW2 3288   2.653   0.638   1.114  0.8046 -0.7345  1.9191
  474SOL     OW 3289   6.287   2.913   1.380 -0.4339 -0.3802  0.0290
  474SOL    HW1 3290   6.236   2.989   1.406 -1.1151 -0.8998  0.2391
  474SOL    HW2 3291   6.318   2.876   1.463  0.0129 -0.2497 -0.0801
  475SOL     OW 3292   3.196   4.851   8.423  0.1902 -0.3582  0.5774
  475SOL    HW1 3293   3.236   4.781   8.475  0.3776 -1.5576 -1.0720
  475SOL    HW2 3294   3.200   4.928   8.478  0.9282 -1.4252  2.0794
  476SOL     OW 3295   0.591   6.805   5.625 -0.1266  0.1739  0.1754
  476SOL    HW1 3296   0.684   6.795   5.608 -0.2760 -0.2265 -0.4550
  476SOL    HW2 3297   0.548   6.763   5.550 -0.8152  2.6822 -0.9380
  477SOL     OW 3298   2.006   1.923   2.309  0.4966 -0.0869  0.0142
  477SOL    HW1 3299   1.962   1.877   2.380 -0.4056  0.4658 -0.1631
  477SOL    HW2 3300   1.973   2.013   2.315  2.2861  0.5712  0.3996
  478SOL     OW 3301   6.134   6.402   3.351 -0.1637 -0.0553  0.2200
  478SOL    HW1 3302   6.064   6.439   3.296  1.0034  0.2265 -1.1370
  478SOL    HW2 3303   6.133   6.308   3.329 -0.1990 -0.0717  0.2934
  479SOL     OW 3304   5.801   5.280   4.076  0.0058 -0.1928  0.0400
  479SOL    HW1 3305   5.732   5.218   4.056  1.3836 -1.3709 -1.3578
  479SOL    HW2 3306   5.879   5.226   4.091  0.5785  1.0536  1.9983
  480SOL     OW 3307   3.331   7.938   8.751  0.2943 -0.5552 -0.3293
  480SOL    HW1 3308   3.427   7.942   8.747  0.3452 -0.3712  0.7616
  480SOL    HW2 3309   3.307   8.003   8.817 -0.5614 -0.8635 -0.3240
  481SOL     OW 3310   2.689   3.728   8.933  0.2373  0.2380  0.6243
  481SOL    HW1 3311   2.784   3.720   8.932  0.2760  0.1821  2.3409
  481SOL    HW2 3312   2.673   3.821   8.946  0.0307  0.3317 -0.2258
  482SOL     OW 3313   0.947   3.272   1.467  0.4782  0.2971  0.2466
  482SOL    HW1 3314   0.925   3.253   1.559  0.5763 -3.6063 -0.3780
  482SOL    HW2 3315   0.983   3.190   1.434  0.2124  1.4973 -3.3973
  483SOL     OW 3316   7.968   4.852   0.606 -0.1717 -0.0987  0.1376
  483SOL    HW1 3317   8.018   4.932   0.619  0.4479 -0.6242  1.1082
  483SOL    HW2 3318   8.033   4.783   0.603 -0.7286 -0.6173 -0.2783
  484SOL     OW 3319   6.181   3.781   8.544  0.5405  0.5507 -0.4875
  484SOL    HW1 3320   6.249   3.775   8.611 -1.4868 -0.6860  1.5973
  484SOL    HW2 3321   6.215   3.731   8.470  1.6778 -0.5450  0.7333
  485SOL     OW 3322   2.878   6.896   6.774 -0.0723 -0.5778 -0.5583
  485SOL    HW1 3323   2.952   6.893   6.714  0.3800  0.6890 -0.1038
  485SOL    HW2 3324   2.894   6.973   6.828 -1.4959 -0.5322 -0.1471
  486SOL     OW 3325   0.763   8.367   8.672  0.4320  0.1427 -0.0019
  486SOL    HW1 3326   0.714   8.285   8.671 -0.2689  0.5511  0.2363
  486SOL    HW2 3327   0.855   8.340   8.673  0.2194 -0.6292 -0.6123
  487SOL     OW 3328   8.008   3.096   5.568 -0.2748 -0.1164 -0.2110
  487SOL    HW1 3329   7.981   3.168   5.626 -2.1520 -0.7209 -0.2498
  487SOL    HW2 3330   7.973   3.121   5.482 -0.3229 -0.7440 -0.3767
  488SOL     OW 3331   5.992   2.290   0.871 -0.0624  0.0700  0.3656
  488SOL    HW1 3332   6.019   2.261   0.959 -0.7741 -2.7721 -0.2531
  488SOL    HW2 3333   6.074   2.309   0.826  0.3758  0.4174  1.2781
  489SOL     OW 3334   7.956   3.908   0.028 -0.2776  0.1155  0.5763
  489SOL    HW1 3335   7.917   3.858  -0.043 -1.1129  1.6071 -0.0603
  489SOL    HW2 3336   7.996   3.842   0.085  0.3038 -1.1087 -1.1891
  490SOL     OW 3337   2.824   8.906   4.639  0.1708 -0.1047 -0.0102
  490SOL    HW1 3338   2.741   8.864   4.616 -0.0743  0.0891  0.5007
  490SOL    HW2 3339   2.801   8.967   4.709  0.5588  0.7558 -0.6123
  491SOL     OW 3340   3.817   3.634   1.339 -0.2354 -0.1574  0.5642
  491SOL    HW1 3341   3.858   3.617   1.253 -1.5397 -1.5324  0.1673
  491SOL    HW2 3342   3.732   3.672   1.317 -0.8769 -1.1897  1.2045
  492SOL     OW 3343   2.606   7.333   3.926  0.0051  0.3167  0.1090
  492SOL    HW1 3344   2.565   7.272   3.864  1.7868 -0.1139 -0.7231
  492SOL    HW2 3345   2.700   7.317   3.915  0.4001  0.8720  2.2999
  493SOL     OW 3346   7.591   4.603   1.480  0.5836 -0.1765 -0.0319
  493SOL    HW1 3347   7.627   4.689   1.501 -0.9674  0.7586 -1.0821
  493SOL    HW2 3348   7.643   4.542   1.534  3.9143  0.9974 -1.5988
  494SOL     OW 3349   8.572   5.313   4.473 -0.3419 -0.0642 -0.0745
  494SOL    HW1 3350   8.550   5.342   4.385  0.3861 -1.2306 -0.6589
  494SOL    HW2 3351   8.512   5.241   4.491 -0.6964  0.3714  0.5100
  495SOL     OW 3352   2.722   6.553   7.092  0.0084  0.0460  0.2034
  495SOL    HW1 3353   2.637   6.555   7.048 -0.6124 -0.7465  1.2897
  495SOL    HW2 3354   2.709   6.606   7.171  0.0192 -1.3175  1.1600
  496SOL     OW 3355   6.245   7.841   0.106 -0.3077  0.2508 -0.4721
  496SOL    HW1 3356   6.205   7.898   0.041 -0.9600  0.1548 -0.1561
  496SOL    HW2 3357   6.245   7.892   0.187  0.0362  0.1776 -0.4210
  497SOL     OW 3358   7.043   8.022   7.093  0.6389  0.2488  0.1276
  497SOL    HW1 3359   7.050   8.018   7.189  1.4073 -1.9074  0.0424
  497SOL    HW2 3360   6.989   8.099   7.076 -0.9102 -0.2188  2.3803
  498SOL     OW 3361   7.121   6.585   6.752  0.4651  0.5127 -0.0464
  498SOL    HW1 3362   7.131   6.571   6.658 -0.1329  2.3959 -0.4347
  498SOL    HW2 3363   7.183   6.657   6.771  0.7874 -0.0423  1.0594
  499SOL     OW 3364   7.514   3.254   0.922 -0.2370  0.1819 -0.0983
  499SOL    HW1 3365   7.558   3.335   0.894 -0.2997  0.4504  0.5668
  499SOL    HW2 3366   7.525   3.253   1.017 -0.1454 -0.6497 -0.1145
  500SOL     OW 3367   0.472   5.565   8.908 -0.2088  0.3094 -0.1963
  500SOL    HW1 3368   0.522   5.485   8.922  1.8808  1.1158 -2.2840
  500SOL    HW2 3369   0.514   5.630   8.965 -0.5637  0.3890 -0.0241
  501SOL     OW 3370   1.431   8.239   0.705  0.4381  0.0881  0.1996
  501SOL    HW1 3371   1.522   8.231   0.678  0.2555  1.2157 -0.8421
  501SOL    HW2 3372   1.381   8.203   0.633  0.0451 -0.9072  0.9441
  502SOL     OW 3373   2.683   4.602   1.781  0.3603  0.3549  0.2491
  502SOL    HW1 3374   2.755   4.623   1.721  0.8107 -0.5452  0.4599
  502SOL    HW2 3375   2.700   4.654   1.859  2.6470 -2.1697  1.6227
  503SOL     OW 3376   0.338   5.852   6.897  0.4040 -0.4313  0.6759
  503SOL    HW1 3377   0.302   5.848   6.986  1.2379  0.4980  1.0685
  503SOL    HW2 3378   0.282   5.915   6.851  0.2880 -0.5235  0.6896
  504SOL     OW 3379   2.650   6.956   2.729 -0.1964 -0.2689 -0.1200
  504SOL    HW1 3380   2.717   6.890   2.748  0.8531  0.3878 -1.3503
  504SOL    HW2 3381   2.579   6.908   2.687  0.3969 -0.6877 -0.6613
  505SOL     OW 3382   1.155   0.238   6.192 -0.1625  0.1179 -0.3502
  505SOL    HW1 3383   1.236   0.221   6.144 -0.2431  0.0397 -0.4615
  505SOL    HW2 3384   1.147   0.333   6.192  0.8649  0.2495  1.2390
  506SOL     OW 3385   5.572   0.375   8.518 -0.2932  0.1707 -0.1616
  506SOL    HW1 3386   5.532   0.322   8.587  0.3963 -0.0199  0.0922
  506SOL    HW2 3387   5.651   0.328   8.493 -0.2692  0.4990 -0.7365
  507SOL     OW 3388   3.772   8.333   4.996  0.3179 -0.9095 -0.3475
  507SOL    HW1 3389   3.802   8.414   5.037  1.2308 -0.8558 -1.0754
  507SOL    HW2 3390   3.686   8.354   4.960 -0.0565 -0.6763  0.6447
  508SOL     OW 3391   5.169   8.356   8.641 -0.0206  0.4561 -0.1560
  508SOL    HW1 3392   5.218   8.275   8.627 -0.1090 -0.0732  2.1213
  508SOL    HW2 3393   5.237   8.423   8.653  0.0629  0.5716 -1.2259
  509SOL     OW 3394   1.349   8.303   5.178  0.3680 -0.2828 -0.1703
  509SOL    HW1 3395   1.413   8.362   5.137  1.2760  0.0807  1.6328
  509SOL    HW2 3396   1.402   8.241   5.228 -0.6414 -1.5291 -0.5955
  510SOL     OW 3397   6.941   4.721   1.470  0.4607 -0.1677  0.0909
  510SOL    HW1 3398   6.881   4.789   1.501  0.3102  0.0601 -0.6921
  510SOL    HW2 3399   6.992   4.698   1.548  0.5796  0.8991  0.3536
  511SOL     OW 3400   0.487   3.277   6.128 -0.2432 -0.0919  0.7141
  511SOL    HW1 3401   0.473   3.315   6.042 -0.9963 -0.5078  0.6424
  511SOL    HW2 3402   0.414   3.311   6.181 -0.8600 -1.3100  0.6777
  512SOL     OW 3403   2.729   6.290   6.131  0.5059  0.5923  0.5444
  512SOL    HW1 3404   2.806   6.347   6.125  1.5375 -0.6108  1.8568
  512SOL    HW2 3405   2.660   6.347   6.166  0.8496  1.5996 -0.3303
  513SOL     OW 3406   7.621   1.500   5.230  0.6888 -0.2766 -0.1113
  513SOL    HW1 3407   7.661   1.546   5.156 -0.4720  1.1926  0.1160
  513SOL    HW2 3408   7.528   1.500   5.211  0.3992 -0.1614  1.1887
  514SOL     OW 3409   2.241   7.584   8.820  0.5714 -0.3889  0.1808
  514SOL    HW1 3410   2.264   7.510   8.764 -0.4523 -2.7306  2.6764
  514SOL    HW2 3411   2.147   7.596   8.806  0.8099  0.8428 -0.5626
  515SOL     OW 3412   6.209   1.952   7.816 -0.0789  0.0465 -0.1949
  515SOL    HW1 3413   6.282   1.986   7.763 -0.5356  0.6279 -0.4565
  515SOL    HW2 3414   6.249   1.931   7.901  0.4789 -0.0468 -0.4751
  516SOL     OW 3415   8.856   7.446   7.195 -0.0385  0.2941  0.0537
  516SOL    HW1 3416   8.913   7.522   7.193  1.6205 -0.7162  2.6942
  516SOL    HW2 3417   8.775   7.477   7.233  0.6221  0.8023  1.1005
  517SOL     OW 3418   0.698   4.051   7.153  0.0515 -0.2429 -0.2616
  517SOL    HW1 3419   0.695   4.138   7.113  0.8135  0.8153  1.8208
  517SOL    HW2 3420   0.791   4.038   7.174 -0.0432 -1.5976 -0.5911
  518SOL     OW 3421   3.539   5.510   7.659 -0.6041 -0.4220  0.0382
  518SOL    HW1 3422   3.551   5.443   7.591  0.4343 -0.1628 -0.0501
  518SOL    HW2 3423   3.446   5.532   7.654 -0.8906 -1.5841 -0.1833
  519SOL     OW 3424   7.928   0.522   7.303 -0.1618  0.2135  0.5126
  519SOL    HW1 3425   7.962   0.567   7.226  0.2562 -1.3982 -0.2869
  519SOL    HW2 3426   8.005   0.495   7.352 -0.3571 -0.6643  0.3551
  520SOL     OW 3427   7.725   3.428   4.750  0.0689 -0.3265  0.4765
  520SOL    HW1 3428   7.708   3.470   4.834 -0.8985  0.7613 -0.2276
  520SOL    HW2 3429   7.721   3.499   4.686  0.3403 -1.1937 -0.5443
  521SOL     OW 3430   0.830   5.715   1.386 -0.2825 -0.0636 -0.0194
  521SOL    HW1 3431   0.792   5.801   1.367  0.5199 -0.1546 -2.2801
  521SOL    HW2 3432   0.764   5.672   1.440 -0.5672  2.0567  1.4590
  522SOL     OW 3433   7.114   5.872   1.234 -0.0810 -0.0467 -0.1681
  522SOL    HW1 3434   7.209   5.863   1.224 -0.2727  0.2703 -3.3738
  522SOL    HW2 3435   7.100   5.967   1.244 -0.0810 -0.0781  0.1433
  523SOL     OW 3436   5.813   8.953   5.585 -0.2564  0.7098 -0.0209
  523SOL    HW1 3437   5.786   8.866   5.557 -0.7165  1.3364 -1.6045
  523SOL    HW2 3438   5.747   8.979   5.649 -2.5607  1.5094 -2.5484
  524SOL     OW 3439   7.173   3.823   3.589 -0.2192  0.0443  0.3694
  524SOL    HW1 3440   7.167   3.919   3.590  0.0955  0.1965 -2.8673
  524SOL    HW2 3441   7.262   3.805   3.558 -0.2004 -1.3443  1.1316
  525SOL     OW 3442   5.960   7.257   0.182  0.3454 -0.4823  0.2935
  525SOL    HW1 3443   5.998   7.331   0.135 -1.4821  0.6719  0.5160
  525SOL    HW2 3444   6.033   7.197   0.195  1.3030 -0.0520 -2.4222
  526SOL     OW 3445   7.370   8.434   1.902  0.4847 -0.0504 -0.5300
  526SOL    HW1 3446   7.330   8.501   1.958  1.2629 -0.7624  0.9247
  526SOL    HW2 3447   7.313   8.430   1.825 -1.2165  0.2049  0.6751
  527SOL     OW 3448   0.159   6.151   8.775 -0.2626  0.0630 -0.3691
  527SOL    HW1 3449   0.121   6.236   8.751  0.0271 -0.3678 -2.5276
  527SOL    HW2 3450   0.090   6.107   8.825 -1.4805  0.4945 -1.6175
  528SOL     OW 3451   7.170   1.471   5.335 -0.2650  0.0017 -0.9308
  528SOL    HW1 3452   7.251   1.420   5.343 -1.0714 -1.3080 -0.6884
  528SOL    HW2 3453   7.177   1.514   5.250 -0.0286 -1.4439 -1.6873
  529SOL     OW 3454   8.327   2.234   8.153  0.4913  0.5871 -0.5212
  529SOL    HW1 3455   8.287   2.195   8.076  2.8196  0.5071 -1.7726
  529SOL    HW2 3456   8.337   2.327   8.132  0.0637  0.7931  0.1646
  530SOL     OW 3457   7.059   6.296   6.605  0.3674 -0.1393  0.5157
  530SOL    HW1 3458   7.081   6.214   6.560  1.1286 -0.0711  0.7585
  530SOL    HW2 3459   7.091   6.365   6.546  0.1625 -0.0212  0.5397
  531SOL     OW 3460   5.783   4.687   1.161  0.3211 -0.1542 -0.3546
  531SOL    HW1 3461   5.865   4.642   1.140  0.0083 -0.1300 -1.7194
  531SOL    HW2 3462   5.715   4.630   1.124 -0.2874 -0.1824  0.7825
  532SOL     OW 3463   8.430   4.490   8.809 -0.3448  0.8649  0.3608
  532SOL    HW1 3464   8.433   4.434   8.732  0.1776  1.1484  0.1740
  532SOL    HW2 3465   8.349   4.465   8.853 -0.0256 -0.1771  0.3841
  533SOL     OW 3466   1.522   7.770   1.929  0.1933  0.2747 -0.0056
  533SOL    HW1 3467   1.487   7.775   2.018 -0.9484 -0.2908 -0.3963
  533SOL    HW2 3468   1.610   7.734   1.940  0.1763  0.4791  0.9158
  534SOL     OW 3469   1.865   5.412   2.846  0.6274 -0.2003 -0.0622
  534SOL    HW1 3470   1.885   5.362   2.925  0.3628 -1.0024 -0.4942
  534SOL    HW2 3471   1.855   5.502   2.876 -0.0855 -0.5929  0.9089
  535SOL     OW 3472   5.301   6.857   6.664 -0.2044 -0.0492  0.6594
  535SOL    HW1 3473   5.215   6.900   6.668  1.3418  3.3009  1.5614
  535SOL    HW2 3474   5.331   6.872   6.574 -0.2120 -0.4811  0.5838
  536SOL     OW 3475   8.318   4.448   6.914  0.8939 -0.1414  0.0403
  536SOL    HW1 3476   8.257   4.435   6.986  0.5411  1.0383 -0.0341
  536SOL    HW2 3477   8.361   4.363   6.903  1.6773 -0.0939  2.2795
  537SOL     OW 3478   1.087   8.537   0.538 -0.2349 -0.1336 -0.5489
  537SOL    HW1 3479   1.180   8.516   0.548 -0.1645  0.0893 -0.7122
  537SOL    HW2 3480   1.046   8.506   0.618 -0.0328 -0.3164 -0.5160
  538SOL     OW 3481   2.658   0.258   1.016 -0.2631 -0.4771  0.5187
  538SOL    HW1 3482   2.735   0.205   1.038 -0.6495 -0.8303  1.0333
  538SOL    HW2 3483   2.626   0.290   1.100 -1.2548 -1.1407  0.4119
  539SOL     OW 3484   7.329   3.501   5.877  0.4739 -0.7323  0.2795
  539SOL    HW1 3485   7.327   3.459   5.963  1.1507 -0.1758  0.5786
  539SOL    HW2 3486   7.296   3.590   5.893  2.1028 -0.1020  0.2798
  540SOL     OW 3487   4.440   1.268   4.486  0.1760  0.0623 -0.0982
  540SOL    HW1 3488   4.428   1.174   4.475 -0.5035  0.0760  0.4823
  540SOL    HW2 3489   4.533   1.278   4.506  0.0636 -0.5897  0.8345
  541SOL     OW 3490   5.013   7.564   8.817 -0.0117 -0.4834 -0.1125
  541SOL    HW1 3491   5.088   7.505   8.818  2.8983  2.8573  1.0885
  541SOL    HW2 3492   5.036   7.631   8.753 -1.1969  1.4788  1.3935
  542SOL     OW 3493   6.541   4.224   1.814 -0.0047  0.0602  0.2435
  542SOL    HW1 3494   6.586   4.280   1.750 -0.5130  1.7015  1.2636
  542SOL    HW2 3495   6.611   4.184   1.864  0.3694  0.5150  0.0941
  543SOL     OW 3496   4.600   8.476   3.975 -0.2122 -0.7568 -0.7386
  543SOL    HW1 3497   4.537   8.480   4.047  0.7922 -0.9570  0.1690
  543SOL    HW2 3498   4.684   8.458   4.017  0.8387  1.5016 -1.7327
  544SOL     OW 3499   5.076   8.127   1.233  0.0153 -0.0398 -0.2375
  544SOL    HW1 3500   5.131   8.054   1.259 -0.0042  0.1934  0.4874
  544SOL    HW2 3501   5.115   8.204   1.275 -0.3893  0.2540 -0.3849
  545SOL     OW 3502   1.309   0.001   4.825 -0.0789 -0.4952 -0.2086
  545SOL    HW1 3503   1.283   0.030   4.913  0.0994 -2.4425  0.5253
  545SOL    HW2 3504   1.321   0.082   4.776 -1.5678  0.6183  1.1553
  546SOL     OW 3505   0.677   7.416   6.441  0.4219  0.0741  0.2027
  546SOL    HW1 3506   0.583   7.403   6.424 -0.1985  0.8902  2.6645
  546SOL    HW2 3507   0.680   7.476   6.515  2.9376  0.2760  0.0190
  547SOL     OW 3508   3.908   3.240   5.669 -0.2478  0.1539  0.3407
  547SOL    HW1 3509   3.877   3.150   5.684 -0.0142 -0.5644 -2.7887
  547SOL    HW2 3510   3.888   3.257   5.577  0.9100  2.8590  0.4979
  548SOL     OW 3511   3.900   2.512   4.278  0.7629  0.0447 -0.0947
  548SOL    HW1 3512   3.903   2.598   4.320  3.0259 -0.1245  0.1792
  548SOL    HW2 3513   3.957   2.457   4.331 -0.9315 -1.7921 -0.0346
  549SOL     OW 3514   4.981   6.805   4.244 -0.0552 -0.2769 -0.2599
  549SOL    HW1 3515   4.894   6.832   4.215  0.3446 -0.0104 -1.2377
  549SOL    HW2 3516   4.981   6.709   4.235 -0.5548 -0.3696  0.6332
  550SOL     OW 3517   1.116   8.123   6.215  0.4984  0.0948 -1.2016
  550SOL    HW1 3518   1.124   8.059   6.144  1.3649 -0.7600 -0.3614
  550SOL    HW2 3519   1.205   8.156   6.227  0.6677 -0.8886  0.4861
  551SOL     OW 3520   7.719   0.059   1.599  0.1350 -0.2555  0.3003
  551SOL    HW1 3521   7.721  -0.037   1.602 -1.2661 -0.3583 -0.8835
  551SOL    HW2 3522   7.689   0.086   1.686  2.3908 -0.7593  1.3020
  552SOL     OW 3523   2.378   3.438   7.585 -0.7261 -0.4053 -0.2557
  552SOL    HW1 3524   2.441   3.481   7.527 -0.4701 -0.7904 -0.2600
  552SOL    HW2 3525   2.297   3.487   7.571 -0.3248  0.3578  0.0710
  553SOL     OW 3526   5.908   6.738   3.883 -0.6903  0.0314  0.2828
  553SOL    HW1 3527   5.970   6.751   3.811 -1.7272 -0.3349 -0.7266
  553SOL    HW2 3528   5.887   6.645   3.880 -0.3185 -0.1061  1.4557
  554SOL     OW 3529   4.889   3.296   4.163 -0.0829 -0.3228  0.2179
  554SOL    HW1 3530   4.810   3.275   4.113  0.8486 -0.6005 -1.1813
  554SOL    HW2 3531   4.912   3.215   4.207 -0.3119 -0.3640  0.2643
  555SOL     OW 3532   8.376   0.025   7.772 -0.1087 -0.3624  0.5214
  555SOL    HW1 3533   8.441  -0.016   7.829 -0.3579  0.3301  1.3201
  555SOL    HW2 3534   8.304   0.049   7.830  0.0560  1.2534  0.0951
  556SOL     OW 3535   0.569   3.938   0.596  0.4915 -0.2587  0.2139
  556SOL    HW1 3536   0.590   4.020   0.640 -0.6067  0.8442 -1.2346
  556SOL    HW2 3537   0.524   3.885   0.663  0.3664  0.6928  0.8951
  557SOL     OW 3538   7.050   2.934   0.300 -0.1490 -0.6092 -0.7533
  557SOL    HW1 3539   7.111   2.960   0.231  0.6262  0.5077  0.3045
  557SOL    HW2 3540   6.999   2.863   0.262  0.0313  0.1904 -2.5789
  558SOL     OW 3541   6.236   7.382   8.428  0.0331 -0.1554 -0.0187
  558SOL    HW1 3542   6.275   7.390   8.514  0.7902  0.9816 -0.4491
  558SOL    HW2 3543   6.196   7.468   8.412 -1.0020 -0.6880 -0.3743
  559SOL     OW 3544   8.752   0.101   8.732  0.4994  0.0468  0.4330
  559SOL    HW1 3545   8.657   0.117   8.727  0.3060 -0.9603  0.4955
  559SOL    HW2 3546   8.760   0.031   8.796  1.3044  0.2047  0.5063
  560SOL     OW 3547   4.305   8.306   2.184 -0.2009  0.0576  0.4573
  560SOL    HW1 3548   4.263   8.350   2.110  0.3143 -0.8458 -0.3972
  560SOL    HW2 3549   4.398   8.307   2.162 -0.1450 -1.1170  0.5929
  561SOL     OW 3550   4.920   3.578   4.203 -0.1409  0.3925  0.5309
  561SOL    HW1 3551   4.832   3.608   4.180 -0.6670 -1.4430 -0.0220
  561SOL    HW2 3552   4.921   3.486   4.178  1.7302  0.2026  1.1614
  562SOL     OW 3553   0.720   4.041   4.282  0.1391  0.0414 -0.4910
  562SOL    HW1 3554   0.658   3.969   4.289  0.1345 -0.0038 -1.0100
  562SOL    HW2 3555   0.749   4.055   4.373  2.2494 -2.4779 -0.6373
  563SOL     OW 3556   8.954   6.085   3.633 -0.1332  0.2326  0.5376
  563SOL    HW1 3557   8.923   6.012   3.687  0.6126 -0.2155  0.3698
  563SOL    HW2 3558   8.892   6.089   3.560 -1.7141  1.4361  1.8637
  564SOL     OW 3559   3.305   7.958   0.149  0.5404  0.0459 -0.1973
  564SOL    HW1 3560   3.251   7.898   0.200 -0.1364 -1.0560 -2.1130
  564SOL    HW2 3561   3.393   7.921   0.152  0.2211 -0.7966 -0.9710
  565SOL     OW 3562   7.136   5.231   1.823  0.2981  0.3938 -0.1186
  565SOL    HW1 3563   7.172   5.302   1.770 -0.7381 -0.3681 -1.9526
  565SOL    HW2 3564   7.056   5.268   1.861 -0.0998  0.3296 -0.8595
  566SOL     OW 3565   6.919   6.746   3.998  0.3178  0.8391 -0.1749
  566SOL    HW1 3566   6.934   6.724   4.090 -0.1503  1.3465  0.0356
  566SOL    HW2 3567   6.968   6.827   3.985  0.6920  0.5637 -0.4800
  567SOL     OW 3568   1.099   5.557   2.012  0.7612  0.6795 -0.0907
  567SOL    HW1 3569   1.037   5.484   2.013  1.5735 -0.0456  2.1190
  567SOL    HW2 3570   1.137   5.555   1.924  1.7846 -2.4921  0.2906
  568SOL     OW 3571   8.373   6.330   6.503 -0.3010  0.9756  0.0859
  568SOL    HW1 3572   8.356   6.353   6.594  0.8032  1.5300  0.1748
  568SOL    HW2 3573   8.430   6.400   6.471  1.4602 -0.5235 -0.2575
  569SOL     OW 3574   4.849   4.400   2.276  0.1095  0.2287 -0.0182
  569SOL    HW1 3575   4.832   4.311   2.308 -2.1496  0.4788 -0.3695
  569SOL    HW2 3576   4.937   4.421   2.309 -0.4407 -1.0565  2.5160
  570SOL     OW 3577   8.687   5.235   3.192 -0.8412 -0.3568 -0.1330
  570SOL    HW1 3578   8.744   5.265   3.121  0.5368 -1.6515  0.3889
  570SOL    HW2 3579   8.728   5.269   3.272  0.5435 -3.1360  0.4417
  571SOL     OW 3580   5.818   6.646   7.158 -0.8300  0.3301  0.4969
  571SOL    HW1 3581   5.887   6.652   7.225  0.6474 -0.1731 -0.9086
  571SOL    HW2 3582   5.838   6.565   7.111 -1.6702  0.8104 -0.7151
  572SOL     OW 3583   2.428   6.566   1.339 -0.4334 -0.3306 -0.3389
  572SOL    HW1 3584   2.437   6.478   1.303  0.5551 -0.4979  0.2808
  572SOL    HW2 3585   2.492   6.619   1.291 -1.4626  0.2095 -1.1544
  573SOL     OW 3586   6.426   4.495   8.418 -0.4982 -0.2953  0.1337
  573SOL    HW1 3587   6.413   4.574   8.366  0.7029  0.2240  0.5899
  573SOL    HW2 3588   6.485   4.441   8.365  1.2218  0.4954  1.1621
  574SOL     OW 3589   7.293   7.172   8.469  0.1641  0.0008  0.0902
  574SOL    HW1 3590   7.334   7.245   8.516 -1.6253  1.0556  0.1304
  574SOL    HW2 3591   7.344   7.163   8.389  0.6982  1.0114  0.2984
  575SOL     OW 3592   6.921   2.976   3.432  0.4994 -0.2375  0.0836
  575SOL    HW1 3593   6.923   3.071   3.415  0.7891 -0.1229  0.7333
  575SOL    HW2 3594   7.002   2.943   3.394  0.0784 -0.3325 -0.7429
  576SOL     OW 3595   7.928   5.204   8.101 -0.7315  0.0801  0.1517
  576SOL    HW1 3596   7.916   5.216   8.195 -1.1907  1.1444 -0.0190
  576SOL    HW2 3597   7.917   5.111   8.086  0.0637 -0.2037  1.2476
  577SOL     OW 3598   2.361   3.407   6.239  0.0161  0.2646  0.6348
  577SOL    HW1 3599   2.359   3.501   6.254  0.4906  0.4979 -0.7116
  577SOL    HW2 3600   2.296   3.392   6.170  0.1984 -0.3555  0.5903
  578SOL     OW 3601   2.140   4.866   0.560 -0.1345  0.3272  0.2133
  578SOL    HW1 3602   2.179   4.781   0.580 -0.0317  0.2336 -0.3717
  578SOL    HW2 3603   2.195   4.930   0.606  0.0444  0.1089  0.3016
  579SOL     OW 3604   8.364   0.759   1.929  0.5104 -0.3088  0.3613
  579SOL    HW1 3605   8.368   0.853   1.914  1.0439 -0.6389 -2.0706
  579SOL    HW2 3606   8.440   0.725   1.882  0.3054 -1.9557  1.1687
  580SOL     OW 3607   3.996   8.842   5.046  0.5351 -0.2686 -0.5317
  580SOL    HW1 3608   3.903   8.840   5.026  0.3779  1.4687 -0.1619
  580SOL    HW2 3609   4.005   8.793   5.128 -0.3950  1.2522  0.5275
  581SOL     OW 3610   8.812   4.347   5.394 -0.0013  0.1920  0.2781
  581SOL    HW1 3611   8.885   4.311   5.343  0.2125  1.2006 -0.1466
  581SOL    HW2 3612   8.789   4.428   5.349 -0.6778  0.4302  1.0407
  582SOL     OW 3613   5.037   8.145   7.046  0.0079  0.2965 -0.1887
  582SOL    HW1 3614   5.062   8.065   6.999  2.4565  0.4051  0.8052
  582SOL    HW2 3615   5.008   8.113   7.132  0.8976  0.4623  0.1759
  583SOL     OW 3616   5.579   6.763   3.476 -0.2853 -0.6380  0.0291
  583SOL    HW1 3617   5.534   6.792   3.397 -0.0808  1.4942  0.6272
  583SOL    HW2 3618   5.521   6.697   3.515 -1.2258 -0.4184 -0.9618
  584SOL     OW 3619   3.119   4.787   7.169  0.0078  0.3847  0.1354
  584SOL    HW1 3620   3.127   4.774   7.263 -0.9350 -0.4771  0.1151
  584SOL    HW2 3621   3.027   4.810   7.155  0.0392  0.1025 -0.6085
  585SOL     OW 3622   7.652   6.497   6.164  0.2020  0.5914  0.2637
  585SOL    HW1 3623   7.710   6.502   6.088 -0.2087  1.7041  0.0083
  585SOL    HW2 3624   7.695   6.434   6.223  1.0360  0.4800 -0.4433
  586SOL     OW 3625   1.124   6.507   7.098 -0.2488  0.9349  0.1486
  586SOL    HW1 3626   1.093   6.569   7.032  0.8622  3.1764  1.5756
  586SOL    HW2 3627   1.204   6.547   7.133  0.0465 -0.9001  1.7823
  587SOL     OW 3628   0.258   0.603   8.768  0.4050 -0.6131 -0.1503
  587SOL    HW1 3629   0.349   0.604   8.799  0.2655 -0.1492  0.2354
  587SOL    HW2 3630   0.265   0.627   8.675  0.4927  1.4680  0.3557
  588SOL     OW 3631   1.782   5.900   4.663 -0.0569 -0.3550 -0.4180
  588SOL    HW1 3632   1.792   5.952   4.742  0.8263 -0.8897 -0.1731
  588SOL    HW2 3633   1.701   5.851   4.677  0.2147 -0.6211  0.2619
  589SOL     OW 3634   3.073   8.165   4.614 -0.2060 -0.1364  0.1800
  589SOL    HW1 3635   3.101   8.074   4.608  0.0757 -0.1006  0.7946
  589SOL    HW2 3636   3.129   8.202   4.682 -0.6533  0.3673  0.2776
  590SOL     OW 3637   3.023   0.930   8.590 -0.5174 -0.4740  0.6866
  590SOL    HW1 3638   3.004   0.982   8.512 -1.9786 -0.9914  0.6759
  590SOL    HW2 3639   2.939   0.919   8.633  0.1926 -0.6093  2.0971
  591SOL     OW 3640   6.264   0.143   4.252 -0.1650  0.3030  0.5368
  591SOL    HW1 3641   6.318   0.125   4.330 -1.5098  0.7983  1.6178
  591SOL    HW2 3642   6.296   0.227   4.220 -0.0365  0.4135  0.9419
  592SOL     OW 3643   8.715   4.764   5.072  0.2826  0.7394  0.0597
  592SOL    HW1 3644   8.744   4.676   5.095  0.0374  0.4519 -0.7263
  592SOL    HW2 3645   8.754   4.780   4.986  0.3964  1.4338  0.2365
  593SOL     OW 3646   7.250   7.760   8.435 -0.4014  0.2055 -0.3062
  593SOL    HW1 3647   7.307   7.724   8.367 -1.4416  0.1373 -1.1734
  593SOL    HW2 3648   7.238   7.851   8.410  0.5495  0.6444  0.7372
  594SOL     OW 3649   5.777   8.167   0.853 -0.4487 -0.3253 -0.2571
  594SOL    HW1 3650   5.840   8.095   0.855  1.5524  1.3420 -0.4247
  594SOL    HW2 3651   5.829   8.243   0.828 -1.8622  1.7853  2.7307
  595SOL     OW 3652   1.526   3.130   2.928  0.0025 -0.4050  0.5688
  595SOL    HW1 3653   1.441   3.093   2.952 -1.4986  2.5269  0.2118
  595SOL    HW2 3654   1.567   3.062   2.874 -3.6177 -0.7618 -2.1829
  596SOL     OW 3655   6.079   2.764   4.946  0.9643  0.1282  0.2798
  596SOL    HW1 3656   6.112   2.712   5.018  2.0985 -1.5411 -1.3679
  596SOL    HW2 3657   6.078   2.705   4.871 -0.6061  1.6535 -0.9990
  597SOL     OW 3658   8.748   0.616   0.772 -0.1478  0.2563  0.3809
  597SOL    HW1 3659   8.821   0.646   0.719  0.2806  0.4007  1.0341
  597SOL    HW2 3660   8.675   0.671   0.746 -0.0247  0.1162 -0.2735
  598SOL     OW 3661   8.861   0.612   6.744  0.2537 -0.3577  0.2212
  598SOL    HW1 3662   8.855   0.594   6.650 -0.1981 -0.1508  0.2085
  598SOL    HW2 3663   8.863   0.707   6.750 -2.5169 -0.2437  0.5511
  599SOL     OW 3664   1.333   2.770   7.496  0.2927 -0.2932 -0.0415
  599SOL    HW1 3665   1.238   2.772   7.507  0.5966 -0.3625  3.7125
  599SOL    HW2 3666   1.358   2.862   7.485 -0.1699 -0.2992 -1.3361
  600SOL     OW 3667   6.607   0.427   6.547 -0.5369  0.6318  0.0770
  600SOL    HW1 3668   6.655   0.370   6.486 -0.2219  0.4474  0.4919
  600SOL    HW2 3669   6.552   0.367   6.598 -1.5623  0.8835 -0.6947
  601SOL     OW 3670   7.284   6.812   1.884 -0.1511  0.3311  0.5726
  601SOL    HW1 3671   7.328   6.770   1.958  0.5497 -0.2697 -0.1522
  601SOL    HW2 3672   7.309   6.904   1.890  1.5371 -0.0482  0.0025
  602SOL     OW 3673   6.465   6.563   2.428 -0.1333 -0.1818 -0.3496
  602SOL    HW1 3674   6.418   6.481   2.415  0.1625 -0.4165  0.0516
  602SOL    HW2 3675   6.533   6.542   2.492  1.5343 -0.2758 -2.0430
  603SOL     OW 3676   2.284   7.949   2.909  0.0929 -0.1200  0.4345
  603SOL    HW1 3677   2.315   8.002   2.835  0.4713 -1.1076 -0.1367
  603SOL    HW2 3678   2.219   8.004   2.952  0.1472  0.6277 -0.4060
  604SOL     OW 3679   8.156   4.426   0.946  0.8797  0.0204 -0.2026
  604SOL    HW1 3680   8.153   4.508   0.896  0.1250 -0.5100 -1.0636
  604SOL    HW2 3681   8.081   4.432   1.006 -0.3689 -0.8302 -1.6023
  605SOL     OW 3682   8.746   8.041   2.608  0.0668  0.0324 -0.3308
  605SOL    HW1 3683   8.652   8.056   2.620 -0.1286 -0.3176 -1.3373
  605SOL    HW2 3684   8.760   8.049   2.514  0.7657 -1.4679 -0.3810
  606SOL     OW 3685   5.961   6.162   8.914  0.0375  0.0155 -0.4602
  606SOL    HW1 3686   5.868   6.140   8.912 -0.6007  2.4071  0.1610
  606SOL    HW2 3687   5.980   6.192   8.825 -0.6782  2.5564  0.1490
  607SOL     OW 3688   7.344   3.847   6.881 -0.4942  0.1800  0.2783
  607SOL    HW1 3689   7.430   3.846   6.841 -0.5017 -1.1825  0.2407
  607SOL    HW2 3690   7.284   3.826   6.810 -0.9256  1.5277  0.2130
  608SOL     OW 3691   3.797   3.544   3.305  0.4095  0.1079  0.2165
  608SOL    HW1 3692   3.788   3.629   3.347 -0.2712 -0.3855  1.1088
  608SOL    HW2 3693   3.811   3.564   3.212  1.5168  1.2072  0.5881
  609SOL     OW 3694   0.323   5.789   5.265 -0.3237  0.6510 -0.8880
  609SOL    HW1 3695   0.320   5.859   5.200 -0.5465  0.3537 -1.2028
  609SOL    HW2 3696   0.273   5.718   5.226  0.6058  0.0021 -0.9462
  610SOL     OW 3697   3.508   7.161   1.424  0.2277 -0.1299  0.3176
  610SOL    HW1 3698   3.436   7.099   1.438 -0.2920  0.8285  2.1301
  610SOL    HW2 3699   3.582   7.122   1.470  0.2186  0.0321  0.4692
  611SOL     OW 3700   7.700   2.911   4.635 -0.5164  0.7907 -0.8288
  611SOL    HW1 3701   7.787   2.931   4.601  0.2367 -0.4971  0.2701
  611SOL    HW2 3702   7.681   2.823   4.601 -0.9465  0.6451 -0.2204
  612SOL     OW 3703   0.260   1.594   0.550  0.2540  0.1436  0.2248
  612SOL    HW1 3704   0.293   1.540   0.479 -0.8440 -0.6628  0.3093
  612SOL    HW2 3705   0.332   1.654   0.570  1.2806 -0.8899 -0.2641
  613SOL     OW 3706   0.810   2.175   8.799 -0.3201  0.7364 -0.1942
  613SOL    HW1 3707   0.855   2.124   8.866 -0.0255  1.2764  0.0233
  613SOL    HW2 3708   0.722   2.138   8.796 -0.2099  0.4367  0.1907
  614SOL     OW 3709   0.738   7.359   0.874  0.1672  0.1504 -0.3082
  614SOL    HW1 3710   0.656   7.397   0.907 -1.0418 -2.3838 -0.1438
  614SOL    HW2 3711   0.714   7.323   0.788  0.7864 -1.5735  0.2124
  615SOL     OW 3712   5.628   5.688   4.168  0.3732 -0.0708 -0.0004
  615SOL    HW1 3713   5.612   5.669   4.261  0.4842  1.5095  0.3718
  615SOL    HW2 3714   5.682   5.614   4.138  2.0818  0.3609  1.7432
  616SOL     OW 3715   4.445   6.605   3.258  0.5518 -0.1081  0.6559
  616SOL    HW1 3716   4.447   6.594   3.163 -0.2087  0.0369  0.6224
  616SOL    HW2 3717   4.389   6.533   3.289 -1.0672  1.1601  0.7931
  617SOL     OW 3718   0.917   4.159   2.446  0.0242 -0.1760  0.4182
  617SOL    HW1 3719   0.935   4.080   2.497  1.4662 -0.7851 -0.9686
  617SOL    HW2 3720   0.943   4.231   2.504 -0.4697 -0.7262  1.3596
  618SOL     OW 3721   6.759   3.009   8.275  0.3987 -0.5928 -0.6821
  618SOL    HW1 3722   6.762   3.036   8.367  0.9218 -2.3954 -0.1413
  618SOL    HW2 3723   6.705   2.930   8.274 -0.2027 -0.2031 -2.0531
  619SOL     OW 3724   1.100   7.893   7.159  0.2926  0.1374 -0.2953
  619SOL    HW1 3725   1.068   7.982   7.147  0.5841  0.2144 -0.5262
  619SOL    HW2 3726   1.140   7.893   7.245 -0.8452 -0.1189  0.2476
  620SOL     OW 3727   3.552   7.508   1.716 -0.3828  0.1160  0.6620
  620SOL    HW1 3728   3.626   7.550   1.673  0.0720 -1.2551  0.0235
  620SOL    HW2 3729   3.585   7.483   1.802 -0.7519  1.3082  1.1649
  621SOL     OW 3730   7.118   7.536   5.881  0.6276 -0.2253 -0.1163
  621SOL    HW1 3731   7.050   7.486   5.836  1.3694 -0.7178 -0.7084
  621SOL    HW2 3732   7.178   7.564   5.811 -0.4740  2.7007 -0.0198
  622SOL     OW 3733   3.875   8.914   5.750 -0.5759 -0.0666  0.2138
  622SOL    HW1 3734   3.873   8.833   5.800  1.3978 -0.5060 -0.3425
  622SOL    HW2 3735   3.908   8.889   5.664  1.3885  1.4836  0.4367
  623SOL     OW 3736   8.164   0.031   1.366  0.3034 -0.6928  0.0118
  623SOL    HW1 3737   8.161  -0.045   1.308  1.8407 -2.4472  2.0773
  623SOL    HW2 3738   8.242   0.080   1.339  0.9378 -1.4333  0.4683
  624SOL     OW 3739   1.563   8.731   8.346  0.1237 -0.0103  0.0460
  624SOL    HW1 3740   1.630   8.701   8.285  0.0089 -1.2085  0.4926
  624SOL    HW2 3741   1.597   8.708   8.433 -0.7918 -0.5017  0.2821
  625SOL     OW 3742   8.046   3.060   5.096  0.1725 -0.0491  0.7579
  625SOL    HW1 3743   8.128   3.097   5.065 -0.4117 -0.2018 -1.0700
  625SOL    HW2 3744   7.982   3.130   5.084 -0.5295 -0.9078 -0.7187
  626SOL     OW 3745   4.029   7.932   3.492  0.4472  0.1525  0.2575
  626SOL    HW1 3746   4.107   7.945   3.438 -0.0476 -0.4025 -0.6215
  626SOL    HW2 3747   3.965   7.995   3.459 -0.2391 -0.9524 -0.6013
  627SOL     OW 3748   1.683   3.441   7.700  0.1791  0.0576  0.1642
  627SOL    HW1 3749   1.709   3.462   7.610 -0.1053 -0.6646 -0.0870
  627SOL    HW2 3750   1.644   3.522   7.732  1.7951  0.8623  0.2160
  628SOL     OW 3751   8.814   5.263   3.876 -0.9303 -0.6033 -0.5200
  628SOL    HW1 3752   8.785   5.295   3.791 -1.5938  0.4886  0.0980
  628SOL    HW2 3753   8.738   5.215   3.910 -0.8656 -0.5491 -0.3008
  629SOL     OW 3754   7.190   7.600   3.026 -0.0622  0.3097 -0.2129
  629SOL    HW1 3755   7.147   7.680   2.998 -0.8225  0.0953  0.3068
  629SOL    HW2 3756   7.276   7.602   2.984  0.0775  1.5789  0.0986
  630SOL     OW 3757   0.854   4.201   6.845  0.1543  0.4542  0.1650
  630SOL    HW1 3758   0.898   4.197   6.930  0.2633 -0.8470  0.0733
  630SOL    HW2 3759   0.774   4.252   6.862  0.2946  0.4101  0.9948
  631SOL     OW 3760   7.364   6.991   7.376  0.5019  0.4275 -0.4608
  631SOL    HW1 3761   7.354   6.971   7.283  2.0265 -2.0896 -0.1983
  631SOL    HW2 3762   7.312   6.925   7.420 -0.9222  2.1413  0.5309
  632SOL     OW 3763   5.607   3.720   1.634 -0.5692 -0.2305 -0.0209
  632SOL    HW1 3764   5.581   3.628   1.631  0.5663 -0.5417 -1.1987
  632SOL    HW2 3765   5.691   3.719   1.680 -0.5883  0.2165  0.0208
  633SOL     OW 3766   2.438   2.157   8.027  0.2569 -0.5020  0.2053
  633SOL    HW1 3767   2.528   2.156   7.994  0.0692 -1.7658 -0.3396
  633SOL    HW2 3768   2.388   2.108   7.961 -0.4370 -1.6757  1.5584
  634SOL     OW 3769   3.162   6.144   5.238 -0.5777  0.3950 -0.5053
  634SOL    HW1 3770   3.126   6.201   5.170 -0.4704  2.1104  0.8114
  634SOL    HW2 3771   3.131   6.056   5.214 -2.5215  1.2755 -1.4630
  635SOL     OW 3772   8.007   1.082   3.721  0.2572  0.5464  0.1501
  635SOL    HW1 3773   7.934   1.129   3.763 -0.0067  0.0973  0.2007
  635SOL    HW2 3774   8.046   1.147   3.662 -0.8738  0.4795 -0.7169
  636SOL     OW 3775   6.212   6.959   2.554  0.3695 -0.3787 -0.0802
  636SOL    HW1 3776   6.129   6.973   2.509 -0.4402 -0.2041  1.3979
  636SOL    HW2 3777   6.272   6.928   2.486  0.1801  3.0044 -2.0050
  637SOL     OW 3778   4.030   8.912   7.824 -0.5217 -0.3507 -0.3660
  637SOL    HW1 3779   4.068   8.987   7.778 -0.6766 -0.0197  0.0387
  637SOL    HW2 3780   3.981   8.865   7.756 -0.7074  0.1038 -0.5525
  638SOL     OW 3781   7.810   5.602   2.568  0.4457  0.2021 -0.2017
  638SOL    HW1 3782   7.752   5.663   2.615  1.3003  0.4835  0.5230
  638SOL    HW2 3783   7.894   5.612   2.611  0.3714 -2.3174  0.6525
  639SOL     OW 3784   7.302   0.895   4.276  0.2984  0.1673 -0.2554
  639SOL    HW1 3785   7.217   0.874   4.238  0.5612  0.4501 -1.0240
  639SOL    HW2 3786   7.284   0.964   4.340 -0.2066 -0.5906  0.4409
  640SOL     OW 3787   7.667   4.096   3.986 -0.5996  0.1305  0.0935
  640SOL    HW1 3788   7.706   4.009   3.979  0.9073  0.6606  1.2868
  640SOL    HW2 3789   7.706   4.146   3.914 -1.2317 -0.0889 -0.4066
  641SOL     OW 3790   1.757   3.763   4.525  0.4701  0.1473 -0.1205
  641SOL    HW1 3791   1.698   3.838   4.534  0.2652  0.1263 -1.1351
  641SOL    HW2 3792   1.794   3.772   4.437 -1.1499 -2.0438 -1.1405
  642SOL     OW 3793   5.886   5.510   5.691 -0.1800 -0.1164  0.1692
  642SOL    HW1 3794   5.812   5.569   5.676 -0.6287 -0.5492  0.6299
  642SOL    HW2 3795   5.893   5.503   5.786 -0.4930 -1.2185  0.1320
  643SOL     OW 3796   3.713   2.068   5.160 -0.4556  0.1143 -0.4074
  643SOL    HW1 3797   3.621   2.062   5.134 -0.5317  0.5887 -0.2422
  643SOL    HW2 3798   3.718   2.145   5.215  0.3523  1.0297 -1.7112
  644SOL     OW 3799   6.276   2.366   6.776 -0.2073  0.3450 -0.3764
  644SOL    HW1 3800   6.219   2.317   6.835 -0.1918 -1.4754 -1.8137
  644SOL    HW2 3801   6.223   2.440   6.747 -0.9426  0.0766  0.2649
  645SOL     OW 3802   4.109   4.379   2.396  0.4468  0.5127  0.0834
  645SOL    HW1 3803   4.122   4.330   2.478  0.6517  2.0088  0.9889
  645SOL    HW2 3804   4.181   4.351   2.340  2.7325  2.3247  1.9011
  646SOL     OW 3805   0.604   2.031   0.077  0.0202 -0.5306 -0.2812
  646SOL    HW1 3806   0.689   2.047   0.036  1.1100 -0.9543  1.7165
  646SOL    HW2 3807   0.609   2.074   0.162 -1.8966 -0.3068 -0.2209
  647SOL     OW 3808   3.224   5.893   3.987 -0.6028  0.1190 -0.6068
  647SOL    HW1 3809   3.286   5.907   3.916  0.0894  0.2449  0.0132
  647SOL    HW2 3810   3.267   5.829   4.044 -1.1627 -0.0059 -0.3167
  648SOL     OW 3811   5.410   1.606   5.970 -0.1797 -0.0420  0.0817
  648SOL    HW1 3812   5.325   1.604   6.013  0.4475  1.3674  1.5057
  648SOL    HW2 3813   5.457   1.531   6.008 -1.1652 -1.6811 -1.7286
  649SOL     OW 3814   4.668   3.029   8.685 -0.0281 -0.4981  0.6306
  649SOL    HW1 3815   4.614   3.062   8.613 -2.3011 -1.4044  1.8136
  649SOL    HW2 3816   4.732   2.973   8.643  0.4284  1.0875 -0.8991
  650SOL     OW 3817   3.528   6.744   0.741 -0.0004 -0.0717  0.2191
  650SOL    HW1 3818   3.539   6.819   0.799 -0.5976 -0.4977  0.9041
  650SOL    HW2 3819   3.609   6.739   0.692  0.2117  0.7644  0.4745
  651SOL     OW 3820   4.694   4.624   5.468 -0.6756  0.4111 -0.2113
  651SOL    HW1 3821   4.759   4.694   5.470  0.6702 -0.7943  0.3737
  651SOL    HW2 3822   4.674   4.612   5.375 -0.7464  1.3908 -0.3299
  652SOL     OW 3823   1.272   4.917   7.365  0.2407 -0.5203 -0.2026
  652SOL    HW1 3824   1.313   4.904   7.279  0.3575  1.1935 -0.4432
  652SOL    HW2 3825   1.197   4.974   7.346 -0.6273 -1.3485  0.6349
  653SOL     OW 3826   3.842   6.963   2.569 -0.0737 -0.3841  0.2182
  653SOL    HW1 3827   3.806   6.900   2.507  1.2053 -1.0975  0.1715
  653SOL    HW2 3828   3.868   6.911   2.645  0.4853  0.1512  0.4097
  654SOL     OW 3829   4.114   6.072   3.513  0.1766  0.0203 -0.2828
  654SOL    HW1 3830   4.067   6.124   3.578 -0.9109 -0.3958 -0.7202
  654SOL    HW2 3831   4.111   6.124   3.433 -1.1485 -0.8102 -0.7936
  655SOL     OW 3832   7.222   8.419   8.132  0.4211 -0.5454 -0.0079
  655SOL    HW1 3833   7.277   8.480   8.081  1.5974 -1.9345 -0.4616
  655SOL    HW2 3834   7.244   8.333   8.098 -0.3357 -1.3465  1.4468
  656SOL     OW 3835   7.216   6.337   0.041  0.1054  0.3079 -0.6193
  656SOL    HW1 3836   7.261   6.380   0.114 -1.2177  0.3832  0.1865
  656SOL    HW2 3837   7.270   6.356  -0.035  2.4458 -1.1473  0.5501
  657SOL     OW 3838   6.112   5.340   7.958  0.3977  0.3554  0.5018
  657SOL    HW1 3839   6.073   5.326   7.872 -1.3072 -0.4319  1.3521
  657SOL    HW2 3840   6.140   5.431   7.957  0.2979  0.3919 -0.8245
  658SOL     OW 3841   4.346   6.676   6.644  0.1796  0.1828  0.5458
  658SOL    HW1 3842   4.353   6.694   6.738  0.1575 -0.7928  0.7470
  658SOL    HW2 3843   4.415   6.612   6.627  0.8358  1.1011 -0.3156
  659SOL     OW 3844   2.718   0.436   0.774 -0.0789  0.0319 -0.3798
  659SOL    HW1 3845   2.805   0.396   0.771 -0.9725 -2.0286 -0.5809
  659SOL    HW2 3846   2.690   0.425   0.865 -1.4023 -2.3547 -1.0076
  660SOL     OW 3847   3.022   3.354   2.154 -0.2606 -0.1049 -0.0037
  660SOL    HW1 3848   2.966   3.431   2.163  1.1583  0.9531  0.1634
  660SOL    HW2 3849   3.111   3.388   2.164  0.4198 -1.7337 -0.2084
  661SOL     OW 3850   7.437   3.600   0.106  0.5715 -0.0468  0.4373
  661SOL    HW1 3851   7.503   3.551   0.057 -1.9522 -1.6613 -1.6377
  661SOL    HW2 3852   7.397   3.534   0.164  0.5474  0.8381  1.4588
  662SOL     OW 3853   4.132   1.086   0.516 -0.2922  0.1201 -0.0976
  662SOL    HW1 3854   4.047   1.127   0.500  0.2626  1.4988  0.3684
  662SOL    HW2 3855   4.127   1.002   0.471 -0.7735  1.4763 -2.7893
  663SOL     OW 3856   6.111   6.066   1.913 -0.1468  0.5077  0.2200
  663SOL    HW1 3857   6.182   6.010   1.883  0.2216  0.4073  1.2560
  663SOL    HW2 3858   6.039   6.048   1.851  0.3067 -0.3248 -0.0846
  664SOL     OW 3859   2.927   7.609   0.085 -0.6859  0.2720  0.2743
  664SOL    HW1 3860   2.937   7.520   0.050  0.9934  0.9186 -1.0565
  664SOL    HW2 3861   2.860   7.649   0.030 -0.9646  0.0291  0.4376
  665SOL     OW 3862   7.092   6.157   7.161  0.1130  0.3978 -0.3681
  665SOL    HW1 3863   7.043   6.180   7.240  1.6973  0.6060  0.5839
  665SOL    HW2 3864   7.125   6.240   7.128  0.0110  0.2379 -0.8729
  666SOL     OW 3865   4.043   2.974   3.355  0.3621  0.6215 -0.3789
  666SOL    HW1 3866   4.000   2.999   3.274  0.6053 -1.3601 -1.1887
  666SOL    HW2 3867   4.108   2.909   3.328 -0.4544 -1.0982  1.4916
  667SOL     OW 3868   5.849   6.453   3.883 -0.4800 -0.2406 -0.2505
  667SOL    HW1 3869   5.775   6.452   3.823  0.7690  2.0231 -1.9874
  667SOL    HW2 3870   5.914   6.396   3.842 -0.7092 -1.1114  0.5596
  668SOL     OW 3871   7.006   0.226   6.225  0.4531  0.1152  0.3468
  668SOL    HW1 3872   6.943   0.279   6.274 -1.2359 -0.9120 -0.5718
  668SOL    HW2 3873   7.016   0.146   6.278  0.2034 -0.1347  0.0227
  669SOL     OW 3874   8.240   2.325   5.416 -0.3254  0.1255  0.2180
  669SOL    HW1 3875   8.290   2.246   5.438  0.3838  1.2226  2.9438
  669SOL    HW2 3876   8.305   2.393   5.404 -0.9376  0.3892 -2.1148
  670SOL     OW 3877   6.043   8.759   7.589 -0.0525  0.6627 -0.2737
  670SOL    HW1 3878   5.952   8.746   7.616  0.8118  0.7102  3.0472
  670SOL    HW2 3879   6.072   8.673   7.559 -0.3249 -0.1886  1.7547
  671SOL     OW 3880   3.351   8.135   6.993 -0.5717 -0.1830 -0.4350
  671SOL    HW1 3881   3.297   8.147   6.915 -1.2066  1.5406  0.2234
  671SOL    HW2 3882   3.441   8.153   6.964 -0.5761 -1.1781 -1.1071
  672SOL     OW 3883   4.497   4.543   3.265 -0.3541 -0.2952 -0.5934
  672SOL    HW1 3884   4.517   4.561   3.357  2.0570  0.0555 -1.1127
  672SOL    HW2 3885   4.432   4.609   3.242 -0.4588  0.0796  0.6624
  673SOL     OW 3886   5.761   3.762   3.290  0.0719 -0.1100 -0.9151
  673SOL    HW1 3887   5.835   3.818   3.270  0.6330  0.0370  1.3115
  673SOL    HW2 3888   5.685   3.820   3.283  0.7026  1.2555  2.0629
  674SOL     OW 3889   6.311   4.286   6.634  0.1753  0.2010  0.1140
  674SOL    HW1 3890   6.284   4.202   6.596  1.1547 -0.2096  0.3068
  674SOL    HW2 3891   6.349   4.334   6.560  0.0386  0.2952  0.1041
  675SOL     OW 3892   5.457   5.474   0.366 -0.0547 -0.5238 -0.2123
  675SOL    HW1 3893   5.506   5.442   0.442  1.0205  0.8461 -0.3060
  675SOL    HW2 3894   5.366   5.478   0.396  0.1490 -1.2821  0.5574
  676SOL     OW 3895   5.049   3.045   7.582 -0.1032  0.0033 -0.7506
  676SOL    HW1 3896   5.123   3.104   7.593  0.2788 -0.8145  1.7602
  676SOL    HW2 3897   4.977   3.087   7.629 -0.7266 -0.0912 -1.5962
  677SOL     OW 3898   5.387   6.843   5.297 -0.0134  0.2085 -0.2281
  677SOL    HW1 3899   5.310   6.881   5.254  0.0834  0.3463 -0.2810
  677SOL    HW2 3900   5.427   6.917   5.342 -0.2935  0.0031  0.3637
  678SOL     OW 3901   8.392   8.143   4.270 -0.0699 -0.2054  0.4197
  678SOL    HW1 3902   8.373   8.156   4.177 -1.2308  0.0653  0.6737
  678SOL    HW2 3903   8.406   8.232   4.304 -0.6483 -0.2089  0.6884
  679SOL     OW 3904   3.874   7.264   6.177  0.6322 -0.1936 -0.0569
  679SOL    HW1 3905   3.940   7.310   6.227  0.1669 -0.7080  1.0602
  679SOL    HW2 3906   3.898   7.172   6.184 -0.4101 -0.4217  0.7028
  680SOL     OW 3907   7.548   8.727   3.185  0.1739 -0.0182  0.0510
  680SOL    HW1 3908   7.460   8.692   3.172  0.8493 -1.4766 -0.7816
  680SOL    HW2 3909   7.564   8.781   3.107 -0.3489  1.1139  0.6968
  681SOL     OW 3910   5.259   2.226   1.913  0.2178  0.1927  0.1911
  681SOL    HW1 3911   5.279   2.320   1.909 -2.1147  0.7194 -0.4978
  681SOL    HW2 3912   5.166   2.222   1.936 -0.0670 -1.9190 -1.0689
  682SOL     OW 3913   6.350   3.985   5.131 -0.0402 -0.0934 -0.1568
  682SOL    HW1 3914   6.277   3.965   5.071  0.8979 -1.1556 -1.0150
  682SOL    HW2 3915   6.315   3.968   5.218 -2.0625  3.3682 -0.1165
  683SOL     OW 3916   0.782   1.939   7.901  0.6425 -0.3830  0.0688
  683SOL    HW1 3917   0.802   1.970   7.813  0.8265  1.3490  0.6851
  683SOL    HW2 3918   0.686   1.942   7.906  0.6365 -0.3686 -0.0436
  684SOL     OW 3919   4.835   2.536   7.573 -0.2136 -0.1804  0.1373
  684SOL    HW1 3920   4.827   2.442   7.558 -2.6960  0.2516 -2.1692
  684SOL    HW2 3921   4.777   2.575   7.507  0.1845  2.9410  1.4711
  685SOL     OW 3922   5.734   1.568   8.393 -0.1434  0.3254  0.1755
  685SOL    HW1 3923   5.809   1.627   8.386 -0.0741  0.2465  0.2517
  685SOL    HW2 3924   5.693   1.571   8.306  0.3157 -0.1178 -0.0596
  686SOL     OW 3925   0.441   8.654   2.221  0.6147  0.1834  0.2089
  686SOL    HW1 3926   0.375   8.617   2.280  0.8994  0.4835  0.7317
  686SOL    HW2 3927   0.497   8.707   2.279 -0.0824  1.8603 -0.5936
  687SOL     OW 3928   6.171   4.385   8.131  0.1898  0.1047 -0.8677
  687SOL    HW1 3929   6.137   4.333   8.203  1.3888 -0.0778 -0.4253
  687SOL    HW2 3930   6.101   4.383   8.065 -0.8640  0.1859  0.2297
  688SOL     OW 3931   4.442   7.647   5.189  0.1012 -0.1417 -0.1500
  688SOL    HW1 3932   4.467   7.566   5.144  0.3301 -0.4565  0.5297
  688SOL    HW2 3933   4.490   7.716   5.142  0.4105 -0.4745 -0.3305
  689SOL     OW 3934   5.824   1.516   1.093  0.0908  0.1540 -0.4222
  689SOL    HW1 3935   5.860   1.443   1.041 -0.3771 -1.2111  1.0817
  689SOL    HW2 3936   5.901   1.567   1.117  0.4956 -0.1368 -1.0563
  690SOL     OW 3937   3.359   6.601   3.800  0.1386  0.2559 -0.2365
  690SOL    HW1 3938   3.430   6.563   3.852 -1.0151 -0.2440  1.0088
  690SOL    HW2 3939   3.394   6.686   3.771  1.9640 -0.7915 -1.3181
  691SOL     OW 3940   3.488   3.754   0.773 -0.0447  0.7127 -0.0969
  691SOL    HW1 3941   3.416   3.750   0.836  0.2731 -0.9998  0.1971
  691SOL    HW2 3942   3.461   3.696   0.702  1.3471 -0.5758  0.3799
  692SOL     OW 3943   5.860   2.583   1.817 -0.3500  0.1839 -0.5658
  692SOL    HW1 3944   5.916   2.644   1.769 -0.6106  0.7069 -0.2220
  692SOL    HW2 3945   5.865   2.502   1.768  0.3620  0.3528 -0.7844
  693SOL     OW 3946   6.120   3.874   5.587  0.1841 -0.7340 -0.2246
  693SOL    HW1 3947   6.048   3.911   5.536  0.2737  1.4984  1.1373
  693SOL    HW2 3948   6.079   3.807   5.642 -1.3267  1.6597  1.7968
  694SOL     OW 3949   0.571   7.288   0.652  0.6621 -0.7912  0.7456
  694SOL    HW1 3950   0.562   7.328   0.565  1.0138 -0.6329  0.7822
  694SOL    HW2 3951   0.481   7.284   0.686  0.7153  0.8990  1.1630
  695SOL     OW 3952   4.789   4.588   1.071  0.1971 -0.2785  0.0493
  695SOL    HW1 3953   4.877   4.556   1.053  0.4690  0.6405 -0.3125
  695SOL    HW2 3954   4.753   4.524   1.132  1.1445 -0.6133  0.2808
  696SOL     OW 3955   0.817   3.891   2.179 -0.3162  0.1756  0.4483
  696SOL    HW1 3956   0.904   3.861   2.206 -0.0290 -1.5852 -2.0785
  696SOL    HW2 3957   0.761   3.874   2.255  1.3981  0.7874  1.9072
  697SOL     OW 3958   6.395   8.703   1.708 -1.0227 -0.3362  0.2231
  697SOL    HW1 3959   6.329   8.699   1.777  0.0244  0.1181  1.2862
  697SOL    HW2 3960   6.470   8.746   1.749 -0.0831 -0.7768 -0.9639
  698SOL     OW 3961   3.046   7.000   7.212 -0.2458  0.4968  0.1808
  698SOL    HW1 3962   2.954   7.002   7.186 -0.0501  0.3296 -0.5267
  698SOL    HW2 3963   3.050   6.932   7.279 -0.6976  0.7469  0.4702
  699SOL     OW 3964   3.506   3.847   7.421  0.1769  0.2081 -0.0441
  699SOL    HW1 3965   3.475   3.833   7.332  1.1438  0.3204 -0.4105
  699SOL    HW2 3966   3.531   3.760   7.453  0.6282  0.2811 -0.1926
  700SOL     OW 3967   0.681   5.542   1.515  0.5950 -0.2192 -0.0979
  700SOL    HW1 3968   0.666   5.465   1.461  0.4214  0.2051 -0.6644
  700SOL    HW2 3969   0.738   5.511   1.586  0.1993 -0.9524 -0.0912
  701SOL     OW 3970   2.997   1.514   6.014  0.2311 -0.0201 -0.1216
  701SOL    HW1 3971   2.905   1.495   5.994  0.8581 -2.6351 -0.9380
  701SOL    HW2 3972   3.009   1.482   6.103  0.4701 -0.2293 -0.2267
  702SOL     OW 3973   0.124   7.054   6.050  0.2112 -0.2653 -0.5000
  702SOL    HW1 3974   0.045   7.005   6.070  0.0912  0.5193  1.0692
  702SOL    HW2 3975   0.159   7.011   5.972  0.0443 -2.7319  0.6898
  703SOL     OW 3976   6.348   3.351   2.655 -0.5437  0.3316 -0.3514
  703SOL    HW1 3977   6.340   3.310   2.741  0.7503 -1.5180 -1.0485
  703SOL    HW2 3978   6.301   3.434   2.664  0.7871  0.9053  2.5936
  704SOL     OW 3979   7.856   7.558   2.262 -0.4129 -0.1607 -0.0714
  704SOL    HW1 3980   7.840   7.646   2.296 -1.1030  0.5680 -2.1163
  704SOL    HW2 3981   7.905   7.573   2.181  2.8663 -1.8833  1.3835
  705SOL     OW 3982   5.373   8.886   8.572  0.2540  0.4599  0.1626
  705SOL    HW1 3983   5.337   8.817   8.628  0.0131  1.2718  1.0460
  705SOL    HW2 3984   5.430   8.841   8.510 -1.1234 -0.7071 -0.3162
  706SOL     OW 3985   4.741   7.502   2.513 -0.6796  0.2583  0.1341
  706SOL    HW1 3986   4.721   7.419   2.556 -1.6595  0.5367  0.2372
  706SOL    HW2 3987   4.830   7.490   2.477 -1.4954 -1.5177 -1.4590
  707SOL     OW 3988   1.288   6.437   7.631  0.0476 -0.0477 -0.3946
  707SOL    HW1 3989   1.375   6.470   7.610 -0.2262 -0.6693 -2.8462
  707SOL    HW2 3990   1.301   6.384   7.709  1.4505  1.5411  0.5126
  708SOL     OW 3991   8.913   0.786   7.094  0.1723 -0.6733 -0.2571
  708SOL    HW1 3992   8.963   0.864   7.116  0.2812 -1.2616  1.7327
  708SOL    HW2 3993   8.977   0.724   7.059  0.2647 -0.2635 -0.8193
  709SOL     OW 3994   1.795   3.755   5.791  0.2640  0.0514  0.4178
  709SOL    HW1 3995   1.810   3.814   5.717  0.3767 -0.1937  0.2442
  709SOL    HW2 3996   1.700   3.756   5.804  0.2466  0.1111  0.2838
  710SOL     OW 3997   3.250   2.653   0.537  0.3156  0.0529 -0.1609
  710SOL    HW1 3998   3.188   2.709   0.584  0.3975 -0.3799  0.4636
  710SOL    HW2 3999   3.333   2.665   0.582  0.4784 -0.0795 -0.4258
  711SOL     OW 4000   8.960   5.036   1.966  0.2378 -0.3910  0.5294
  711SOL    HW1 4001   8.886   5.050   1.908 -1.2407  0.5785  2.5295
  711SOL    HW2 4002   9.012   5.117   1.959  0.9295 -0.8930 -0.5321
  712SOL     OW 4003   5.626   1.522   5.429 -0.2243 -0.0117 -0.2356
  712SOL    HW1 4004   5.602   1.456   5.364 -1.9971  0.6843 -0.3595
  712SOL    HW2 4005   5.652   1.598   5.376 -1.0035  0.3274 -0.1444
  713SOL     OW 4006   3.228   0.146   8.038  0.5665 -0.2188 -0.3658
  713SOL    HW1 4007   3.228   0.198   8.118 -2.1320 -0.0483 -0.3982
  713SOL    HW2 4008   3.142   0.103   8.037  0.9680 -1.0986 -2.6106
  714SOL     OW 4009   6.775   1.454   4.062 -0.1570 -0.6969 -0.2952
  714SOL    HW1 4010   6.722   1.421   4.135 -0.9203 -1.2705 -1.0896
  714SOL    HW2 4011   6.838   1.383   4.045  0.9236 -0.0151  0.6521
  715SOL     OW 4012   2.609   0.343   8.151 -0.2977  0.2687 -0.1569
  715SOL    HW1 4013   2.676   0.358   8.084 -0.8074  0.0326 -0.7296
  715SOL    HW2 4014   2.551   0.418   8.143 -1.4323 -0.6837 -1.3035
  716SOL     OW 4015   1.498   8.721   7.881 -0.1228  0.4948  0.2758
  716SOL    HW1 4016   1.589   8.743   7.901 -0.2985  0.5700  1.0171
  716SOL    HW2 4017   1.502   8.680   7.794  0.3624  2.3779 -0.6581
  717SOL     OW 4018   5.516   0.304   8.931 -0.1757 -0.1765  0.0713
  717SOL    HW1 4019   5.591   0.286   8.987 -0.8462  1.1048  1.4276
  717SOL    HW2 4020   5.480   0.385   8.964 -2.2760 -0.8403 -0.4602
  718SOL     OW 4021   5.382   6.306   2.015  0.1434 -0.4031 -0.4464
  718SOL    HW1 4022   5.300   6.326   2.060  0.9122 -0.8046  1.1912
  718SOL    HW2 4023   5.367   6.221   1.973  0.3445 -1.5248  1.6095
  719SOL     OW 4024   2.868   6.046   7.168  0.4017  0.0370 -0.7027
  719SOL    HW1 4025   2.820   6.129   7.171 -0.5325 -0.4496  2.9828
  719SOL    HW2 4026   2.956   6.069   7.196  0.0423 -0.1725  0.7078
  720SOL     OW 4027   7.582   7.472   4.474  0.1395 -0.1751 -0.0917
  720SOL    HW1 4028   7.495   7.467   4.435  0.3187 -0.6664 -0.4258
  720SOL    HW2 4029   7.639   7.425   4.414  0.6419  0.1436  0.1258
  721SOL     OW 4030   1.280   0.778   2.539  0.4151  0.1221 -0.2009
  721SOL    HW1 4031   1.253   0.850   2.596  0.0612 -0.4637  0.3910
  721SOL    HW2 4032   1.345   0.816   2.481  0.4055  0.8607  0.2603
  722SOL     OW 4033   6.528   8.531   7.702  0.2101 -0.0626  0.5833
  722SOL    HW1 4034   6.548   8.506   7.612 -3.8984 -0.5497 -0.4110
  722SOL    HW2 4035   6.571   8.465   7.756 -0.5124 -2.2050 -1.3142
  723SOL     OW 4036   5.191   1.263   0.652  0.0953  0.7932 -0.1804
  723SOL    HW1 4037   5.153   1.249   0.565  0.4060  1.9021 -0.5098
  723SOL    HW2 4038   5.132   1.325   0.695 -0.0583  0.2527  0.4158
  724SOL     OW 4039   4.589   4.565   2.643  0.3710 -0.3537 -0.4380
  724SOL    HW1 4040   4.574   4.648   2.598 -0.5151 -0.9951 -1.3651
  724SOL    HW2 4041   4.680   4.571   2.674 -0.3006  1.8182  1.4073
  725SOL     OW 4042   8.686   6.043   4.530 -0.0085 -0.5012  0.0464
  725SOL    HW1 4043   8.685   6.129   4.570 -1.2893 -0.5984  0.2583
  725SOL    HW2 4044   8.775   6.011   4.544  0.1918  0.3723  0.8347
  726SOL     OW 4045   5.182   7.131   0.318 -0.6826  0.2295 -0.0752
  726SOL    HW1 4046   5.277   7.129   0.307 -0.7115 -1.2621 -0.2548
  726SOL    HW2 4047   5.148   7.071   0.252 -1.7032  0.1724  0.4648
  727SOL     OW 4048   7.937   5.895   2.833 -0.2138  0.1206  0.0958
  727SOL    HW1 4049   7.863   5.949   2.807 -0.8918 -0.1970  1.2563
  727SOL    HW2 4050   7.931   5.892   2.929 -0.5596 -2.4479  0.0678
  728SOL     OW 4051   0.851   1.352   6.787  0.2911 -0.2475  0.3683
  728SOL    HW1 4052   0.781   1.377   6.847 -1.1273 -3.4271  0.2510
  728SOL    HW2 4053   0.928   1.341   6.843 -0.2743 -0.3295  1.1537
  729SOL     OW 4054   1.390   3.025   7.469  0.2943  0.1439  0.0609
  729SOL    HW1 4055   1.337   3.103   7.482  2.1958  1.2764  1.4882
  729SOL    HW2 4056   1.430   3.036   7.383  0.3290  0.5945  0.1342
  730SOL     OW 4057   5.476   3.106   3.527 -0.0101  0.2711  0.0513
  730SOL    HW1 4058   5.437   3.061   3.602 -0.3387  2.2795  1.1568
  730SOL    HW2 4059   5.564   3.130   3.556  0.5111 -0.4660 -0.8687
  731SOL     OW 4060   4.180   2.414   0.143  0.4577  0.2410  0.4757
  731SOL    HW1 4061   4.234   2.407   0.222  1.1712  1.2223  0.1023
  731SOL    HW2 4062   4.152   2.324   0.125  1.0920 -0.1394  1.2943
  732SOL     OW 4063   3.052   3.441   1.495 -0.5946  0.1224  0.2006
  732SOL    HW1 4064   3.120   3.452   1.561 -0.5340 -0.2411  0.2002
  732SOL    HW2 4065   3.002   3.365   1.524  0.7290 -1.3867 -1.2772
  733SOL     OW 4066   5.667   3.786   4.319  0.1412  0.1090  0.1461
  733SOL    HW1 4067   5.741   3.831   4.358  0.3882 -0.2037  0.0421
  733SOL    HW2 4068   5.692   3.773   4.228 -1.4185  3.0109 -0.8230
  734SOL     OW 4069   8.392   4.933   7.973  0.1958 -0.3204  0.3627
  734SOL    HW1 4070   8.320   4.934   7.910  0.0650  0.5995  0.5188
  734SOL    HW2 4071   8.471   4.936   7.919  0.0936 -0.0440  0.2279
  735SOL     OW 4072   6.843   2.621   2.068 -0.0861 -0.3738 -0.1032
  735SOL    HW1 4073   6.818   2.529   2.072 -0.2877 -0.2728  1.3729
  735SOL    HW2 4074   6.761   2.668   2.049 -0.2036 -0.4012  0.3379
  736SOL     OW 4075   2.646   8.068   0.526  0.5871  0.1735  0.1281
  736SOL    HW1 4076   2.577   8.133   0.511 -1.7846 -1.7755  1.8133
  736SOL    HW2 4077   2.656   8.023   0.443  0.8813  1.4012 -0.5217
  737SOL     OW 4078   3.461   2.643   0.801  0.2284  0.3980  0.3901
  737SOL    HW1 4079   3.496   2.674   0.885  0.3320  0.5902  0.2772
  737SOL    HW2 4080   3.436   2.723   0.755  2.0895  0.4581 -0.6199
  738SOL     OW 4081   6.698   6.225   6.222 -0.3886  0.3683 -0.0790
  738SOL    HW1 4082   6.733   6.304   6.263  0.9125  0.0854 -0.5843
  738SOL    HW2 4083   6.721   6.155   6.283  2.6283 -0.2303 -1.6848
  739SOL     OW 4084   4.002   4.988   5.320  0.4344 -0.4507 -0.1090
  739SOL    HW1 4085   4.080   5.030   5.284 -0.2243  1.2863  0.3710
  739SOL    HW2 4086   3.947   4.969   5.244  0.2978  0.5450 -0.2742
  740SOL     OW 4087   0.961   4.862   3.306  0.5614  0.2147 -0.5577
  740SOL    HW1 4088   0.909   4.846   3.384  0.1554 -2.8034 -1.3452
  740SOL    HW2 4089   0.900   4.902   3.243 -0.0119 -0.4962 -0.4565
  741SOL     OW 4090   0.767   6.869   0.491  0.0255 -0.4491 -0.5876
  741SOL    HW1 4091   0.757   6.779   0.458  0.7839 -0.9400  0.4471
  741SOL    HW2 4092   0.810   6.916   0.419  1.3765 -1.4136 -0.4614
  742SOL     OW 4093   6.120   3.168   3.624 -0.1399  0.0516 -0.0756
  742SOL    HW1 4094   6.150   3.182   3.714 -0.1382  1.1605 -0.2406
  742SOL    HW2 4095   6.038   3.215   3.618  0.7114  1.4694 -1.1445
  743SOL     OW 4096   0.037   5.664   4.685 -0.3455 -0.2972 -0.0752
  743SOL    HW1 4097   0.130   5.649   4.704 -0.6997 -1.8061  0.6825
  743SOL    HW2 4098   0.029   5.759   4.676  1.1056 -0.0576  0.7750
  744SOL     OW 4099   7.767   7.306   1.003 -0.2481 -0.6720  0.0035
  744SOL    HW1 4100   7.719   7.224   0.992 -0.3600 -0.6211  0.1200
  744SOL    HW2 4101   7.808   7.300   1.089 -0.5158 -0.4724  0.1479
  745SOL     OW 4102   8.903   7.852   1.663 -0.4134  0.5233 -0.3819
  745SOL    HW1 4103   8.844   7.832   1.735  0.3593 -2.6175 -0.4709
  745SOL    HW2 4104   8.988   7.864   1.704  0.1403 -1.8326 -0.6968
  746SOL     OW 4105   6.819   8.375   2.137  0.0472 -0.2463  0.2052
  746SOL    HW1 4106   6.824   8.302   2.075  1.5888 -1.0602  1.2228
  746SOL    HW2 4107   6.796   8.450   2.083  1.5993 -0.8692 -1.4498
  747SOL     OW 4108   6.845   1.505   6.498 -0.4404  0.5183  0.1884
  747SOL    HW1 4109   6.909   1.467   6.559 -0.6012  0.1428  0.1297
  747SOL    HW2 4110   6.788   1.431   6.475 -0.7280  0.7883  0.0284
  748SOL     OW 4111   8.163   3.231   8.951 -0.5582  0.3911 -0.1800
  748SOL    HW1 4112   8.135   3.283   8.876  1.3695 -0.5571 -1.6481
  748SOL    HW2 4113   8.217   3.290   9.003 -0.2721  0.5159 -0.6154
  749SOL     OW 4114   2.256   1.932   7.064 -0.3014 -0.4091  0.0182
  749SOL    HW1 4115   2.230   1.915   6.974  0.9887 -0.3866 -0.3791
  749SOL    HW2 4116   2.196   1.879   7.117 -0.7207 -0.8447 -0.8772
  750SOL     OW 4117   8.504   7.041   6.557  0.0097 -0.3222 -0.1938
  750SOL    HW1 4118   8.543   6.967   6.604  1.8315  0.1949 -0.7837
  750SOL    HW2 4119   8.577   7.103   6.545 -0.8817  0.4898 -1.8266
  751SOL     OW 4120   8.646   7.637   2.522 -0.1827 -0.3869  0.0507
  751SOL    HW1 4121   8.620   7.612   2.611 -0.2485 -1.1958 -0.1877
  751SOL    HW2 4122   8.570   7.682   2.487 -0.3221 -0.4675  0.2474
  752SOL     OW 4123   4.457   0.040   3.199 -0.1052  0.3986 -0.1289
  752SOL    HW1 4124   4.386   0.047   3.263  1.6654 -0.4662  2.0871
  752SOL    HW2 4125   4.464   0.128   3.162 -2.2090  0.5407 -0.3223
  753SOL     OW 4126   4.714   1.252   4.523 -0.6777 -0.2045 -0.4191
  753SOL    HW1 4127   4.710   1.187   4.452 -0.4989  0.7499 -1.3284
  753SOL    HW2 4128   4.774   1.319   4.490 -0.9166  0.4583  0.4725
  754SOL     OW 4129   3.126   1.962   3.068 -0.7505  0.3507 -0.0569
  754SOL    HW1 4130   3.196   1.945   3.131 -0.2907  0.3563 -0.5582
  754SOL    HW2 4131   3.152   1.914   2.989 -1.3045  0.3670 -0.2542
  755SOL     OW 4132   5.873   2.005   2.053 -0.2242 -0.0628  0.3846
  755SOL    HW1 4133   5.799   1.968   2.005  1.7102  0.0954 -3.0487
  755SOL    HW2 4134   5.850   2.098   2.065 -1.4802 -0.4797  1.4104
  756SOL     OW 4135   7.922   2.410   8.943  0.1215 -0.3175 -0.8116
  756SOL    HW1 4136   7.999   2.371   8.984 -0.2907 -2.1984 -1.6937
  756SOL    HW2 4137   7.860   2.421   9.015  0.9187  0.5163 -0.2236
  757SOL     OW 4138   8.951   2.179   3.562 -0.1270 -0.4163 -0.0902
  757SOL    HW1 4139   8.953   2.163   3.468 -0.4534 -2.2994  0.1799
  757SOL    HW2 4140   8.900   2.259   3.573 -1.7718 -1.2432 -1.4014
  758SOL     OW 4141   7.604   0.783   6.848  0.3920  0.1103  0.0856
  758SOL    HW1 4142   7.586   0.877   6.836  0.8780  0.1556 -0.3361
  758SOL    HW2 4143   7.611   0.749   6.758  0.6909 -0.2382  0.2413
  759SOL     OW 4144   4.561   5.611   0.975 -0.1971  0.4416  0.0474
  759SOL    HW1 4145   4.555   5.535   1.033  0.9328  0.2177 -0.1125
  759SOL    HW2 4146   4.502   5.590   0.902 -2.0291  0.9501  1.3126
  760SOL     OW 4147   2.584   8.067   8.715 -0.0779 -0.0925 -0.0419
  760SOL    HW1 4148   2.670   8.055   8.755  0.1005  1.2034  0.0060
  760SOL    HW2 4149   2.600   8.062   8.621 -0.0423 -0.4044 -0.0188
  761SOL     OW 4150   6.967   3.920   7.457 -0.0359  0.6382 -0.0149
  761SOL    HW1 4151   6.948   3.952   7.369 -0.3033  0.1983 -0.1194
  761SOL    HW2 4152   6.891   3.946   7.508 -0.5672 -0.3888 -0.2474
  762SOL     OW 4153   2.606   4.877   3.317  0.3599 -0.7230  0.0471
  762SOL    HW1 4154   2.592   4.844   3.228 -4.1863  0.7278 -0.0050
  762SOL    HW2 4155   2.599   4.972   3.309 -0.1379 -0.5676  1.9540
  763SOL     OW 4156   8.101   8.612   6.924 -0.2008  0.5786  0.1813
  763SOL    HW1 4157   8.091   8.579   7.013  1.8462  1.2332  0.7059
  763SOL    HW2 4158   8.012   8.636   6.897 -1.6746 -3.8394  0.2777
  764SOL     OW 4159   2.261   2.953   7.562  0.2947 -0.0093  0.8271
  764SOL    HW1 4160   2.268   3.020   7.629  0.5429 -0.5853  1.3920
  764SOL    HW2 4161   2.347   2.910   7.562  1.6983  2.3746 -2.4949
  765SOL     OW 4162   7.292   4.356   7.945 -0.1753 -0.1862 -0.0722
  765SOL    HW1 4163   7.382   4.379   7.969 -0.5960  0.5729  0.8395
  765SOL    HW2 4164   7.255   4.320   8.025 -0.9883  0.4380 -0.1595
  766SOL     OW 4165   7.574   6.357   3.411  0.5883  0.0459  0.3555
  766SOL    HW1 4166   7.532   6.272   3.403 -0.0519  0.3946 -0.0138
  766SOL    HW2 4167   7.639   6.345   3.481 -2.3035  0.3539  3.3021
  767SOL     OW 4168   8.129   8.168   1.525  0.6505  0.1194 -0.5991
  767SOL    HW1 4169   8.217   8.165   1.488  0.3811  1.4040 -1.3906
  767SOL    HW2 4170   8.142   8.160   1.620  1.6045  0.1089 -0.7291
  768SOL     OW 4171   1.120   8.782   6.889  0.7288  0.0491 -0.2392
  768SOL    HW1 4172   1.172   8.799   6.967  0.9852 -3.0959  0.3860
  768SOL    HW2 4173   1.176   8.728   6.834 -1.0577 -1.6181 -0.5122
  769SOL     OW 4174   1.014   5.981   7.462  0.1515 -0.2026 -0.2556
  769SOL    HW1 4175   0.970   5.901   7.431 -0.8468 -0.0641  0.7744
  769SOL    HW2 4176   1.043   5.960   7.551  0.7232  0.2825 -0.3159
  770SOL     OW 4177   6.849   8.194   6.770  0.2260  0.0569  0.1455
  770SOL    HW1 4178   6.898   8.131   6.718  0.8685  0.6712 -0.0002
  770SOL    HW2 4179   6.766   8.150   6.790  0.7455 -0.9087  0.2148
  771SOL     OW 4180   2.775   6.834   6.392  0.3149  0.3814  0.0457
  771SOL    HW1 4181   2.711   6.769   6.419 -0.4682  0.5820 -1.2497
  771SOL    HW2 4182   2.807   6.804   6.307  0.2755  1.4326 -0.3653
  772SOL     OW 4183   8.644   7.849   6.103 -0.5408  0.2962 -0.1449
  772SOL    HW1 4184   8.665   7.841   6.010 -1.9594  1.9448 -0.6614
  772SOL    HW2 4185   8.669   7.938   6.126  0.7772 -0.4092  1.3675
  773SOL     OW 4186   8.542   0.173   0.771 -0.6157 -0.2516 -0.1213
  773SOL    HW1 4187   8.544   0.236   0.843  1.8834  0.1235 -0.4310
  773SOL    HW2 4188   8.606   0.106   0.796 -0.6702 -0.8149 -1.4070
  774SOL     OW 4189   2.769   6.983   7.240  0.3359  0.0612  0.6643
  774SOL    HW1 4190   2.768   6.950   7.330 -2.1857  0.7968  0.9877
  774SOL    HW2 4191   2.745   7.075   7.249 -0.0836  0.1107 -0.7759
  775SOL     OW 4192   5.441   3.772   6.508 -0.0539 -0.1223 -0.4835
  775SOL    HW1 4193   5.486   3.699   6.549  4.1664  2.0815 -0.6443
  775SOL    HW2 4194   5.500   3.800   6.438 -0.9769  3.8461  0.0783
  776SOL     OW 4195   3.927   7.686   2.798 -0.1302 -0.3186 -0.4437
  776SOL    HW1 4196   3.850   7.713   2.849 -0.3760 -0.4324 -0.7483
  776SOL    HW2 4197   3.930   7.591   2.810 -0.8821 -0.5066 -1.5752
  777SOL     OW 4198   2.779   2.397   8.235 -0.5770  0.4437 -0.0320
  777SOL    HW1 4199   2.765   2.485   8.270 -1.9743  0.1221  0.2666
  777SOL    HW2 4200   2.868   2.375   8.262 -0.2508  1.7000  0.0151
  778SOL     OW 4201   8.274   0.751   6.180 -0.3462 -0.3195  0.4968
  778SOL    HW1 4202   8.199   0.809   6.190  0.5168  0.8431  0.4399
  778SOL    HW2 4203   8.284   0.740   6.086 -1.0335 -1.2924  0.5227
  779SOL     OW 4204   5.217   4.304   8.072 -0.1365 -0.4661  0.4712
  779SOL    HW1 4205   5.296   4.316   8.018 -1.7551 -0.4707 -2.0745
  779SOL    HW2 4206   5.247   4.318   8.162  2.2073  2.4405 -0.5926
  780SOL     OW 4207   1.450   8.576   3.614  0.0901  0.1497 -0.3019
  780SOL    HW1 4208   1.402   8.636   3.671 -0.2208 -0.1293 -0.2628
  780SOL    HW2 4209   1.414   8.593   3.526 -0.9003 -0.8379 -0.1120
  781SOL     OW 4210   3.281   2.106   2.086 -0.2714  0.1598 -0.1425
  781SOL    HW1 4211   3.285   2.079   1.994  1.9120  0.7159 -0.2726
  781SOL    HW2 4212   3.314   2.196   2.086 -1.4241  0.6044  1.0477
  782SOL     OW 4213   0.762   5.425   7.698 -0.1471  0.0827  0.1409
  782SOL    HW1 4214   0.786   5.426   7.791  1.5824 -1.2646 -0.2487
  782SOL    HW2 4215   0.787   5.512   7.666 -2.7929  1.4153  1.3270
  783SOL     OW 4216   3.785   4.139   0.658 -0.5769 -0.2461  0.2506
  783SOL    HW1 4217   3.801   4.093   0.576  0.7943 -0.4358  0.6064
  783SOL    HW2 4218   3.697   4.176   0.648 -0.5118 -0.4461 -1.2058
  784SOL     OW 4219   0.291   4.884   1.703 -0.4655 -0.6999  0.1219
  784SOL    HW1 4220   0.319   4.837   1.781  0.2092 -0.6103 -0.0627
  784SOL    HW2 4221   0.364   4.942   1.682  0.4966 -2.5413 -2.0519
  785SOL     OW 4222   0.968   0.759   5.707  0.3524 -0.5033 -0.0345
  785SOL    HW1 4223   1.060   0.756   5.682  0.6588  0.7358  0.8749
  785SOL    HW2 4224   0.952   0.850   5.732 -0.8644 -0.9106  0.7802
  786SOL     OW 4225   8.790   1.687   2.659 -0.0679  0.0847 -0.2946
  786SOL    HW1 4226   8.805   1.757   2.723 -0.6674  0.7059 -0.8168
  786SOL    HW2 4227   8.875   1.671   2.620 -0.2176  1.7747 -1.4165
  787SOL     OW 4228   5.996   2.942   6.610  0.0303 -0.1300  0.1389
  787SOL    HW1 4229   5.972   2.887   6.536  0.3902 -0.0546 -0.0415
  787SOL    HW2 4230   5.927   2.928   6.675  0.3375 -1.1184  0.2690
  788SOL     OW 4231   5.005   8.482   5.263 -1.0241 -0.5327  0.2474
  788SOL    HW1 4232   4.920   8.524   5.253 -1.6882 -1.7040  0.7850
  788SOL    HW2 4233   4.991   8.392   5.236  0.9042  0.0018 -3.0386
  789SOL     OW 4234   5.895   8.491   2.400  0.2290 -0.1916 -0.2371
  789SOL    HW1 4235   5.989   8.478   2.413  0.2304  0.3414  0.3035
  789SOL    HW2 4236   5.864   8.532   2.481 -0.8339 -2.0736  0.3803
  790SOL     OW 4237   4.289   5.828   5.833  0.1760  0.0763  0.1468
  790SOL    HW1 4238   4.378   5.862   5.831  0.6023 -0.8663  1.5337
  790SOL    HW2 4239   4.265   5.818   5.741  1.5644  0.2034 -0.2540
  791SOL     OW 4240   7.612   6.791   5.542 -0.1610 -0.0484 -0.1818
  791SOL    HW1 4241   7.662   6.839   5.476  0.7256  1.0061  1.1972
  791SOL    HW2 4242   7.525   6.782   5.503  0.7010 -0.7540 -2.0807
  792SOL     OW 4243   0.449   6.859   0.915  0.0894 -0.0698 -0.0480
  792SOL    HW1 4244   0.511   6.904   0.857 -0.3001  2.9892  1.6597
  792SOL    HW2 4245   0.366   6.905   0.900 -0.6601 -1.0544  0.9704
  793SOL     OW 4246   2.150   8.244   3.914  0.4266 -0.2297  0.2402
  793SOL    HW1 4247   2.075   8.191   3.888 -0.1139  1.0906 -1.0871
  793SOL    HW2 4248   2.226   8.196   3.880  0.1940 -1.4135  1.3131
  794SOL     OW 4249   5.563   3.769   1.379 -0.5410 -0.6722 -0.4998
  794SOL    HW1 4250   5.513   3.849   1.364 -0.4404 -0.7686 -1.4601
  794SOL    HW2 4251   5.564   3.758   1.474  0.2576  0.9953 -0.2713
  795SOL     OW 4252   8.447   8.652   7.731 -0.2586  0.1085  0.3863
  795SOL    HW1 4253   8.353   8.659   7.745 -0.2674 -0.1042  0.4412
  795SOL    HW2 4254   8.471   8.733   7.686 -0.0827  1.2409  2.3977
  796SOL     OW 4255   7.852   1.926   5.594  0.4159 -0.5249  0.2116
  796SOL    HW1 4256   7.864   1.977   5.674 -0.3926 -1.2482  0.8042
  796SOL    HW2 4257   7.764   1.948   5.564 -0.1813 -1.9944  0.8053
  797SOL     OW 4258   7.482   4.903   6.441 -0.5076  0.2223  0.5357
  797SOL    HW1 4259   7.443   4.866   6.520 -0.9723 -0.8099 -0.1665
  797SOL    HW2 4260   7.569   4.933   6.469 -0.7045 -0.0451  1.4541
  798SOL     OW 4261   4.730   8.360   4.631 -0.0024  0.2269  0.1685
  798SOL    HW1 4262   4.671   8.387   4.561 -0.4168 -0.8379  0.0860
  798SOL    HW2 4263   4.695   8.275   4.660  1.1388 -0.1322  0.5263
  799SOL     OW 4264   2.931   6.738   3.399 -0.0662  0.5577 -0.0487
  799SOL    HW1 4265   2.938   6.735   3.494 -1.1969 -1.2542  0.0329
  799SOL    HW2 4266   2.864   6.803   3.381  0.7429  1.5187  0.3217
  800SOL     OW 4267   5.663   5.472   8.257 -0.3443  0.5841  0.7623
  800SOL    HW1 4268   5.684   5.442   8.345 -1.2353 -0.7238  0.5461
  800SOL    HW2 4269   5.568   5.467   8.252 -0.4223  2.0369  0.1947
  801SOL     OW 4270   6.533   5.986   4.697 -0.0943  0.0657 -0.1599
  801SOL    HW1 4271   6.615   5.997   4.649 -0.2219  0.1421 -0.3580
  801SOL    HW2 4272   6.558   5.934   4.774  0.2009  0.3645 -0.0514
  802SOL     OW 4273   8.341   1.627   6.488 -0.1413 -0.0778  0.3037
  802SOL    HW1 4274   8.433   1.648   6.505 -0.3074  0.9135  0.0272
  802SOL    HW2 4275   8.338   1.609   6.394 -0.2229 -0.1462  0.3194
  803SOL     OW 4276   3.279   8.098   5.027 -0.6301 -0.2753 -0.5393
  803SOL    HW1 4277   3.230   8.095   5.109  1.0192 -0.7506  0.4894
  803SOL    HW2 4278   3.368   8.072   5.051  0.4142  1.5088 -2.1071
  804SOL     OW 4279   7.955   5.068   2.750  0.6145  0.5110 -0.0354
  804SOL    HW1 4280   7.864   5.094   2.735  0.6683 -0.1732 -1.9324
  804SOL    HW2 4281   8.004   5.150   2.746  0.1218  0.8562  0.7679
  805SOL     OW 4282   6.267   5.294   0.555  0.6975 -0.1979  0.1589
  805SOL    HW1 4283   6.176   5.316   0.536  1.1328  1.1801 -0.4398
  805SOL    HW2 4284   6.280   5.209   0.513 -0.5288 -0.8165  0.9695
  806SOL     OW 4285   7.840   7.893   1.685 -0.5545  0.1006 -0.2060
  806SOL    HW1 4286   7.773   7.960   1.676  0.3817  1.2540  1.0367
  806SOL    HW2 4287   7.853   7.884   1.779 -0.5153 -1.7194 -0.3447
  807SOL     OW 4288   6.554   5.924   0.510  0.5710 -0.0086 -0.1313
  807SOL    HW1 4289   6.511   5.947   0.427 -0.6473 -0.0245  0.4741
  807SOL    HW2 4290   6.524   5.835   0.528  0.5087  0.1418  0.5280
  808SOL     OW 4291   4.505   4.743   1.674  0.5092 -0.1101  0.4105
  808SOL    HW1 4292   4.525   4.733   1.581  2.0192  0.5495  0.6327
  808SOL    HW2 4293   4.575   4.696   1.719  0.5318  0.6777  1.2303
  809SOL     OW 4294   3.147   1.431   3.647  0.1085 -0.1686 -0.2016
  809SOL    HW1 4295   3.197   1.512   3.636  0.1618 -0.1496  0.1899
  809SOL    HW2 4296   3.213   1.361   3.640  0.0986 -0.1684 -0.2961
  810SOL     OW 4297   8.275   3.085   6.472 -0.4514  0.7136 -0.5964
  810SOL    HW1 4298   8.332   3.051   6.404  1.8666  1.1468  1.0365
  810SOL    HW2 4299   8.249   3.172   6.442 -0.5062  0.3991 -1.4734
  811SOL     OW 4300   6.097   0.654   3.076 -0.4312  0.1510 -0.2379
  811SOL    HW1 4301   6.064   0.565   3.060  0.4259  0.0425 -1.5522
  811SOL    HW2 4302   6.026   0.711   3.045  0.0931 -0.0922 -2.0326
  812SOL     OW 4303   4.440   1.670   5.768 -0.2428  0.0341  0.0376
  812SOL    HW1 4304   4.403   1.669   5.857 -2.0577  0.4105 -0.6703
  812SOL    HW2 4305   4.516   1.728   5.775 -0.1405 -0.2153  1.4131
  813SOL     OW 4306   2.586   1.025   4.117  0.0759 -0.3490 -0.4755
  813SOL    HW1 4307   2.536   1.010   4.197  0.1456 -2.5315 -0.7859
  813SOL    HW2 4308   2.527   1.001   4.047  0.7870 -0.7510 -0.9517
  814SOL     OW 4309   7.896   2.549   7.646  0.1821  0.0435 -0.0186
  814SOL    HW1 4310   7.838   2.507   7.584 -0.7297  1.5002 -0.2100
  814SOL    HW2 4311   7.964   2.589   7.592  0.0144  0.3604  0.0007
  815SOL     OW 4312   1.779   2.700   4.098 -0.1386  0.4049 -0.4422
  815SOL    HW1 4313   1.709   2.662   4.046  0.4507  0.6443 -1.4625
  815SOL    HW2 4314   1.736   2.766   4.152 -1.3219 -2.2035  2.0260
  816SOL     OW 4315   0.825   0.217   7.593  0.2979  0.5837 -0.3615
  816SOL    HW1 4316   0.751   0.204   7.534  1.0883  0.5784 -1.3870
  816SOL    HW2 4317   0.797   0.179   7.676  0.0806 -1.7353 -1.4140
  817SOL     OW 4318   7.997   6.093   4.409  0.0276  0.0096 -0.6449
  817SOL    HW1 4319   7.912   6.100   4.366  0.0863  1.9060 -0.5202
  817SOL    HW2 4320   8.060   6.088   4.336 -0.2099 -3.5792 -0.7993
  818SOL     OW 4321   6.129   7.386   1.670  0.4933 -0.0851 -0.5380
  818SOL    HW1 4322   6.167   7.301   1.649  0.9355 -0.7171  2.4007
  818SOL    HW2 4323   6.180   7.418   1.745 -0.9001  1.8615 -0.3277
  819SOL     OW 4324   3.342   2.780   7.398 -0.1093  0.4924 -0.0033
  819SOL    HW1 4325   3.388   2.716   7.453  0.6059  0.9089 -0.1053
  819SOL    HW2 4326   3.297   2.727   7.333 -0.5844  0.0199  0.6874
  820SOL     OW 4327   3.418   6.056   1.246  0.3392 -0.3877  0.2653
  820SOL    HW1 4328   3.496   6.072   1.299 -0.6166  0.5057  1.4547
  820SOL    HW2 4329   3.359   6.129   1.266 -0.4288 -0.5232 -1.3493
  821SOL     OW 4330   0.390   1.206   1.791  0.4239 -0.5023 -0.3079
  821SOL    HW1 4331   0.413   1.172   1.877 -0.5380 -1.4742 -0.4145
  821SOL    HW2 4332   0.333   1.280   1.808  0.7915 -0.2625 -0.1072
  822SOL     OW 4333   7.500   3.440   3.244  0.2765  0.1008 -1.0608
  822SOL    HW1 4334   7.441   3.512   3.267 -0.2686 -0.1742 -1.5677
  822SOL    HW2 4335   7.455   3.362   3.278  2.3969  0.2308  2.5248
  823SOL     OW 4336   8.660   6.356   0.125  0.2167  0.0382 -0.8109
  823SOL    HW1 4337   8.707   6.334   0.044 -0.5616 -0.3077 -1.1771
  823SOL    HW2 4338   8.661   6.275   0.176  1.1734  0.4039 -0.2255
  824SOL     OW 4339   7.992   8.943   6.777 -0.2621  0.5211 -0.6246
  824SOL    HW1 4340   7.947   8.895   6.847 -0.2587 -0.8543 -1.5179
  824SOL    HW2 4341   8.083   8.948   6.807 -0.3648  0.4357 -0.2823
  825SOL     OW 4342   4.173   8.585   4.236  0.1728 -0.7022  0.1453
  825SOL    HW1 4343   4.144   8.494   4.240 -0.4266 -0.5263 -0.1032
  825SOL    HW2 4344   4.094   8.635   4.217  0.7268 -0.2478 -1.0295
  826SOL     OW 4345   5.675   4.786   6.050 -0.4581  0.5503  0.0257
  826SOL    HW1 4346   5.722   4.761   6.130 -3.3969 -2.3521  1.0818
  826SOL    HW2 4347   5.726   4.746   5.979  1.6953  2.4144  0.4152
  827SOL     OW 4348   6.888   2.480   3.627 -0.5328  0.2738  0.3939
  827SOL    HW1 4349   6.888   2.419   3.553  0.8306  0.0231  0.5717
  827SOL    HW2 4350   6.803   2.524   3.622 -0.1809  0.8344 -1.7850
  828SOL     OW 4351   5.205   8.571   2.459 -0.1264  0.4149 -0.2482
  828SOL    HW1 4352   5.190   8.478   2.474  0.5130  0.4495  0.6721
  828SOL    HW2 4353   5.293   8.587   2.493 -0.3513  1.4245 -0.1181
  829SOL     OW 4354   0.594   6.627   3.464  0.4721 -0.6708  0.4913
  829SOL    HW1 4355   0.507   6.654   3.433 -0.0189 -3.5774 -0.9543
  829SOL    HW2 4356   0.578   6.591   3.551 -0.2221 -3.0682 -0.5565
  830SOL     OW 4357   4.917   4.795   5.460  0.1961  0.6481 -0.3500
  830SOL    HW1 4358   4.914   4.889   5.476  1.5487  0.5446  0.7378
  830SOL    HW2 4359   4.959   4.759   5.539  0.4494 -0.7639 -1.1030
  831SOL     OW 4360   1.716   2.371   7.365 -0.2634  0.2667  0.7393
  831SOL    HW1 4361   1.807   2.390   7.390 -0.1965 -0.0156  0.7078
  831SOL    HW2 4362   1.664   2.424   7.425 -0.0608  1.4026 -0.0406
  832SOL     OW 4363   8.630   6.182   2.643  0.2147 -0.6420 -0.3697
  832SOL    HW1 4364   8.628   6.132   2.724 -0.6565 -1.2230 -0.7387
  832SOL    HW2 4365   8.613   6.118   2.574 -0.3122  0.0497 -0.8972
  833SOL     OW 4366   5.122   0.135   1.340  0.3900 -0.0362 -0.0667
  833SOL    HW1 4367   5.081   0.062   1.293  0.9857 -1.0241  0.9251
  833SOL    HW2 4368   5.213   0.109   1.350  0.6212  0.8752  0.2615
  834SOL     OW 4369   0.464   5.605   3.441 -0.1228 -0.4266 -0.2252
  834SOL    HW1 4370   0.490   5.583   3.530 -0.4957  0.6943  0.1844
  834SOL    HW2 4371   0.533   5.568   3.385  0.0058 -1.3110  0.5031
  835SOL     OW 4372   3.722   1.423   4.723 -0.7428 -0.5353  0.1057
  835SOL    HW1 4373   3.799   1.444   4.777 -0.8434 -1.8213  0.7904
  835SOL    HW2 4374   3.755   1.423   4.633 -0.5627  1.6027  0.1092
  836SOL     OW 4375   8.342   6.796   8.953  0.2745 -0.0721  0.0209
  836SOL    HW1 4376   8.384   6.714   8.929 -0.9311 -1.3616  2.0573
  836SOL    HW2 4377   8.249   6.775   8.957 -0.1549  1.6165 -0.1938
  837SOL     OW 4378   0.513   2.622   3.495  0.3161  1.0702  0.0125
  837SOL    HW1 4379   0.540   2.532   3.478  1.2228  1.3676 -0.1826
  837SOL    HW2 4380   0.419   2.622   3.481  0.1754 -0.0305  0.8059
  838SOL     OW 4381   0.334   3.377   8.472 -0.2683  0.0414 -0.2322
  838SOL    HW1 4382   0.409   3.321   8.490 -1.8282 -1.5945  1.7968
  838SOL    HW2 4383   0.353   3.459   8.517  0.5991 -0.0762 -0.3673
  839SOL     OW 4384   6.310   1.115   0.991  0.3401  0.2139 -0.1408
  839SOL    HW1 4385   6.383   1.061   0.960 -0.4288 -1.0852  0.2628
  839SOL    HW2 4386   6.232   1.074   0.955 -0.2909  0.8752  0.4458
  840SOL     OW 4387   2.158   7.252   8.371  0.4167  0.1158 -0.0552
  840SOL    HW1 4388   2.110   7.329   8.340  1.2648  0.3075 -0.9552
  840SOL    HW2 4389   2.229   7.241   8.307  0.1190 -1.6049 -0.1293
  841SOL     OW 4390   2.536   0.600   7.537  0.3018 -0.0504 -0.8809
  841SOL    HW1 4391   2.509   0.519   7.494  1.2842 -1.3052  0.7704
  841SOL    HW2 4392   2.628   0.612   7.510  0.2103  0.4405 -0.9903
  842SOL     OW 4393   8.298   5.866   8.527  0.0040  0.2693 -0.2453
  842SOL    HW1 4394   8.251   5.946   8.504 -0.8571  0.2649  1.3519
  842SOL    HW2 4395   8.243   5.795   8.494 -0.9379  0.2783  1.2071
  843SOL     OW 4396   5.321   4.955   7.138  0.2220  0.0948 -0.7352
  843SOL    HW1 4397   5.282   4.897   7.204 -0.2560  0.3069 -0.8298
  843SOL    HW2 4398   5.250   4.971   7.075 -0.5238  2.9278  0.6579
  844SOL     OW 4399   5.497   7.107   1.625  0.3064 -0.0306  0.0239
  844SOL    HW1 4400   5.558   7.134   1.556  1.9465 -0.8545  1.0818
  844SOL    HW2 4401   5.421   7.073   1.578  0.7746  0.7509 -1.3500
  845SOL     OW 4402   8.066   2.289   3.380 -0.3441  0.1569 -0.2165
  845SOL    HW1 4403   8.088   2.359   3.317  0.6841  0.2556  0.2281
  845SOL    HW2 4404   8.135   2.224   3.368  0.5603  0.7136  1.6009
  846SOL     OW 4405   3.404   1.075   6.551 -0.4303 -0.5856  0.1176
  846SOL    HW1 4406   3.358   1.041   6.628 -0.1980 -0.0139  0.5116
  846SOL    HW2 4407   3.416   0.998   6.495 -2.5011 -0.6402 -0.3533
  847SOL     OW 4408   7.954   1.489   0.017  0.8997 -0.4183  0.1369
  847SOL    HW1 4409   7.953   1.471  -0.077 -1.1702  0.2462 -0.0257
  847SOL    HW2 4410   7.986   1.408   0.057 -0.7020 -1.7075 -1.0143
  848SOL     OW 4411   3.801   6.549   7.401 -0.2732  1.1987 -0.2551
  848SOL    HW1 4412   3.806   6.644   7.398  1.3462  1.1137 -1.6205
  848SOL    HW2 4413   3.891   6.520   7.393 -0.7758 -0.4717 -0.2608
  849SOL     OW 4414   7.729   0.110   7.343  0.4457  0.4239 -0.4420
  849SOL    HW1 4415   7.669   0.151   7.280  1.0028  1.5935 -0.2389
  849SOL    HW2 4416   7.691   0.131   7.428  0.2648 -0.2480 -0.3553
  850SOL     OW 4417   3.132   6.022   4.815 -0.6270  0.2268  0.6272
  850SOL    HW1 4418   3.200   6.088   4.806 -0.7597  0.2963  0.0832
  850SOL    HW2 4419   3.170   5.956   4.874  0.1714 -0.0665 -0.1845
  851SOL     OW 4420   0.806   2.298   1.998  0.2530 -0.2965  0.2271
  851SOL    HW1 4421   0.877   2.295   1.934 -0.1716 -0.8851 -0.2465
  851SOL    HW2 4422   0.780   2.390   2.002  0.4389 -0.2186 -0.2874
  852SOL     OW 4423   1.091   4.677   7.865  0.3825  0.6681  0.3234
  852SOL    HW1 4424   1.119   4.586   7.856  0.7702  0.8353 -0.1763
  852SOL    HW2 4425   0.995   4.671   7.873  0.4775  0.1604  1.2333
  853SOL     OW 4426   8.366   4.659   4.054  0.0985  0.0721 -0.4150
  853SOL    HW1 4427   8.387   4.632   4.144  0.6586 -1.2685 -0.9238
  853SOL    HW2 4428   8.423   4.733   4.037 -1.6768  1.9383  1.1251
  854SOL     OW 4429   7.867   0.905   4.346 -0.1965  0.3186 -0.0344
  854SOL    HW1 4430   7.779   0.881   4.316 -0.2409  2.1561 -1.5645
  854SOL    HW2 4431   7.925   0.876   4.276  0.3157  0.0958  0.4733
  855SOL     OW 4432   3.767   6.370   6.560 -0.8940 -0.0617 -0.6735
  855SOL    HW1 4433   3.827   6.395   6.489 -1.3139  2.2426 -0.2814
  855SOL    HW2 4434   3.734   6.453   6.594 -2.5682 -1.2040  0.6435
  856SOL     OW 4435   3.650   7.378   2.568 -0.2509 -0.3347 -0.6422
  856SOL    HW1 4436   3.681   7.347   2.653 -1.3579  0.2598 -0.0100
  856SOL    HW2 4437   3.572   7.325   2.550 -0.9883  0.6758 -0.4922
  857SOL     OW 4438   4.504   8.046   1.603 -0.0136 -0.1584 -0.2002
  857SOL    HW1 4439   4.491   8.099   1.524  1.7643  2.4807  1.1151
  857SOL    HW2 4440   4.472   8.102   1.674  0.6569 -1.4551  1.1650
  858SOL     OW 4441   1.554   3.778   7.103  0.1615 -0.1550 -0.4904
  858SOL    HW1 4442   1.544   3.792   7.197 -0.1393  0.7016 -0.6387
  858SOL    HW2 4443   1.490   3.710   7.082 -0.6294  0.4892 -0.2624
  859SOL     OW 4444   3.485   5.119   7.055  0.0465 -0.1605  0.0961
  859SOL    HW1 4445   3.407   5.078   7.092  0.6104 -1.9643 -0.6012
  859SOL    HW2 4446   3.470   5.213   7.066 -0.4668 -0.5210  3.4736
  860SOL     OW 4447   4.878   4.966   4.384  0.3603 -0.3417  0.6484
  860SOL    HW1 4448   4.957   5.019   4.370  0.6140 -0.6805  0.7939
  860SOL    HW2 4449   4.848   4.990   4.471  0.4549 -0.4121  0.7000
  861SOL     OW 4450   0.929   1.843   5.567 -0.2194  0.0265  0.5617
  861SOL    HW1 4451   0.941   1.917   5.627  1.4230  0.4742 -0.2662
  861SOL    HW2 4452   1.018   1.815   5.545 -0.6384  1.0250 -3.0459
  862SOL     OW 4453   7.190   7.679   1.057 -0.2019 -0.0015  0.2151
  862SOL    HW1 4454   7.245   7.624   1.001  0.7146  1.2157 -0.1284
  862SOL    HW2 4455   7.226   7.667   1.145  0.5414  0.6784  0.0133
  863SOL     OW 4456   0.645   8.420   2.433 -0.0845 -0.5440  0.2119
  863SOL    HW1 4457   0.638   8.363   2.356  1.5526  0.8931 -1.0794
  863SOL    HW2 4458   0.562   8.469   2.434 -0.1435 -0.6160 -0.6196
  864SOL     OW 4459   3.394   0.096   5.601  0.2280  0.2954  0.1400
  864SOL    HW1 4460   3.300   0.086   5.614  0.1692 -0.8292 -1.0027
  864SOL    HW2 4461   3.403   0.135   5.514  0.8121  1.2680  0.6160
  865SOL     OW 4462   4.472   4.725   0.314 -0.4005 -0.0841 -0.0377
  865SOL    HW1 4463   4.552   4.745   0.363 -0.1154 -1.7096  0.2048
  865SOL    HW2 4464   4.401   4.756   0.370 -0.0063 -0.1470  0.4994
  866SOL     OW 4465   6.926   0.465   7.838  0.4262 -0.6063  0.0851
  866SOL    HW1 4466   6.850   0.434   7.887  1.2616  1.9100  3.3651
  866SOL    HW2 4467   6.893   0.538   7.786  0.1066 -1.3928 -0.8494
  867SOL     OW 4468   0.934   3.896   7.276  0.0943  0.0314  0.3085
  867SOL    HW1 4469   0.996   3.825   7.293  1.4449  0.9842 -0.4093
  867SOL    HW2 4470   0.976   3.974   7.313 -1.6554  0.3695  1.6602
  868SOL     OW 4471   5.026   7.170   7.517 -0.4775  0.0854 -0.0555
  868SOL    HW1 4472   4.976   7.109   7.571 -0.6240  0.3873  0.1471
  868SOL    HW2 4473   5.107   7.186   7.566  0.4575 -1.4565 -0.9907
  869SOL     OW 4474   5.140   5.596   7.982  0.5866  0.1806  0.6489
  869SOL    HW1 4475   5.161   5.511   7.943 -0.5431  0.6219 -1.0419
  869SOL    HW2 4476   5.049   5.588   8.011  0.2392  1.0094 -0.1611
  870SOL     OW 4477   2.249   5.802   3.991  0.3441  0.3258  0.4268
  870SOL    HW1 4478   2.311   5.731   4.010 -0.5269 -0.5463  0.1281
  870SOL    HW2 4479   2.170   5.756   3.960  0.3196  1.5077 -1.3694
  871SOL     OW 4480   7.771   1.488   0.324 -0.2734 -0.1190  0.0575
  871SOL    HW1 4481   7.711   1.460   0.255  0.3785 -1.6368  0.0568
  871SOL    HW2 4482   7.836   1.418   0.329  0.6245  0.7449  1.1037
  872SOL     OW 4483   2.616   6.001   5.106  0.0249  0.8232 -0.1230
  872SOL    HW1 4484   2.523   5.989   5.123  0.0042 -0.4301 -0.9468
  872SOL    HW2 4485   2.635   5.942   5.033  1.4129  1.2508 -0.1480
  873SOL     OW 4486   7.154   6.864   5.266  0.3546  0.1075 -0.1174
  873SOL    HW1 4487   7.220   6.931   5.281  0.6741 -0.0634 -0.7698
  873SOL    HW2 4488   7.204   6.785   5.243  0.0260 -0.5563  1.3173
  874SOL     OW 4489   5.437   7.025   0.067  0.2571  0.0696  0.1334
  874SOL    HW1 4490   5.532   7.027   0.056  0.4797 -0.8484  1.6389
  874SOL    HW2 4491   5.414   6.933   0.054 -0.7069  0.5418 -1.9909
  875SOL     OW 4492   2.210   8.611   0.634  0.7050 -0.4162 -0.4114
  875SOL    HW1 4493   2.271   8.686   0.634 -1.7769  1.7293 -0.3124
  875SOL    HW2 4494   2.187   8.601   0.542  1.3962 -1.4348 -0.4857
  876SOL     OW 4495   5.088   6.018   4.297  0.2398 -0.5141 -0.1960
  876SOL    HW1 4496   5.087   6.063   4.382  0.4179 -3.1064  1.2985
  876SOL    HW2 4497   5.176   5.981   4.291  0.0526 -0.8162 -1.2675
  877SOL     OW 4498   4.849   4.357   7.642  0.1802  0.0699 -0.3077
  877SOL    HW1 4499   4.828   4.267   7.618 -1.5871  0.1382  0.7760
  877SOL    HW2 4500   4.888   4.351   7.729 -1.2329  0.4216  0.3754
  878SOL     OW 4501   5.474   1.484   1.832 -0.7242  0.2429 -0.6583
  878SOL    HW1 4502   5.383   1.511   1.835 -0.0079  2.8099  1.5362
  878SOL    HW2 4503   5.519   1.556   1.787  0.5101  0.1486  0.3745
  879SOL     OW 4504   3.934   2.533   1.157 -0.3939  0.8200 -0.6928
  879SOL    HW1 4505   3.881   2.527   1.077 -1.6160 -2.0365  0.2153
  879SOL    HW2 4506   3.880   2.585   1.217 -1.4087 -0.5540 -0.3749
  880SOL     OW 4507   4.777   3.047   5.530 -0.1401 -0.8093  0.1856
  880SOL    HW1 4508   4.788   2.953   5.515  1.3342 -0.9419  1.7784
  880SOL    HW2 4509   4.845   3.088   5.476 -0.8655 -0.6142 -0.6091
  881SOL     OW 4510   4.857   1.716   1.450  0.0326 -0.2471 -0.2651
  881SOL    HW1 4511   4.795   1.701   1.522  0.8545  0.3779  0.6029
  881SOL    HW2 4512   4.922   1.776   1.487  1.0932 -0.7970 -1.1829
  882SOL     OW 4513   8.103   5.866   1.588 -0.0736  0.5729 -0.0489
  882SOL    HW1 4514   8.077   5.792   1.532  0.2179  0.5249 -0.1248
  882SOL    HW2 4515   8.043   5.936   1.564 -1.3255 -0.0801  1.0731
  883SOL     OW 4516   1.560   0.984   6.612  0.2315  0.0633 -0.3956
  883SOL    HW1 4517   1.639   0.948   6.653 -0.4324  0.5925  1.4459
  883SOL    HW2 4518   1.489   0.951   6.666 -0.8808 -0.6806 -2.2230
  884SOL     OW 4519   5.133   2.104   0.535 -0.7251  0.7464  0.3726
  884SOL    HW1 4520   5.147   2.198   0.545 -1.8617  0.8793  0.8718
  884SOL    HW2 4521   5.104   2.075   0.621  0.2764 -0.2008  0.4030
  885SOL     OW 4522   5.931   2.967   7.372 -0.4606  0.5087 -0.1863
  885SOL    HW1 4523   5.890   3.042   7.414 -1.0749  1.8117 -2.8846
  885SOL    HW2 4524   6.019   2.997   7.349 -1.1805  1.0011 -2.5421
  886SOL     OW 4525   3.952   7.555   7.634 -0.3802 -0.1490  0.0716
  886SOL    HW1 4526   4.028   7.534   7.688 -0.1239 -3.3491 -1.2794
  886SOL    HW2 4527   3.879   7.509   7.675 -0.4862 -1.3504 -1.3951
  887SOL     OW 4528   7.777   2.320   2.461 -0.2741  0.1244 -0.1103
  887SOL    HW1 4529   7.832   2.243   2.450 -0.5296 -0.0180 -0.4388
  887SOL    HW2 4530   7.688   2.289   2.442 -0.3325  0.5785 -0.6167
  888SOL     OW 4531   7.311   8.003   3.682 -0.3962 -0.3469 -0.2354
  888SOL    HW1 4532   7.319   8.088   3.725  1.2923 -0.5377 -0.0996
  888SOL    HW2 4533   7.324   7.939   3.752  1.0596 -0.6676 -0.7577
  889SOL     OW 4534   0.777   5.404   5.381  0.1848  0.3179 -0.3920
  889SOL    HW1 4535   0.683   5.420   5.374  0.1794  0.2530 -0.4675
  889SOL    HW2 4536   0.789   5.369   5.470  0.1783  0.6043 -0.2775
  890SOL     OW 4537   6.115   3.830   1.786 -0.3627 -0.5068  0.3277
  890SOL    HW1 4538   6.137   3.856   1.875 -1.6346 -1.2884  0.8902
  890SOL    HW2 4539   6.197   3.794   1.751  0.3961  0.6559  0.8310
  891SOL     OW 4540   8.831   0.892   8.431  0.0113  0.6200 -0.0504
  891SOL    HW1 4541   8.906   0.847   8.390 -0.1334  0.3591 -0.0297
  891SOL    HW2 4542   8.871   0.946   8.499  0.5630  2.9945 -2.0844
  892SOL     OW 4543   8.222   1.758   6.138  0.3484  0.4220 -0.2886
  892SOL    HW1 4544   8.231   1.708   6.056 -0.3378  0.9228 -0.6751
  892SOL    HW2 4545   8.169   1.702   6.194  0.6539  0.1636 -0.2512
  893SOL     OW 4546   3.625   5.009   3.874 -0.0730  0.4201 -0.3848
  893SOL    HW1 4547   3.642   4.926   3.830 -3.6469 -0.6332 -0.0392
  893SOL    HW2 4548   3.601   5.069   3.804  2.5414  1.3131 -0.6386
  894SOL     OW 4549   5.132   3.678   0.639  0.5007  0.0416  0.3393
  894SOL    HW1 4550   5.108   3.743   0.705 -2.2437 -0.2930 -0.2112
  894SOL    HW2 4551   5.228   3.678   0.639  0.5859  2.2663  2.1010
  895SOL     OW 4552   2.355   7.928   8.427 -0.9892 -0.0149  0.2595
  895SOL    HW1 4553   2.344   7.843   8.471 -1.5787 -0.4006 -0.6106
  895SOL    HW2 4554   2.343   7.992   8.497  0.0399 -0.6342  1.0550
  896SOL     OW 4555   1.106   7.627   2.292 -0.1767 -0.6195 -0.1784
  896SOL    HW1 4556   1.157   7.553   2.255 -0.2152 -0.5427 -0.3890
  896SOL    HW2 4557   1.171   7.681   2.336  0.2860  0.5492 -2.1464
  897SOL     OW 4558   0.738   8.096   1.500 -0.0100  0.0673  0.5008
  897SOL    HW1 4559   0.755   8.187   1.477  1.1543 -0.2817 -0.1171
  897SOL    HW2 4560   0.739   8.050   1.417 -0.6538 -0.5011  0.8037
  898SOL     OW 4561   7.767   1.691   2.039  0.2389  0.1352  0.1660
  898SOL    HW1 4562   7.839   1.647   2.085  0.0476  0.1199  0.4595
  898SOL    HW2 4563   7.720   1.620   1.995  0.8242  0.2311 -0.6236
  899SOL     OW 4564   1.589   7.811   5.334 -0.2047 -0.1878 -0.4139
  899SOL    HW1 4565   1.554   7.812   5.245  1.0685  2.7370 -1.0088
  899SOL    HW2 4566   1.535   7.874   5.382 -0.3994 -1.1732  0.7121
  900SOL     OW 4567   5.496   5.013   5.271  0.6963  0.7792 -0.4682
  900SOL    HW1 4568   5.564   5.023   5.338  0.5433  0.7212 -0.3022
  900SOL    HW2 4569   5.465   5.102   5.255  2.3676  1.1249 -2.1988
  901SOL     OW 4570   8.141   7.997   8.598  0.1495 -0.5020  0.0016
  901SOL    HW1 4571   8.099   7.942   8.532 -2.5780  1.5263 -0.1317
  901SOL    HW2 4572   8.081   7.995   8.673  0.9544  0.7438  0.7116
  902SOL     OW 4573   4.081   1.787   2.858 -0.1626 -0.1806 -0.6666
  902SOL    HW1 4574   4.141   1.857   2.882 -1.8266  0.7946  0.9623
  902SOL    HW2 4575   4.008   1.831   2.814 -0.6714 -1.0366 -0.7201
  903SOL     OW 4576   6.512   8.623   0.579 -0.2125 -0.2544 -0.2194
  903SOL    HW1 4577   6.501   8.686   0.508  0.7869 -0.5476 -0.6624
  903SOL    HW2 4578   6.582   8.659   0.633 -0.1877 -0.5907 -0.0203
  904SOL     OW 4579   7.665   3.284   3.939  0.5491 -0.5747 -0.3911
  904SOL    HW1 4580   7.602   3.219   3.969 -2.3732  2.2673  0.1510
  904SOL    HW2 4581   7.693   3.329   4.019  1.0636  0.0554 -0.9114
  905SOL     OW 4582   3.546   1.976   6.241  0.1799  0.2706  0.5732
  905SOL    HW1 4583   3.595   1.896   6.222 -2.4070 -1.5299  1.0424
  905SOL    HW2 4584   3.457   1.947   6.259 -1.5481  3.4670 -1.7309
  906SOL     OW 4585   7.668   0.375   6.579  0.1507  0.6673  0.3539
  906SOL    HW1 4586   7.625   0.308   6.633  1.1371  0.2917  0.6918
  906SOL    HW2 4587   7.678   0.333   6.494 -0.1341  0.7471  0.2812
  907SOL     OW 4588   2.977   0.753   4.049 -0.0445 -0.2704 -0.2695
  907SOL    HW1 4589   2.959   0.659   4.039  0.7412 -0.4341 -0.2678
  907SOL    HW2 4590   3.072   0.757   4.063 -0.2680  0.4058  1.2088
  908SOL     OW 4591   8.300   0.006   5.595 -0.5018 -0.5087  0.4306
  908SOL    HW1 4592   8.392   0.030   5.585 -0.5822  0.3160  1.5549
  908SOL    HW2 4593   8.253   0.069   5.541 -0.5794  0.7833  1.9525
  909SOL     OW 4594   8.005   6.785   8.162 -0.0748 -0.1965  0.2933
  909SOL    HW1 4595   8.062   6.797   8.086 -0.3507  1.3510  0.3012
  909SOL    HW2 4596   8.036   6.849   8.226 -0.3842 -0.9038  1.1750
  910SOL     OW 4597   7.931   6.626   6.613 -0.4116  0.4764  0.6227
  910SOL    HW1 4598   7.861   6.609   6.550 -0.3924  0.5148  0.5907
  910SOL    HW2 4599   8.012   6.613   6.564 -0.3813 -0.9143  1.0118
  911SOL     OW 4600   4.237   7.494   6.940  0.1088  0.2762 -0.1369
  911SOL    HW1 4601   4.195   7.555   6.879 -1.6898 -1.4370 -0.7180
  911SOL    HW2 4602   4.219   7.407   6.903 -1.2714 -0.8578  2.8906
  912SOL     OW 4603   1.225   4.246   1.536 -0.0125  0.2366  0.2127
  912SOL    HW1 4604   1.286   4.295   1.480 -0.9079  1.6883  0.4392
  912SOL    HW2 4605   1.280   4.202   1.600  1.0196 -1.2137 -1.5808
  913SOL     OW 4606   3.806   3.014   6.538  0.1174 -0.3449  0.1732
  913SOL    HW1 4607   3.718   2.978   6.538  0.4746 -1.2996  1.3769
  913SOL    HW2 4608   3.861   2.944   6.503  0.4849  0.0169  0.0088
  914SOL     OW 4609   0.311   7.211   5.018  0.1847 -0.1717  0.2561
  914SOL    HW1 4610   0.292   7.226   4.925 -1.2882  0.0782  0.5753
  914SOL    HW2 4611   0.255   7.273   5.064  0.5924 -0.5847  1.3365
  915SOL     OW 4612   0.727   4.972   6.693 -0.2840  0.3972  0.3395
  915SOL    HW1 4613   0.748   5.038   6.627 -1.3654 -1.9636 -2.6313
  915SOL    HW2 4614   0.808   4.922   6.703 -0.5251 -0.1861 -0.4676
  916SOL     OW 4615   5.734   6.702   6.111  0.3882 -0.4256 -0.4422
  916SOL    HW1 4616   5.737   6.666   6.023 -0.0293 -0.7547 -0.3249
  916SOL    HW2 4617   5.641   6.713   6.130  0.4873  0.1587 -0.2473
  917SOL     OW 4618   8.785   6.074   7.440 -0.0769 -0.1274 -0.0594
  917SOL    HW1 4619   8.873   6.036   7.438 -0.1373 -0.2566 -0.4152
  917SOL    HW2 4620   8.780   6.120   7.524  0.3236 -0.1338 -0.0308
  918SOL     OW 4621   2.658   4.942   7.661  0.0085 -0.4596 -0.2386
  918SOL    HW1 4622   2.564   4.952   7.652  0.0136  0.2176  0.3305
  918SOL    HW2 4623   2.694   4.975   7.578 -0.1657  1.3351  0.3474
  919SOL     OW 4624   3.157   3.778   7.812  0.5892  0.5925  0.1598
  919SOL    HW1 4625   3.242   3.804   7.776  0.2219  1.2284 -0.2843
  919SOL    HW2 4626   3.113   3.733   7.740  0.2345  1.0031  0.1123
  920SOL     OW 4627   1.138   7.427   1.797 -0.0060 -0.6002 -0.0299
  920SOL    HW1 4628   1.130   7.496   1.864  0.8707 -0.3183 -0.2002
  920SOL    HW2 4629   1.119   7.472   1.714  0.4300 -0.5851 -0.1260
  921SOL     OW 4630   4.556   0.474   5.549 -0.1440 -0.5268  0.2534
  921SOL    HW1 4631   4.467   0.466   5.514 -0.6405  0.0808  1.3202
  921SOL    HW2 4632   4.579   0.566   5.534 -0.0851 -0.4406  0.8362
  922SOL     OW 4633   5.101   4.767   5.671  0.1357 -0.3773 -0.4752
  922SOL    HW1 4634   5.108   4.672   5.679 -0.9500 -0.4859 -0.5886
  922SOL    HW2 4635   5.175   4.801   5.721 -1.0007 -1.2440  1.9573
  923SOL     OW 4636   4.750   6.570   3.316  0.1368 -0.8929  0.3181
  923SOL    HW1 4637   4.672   6.544   3.268 -0.6625  0.7865  0.6276
  923SOL    HW2 4638   4.718   6.597   3.402  1.4100 -2.8028  1.4700
  924SOL     OW 4639   0.157   0.231   7.865  0.1159 -0.3088  0.6014
  924SOL    HW1 4640   0.202   0.277   7.793 -1.8175 -0.5731 -0.8649
  924SOL    HW2 4641   0.178   0.139   7.852  0.0334 -0.3247  0.5810
  925SOL     OW 4642   5.579   3.392   3.566 -0.3668 -0.3013 -0.6152
  925SOL    HW1 4643   5.520   3.450   3.614  0.7721  0.5123 -0.1550
  925SOL    HW2 4644   5.580   3.428   3.477  0.9793  0.9361 -0.1338
  926SOL     OW 4645   6.681   4.824   8.444  0.2792 -0.1171 -0.1938
  926SOL    HW1 4646   6.660   4.756   8.380 -1.7905 -1.2958  1.6096
  926SOL    HW2 4647   6.699   4.777   8.525  0.5886  1.4260  0.6845
  927SOL     OW 4648   5.298   4.450   7.591  0.5305 -0.5300 -0.0283
  927SOL    HW1 4649   5.355   4.437   7.668 -0.3962  0.0358  0.7762
  927SOL    HW2 4650   5.359   4.459   7.518  1.4499 -0.8334  0.6740
  928SOL     OW 4651   1.318   0.321   7.049 -0.2245 -0.4387 -0.2205
  928SOL    HW1 4652   1.283   0.359   6.968  1.5583  1.7002 -0.0723
  928SOL    HW2 4653   1.409   0.299   7.028  0.2376  0.0607  1.1651
  929SOL     OW 4654   8.456   2.357   3.047 -0.1481  0.3047  0.0815
  929SOL    HW1 4655   8.364   2.334   3.040  0.0106 -0.0083 -1.1441
  929SOL    HW2 4656   8.503   2.278   3.021  0.4257  1.2655 -2.0150
  930SOL     OW 4657   0.034   1.378   0.909 -0.3218 -1.0120  0.3732
  930SOL    HW1 4658  -0.060   1.362   0.896 -0.7198  2.0032 -1.2725
  930SOL    HW2 4659   0.058   1.441   0.841  2.6535 -0.7786  1.4762
  931SOL     OW 4660   7.205   5.792   2.655 -0.2440  0.4752  0.4710
  931SOL    HW1 4661   7.257   5.727   2.609 -0.1400  0.3461  0.7653
  931SOL    HW2 4662   7.132   5.811   2.596 -0.7166 -0.5181  0.7213
  932SOL     OW 4663   3.872   4.828   0.449 -0.7300  0.4681  0.1020
  932SOL    HW1 4664   3.905   4.897   0.391  0.0769 -0.8174 -1.0273
  932SOL    HW2 4665   3.843   4.759   0.389 -0.9440 -0.4298  1.2128
  933SOL     OW 4666   7.576   0.636   6.611 -0.1541  0.2825 -0.4109
  933SOL    HW1 4667   7.608   0.547   6.599  1.8171  0.9839 -0.7413
  933SOL    HW2 4668   7.573   0.673   6.523  1.1733  1.1909 -0.1127
  934SOL     OW 4669   8.008   6.761   5.585  0.5333 -0.5002 -0.0094
  934SOL    HW1 4670   8.052   6.810   5.654 -0.2933  1.3482 -0.7255
  934SOL    HW2 4671   7.962   6.827   5.534 -0.7015 -2.0459 -1.0108
  935SOL     OW 4672   0.746   2.770   5.479  0.4170  0.8872  0.1651
  935SOL    HW1 4673   0.771   2.802   5.566  2.6804 -1.8612  0.6327
  935SOL    HW2 4674   0.818   2.714   5.451 -1.5861 -0.7354 -2.2055
  936SOL     OW 4675   7.798   8.945   8.312  0.3483  0.3645  0.1574
  936SOL    HW1 4676   7.747   9.025   8.316 -0.2334  0.0081 -0.0246
  936SOL    HW2 4677   7.847   8.943   8.394  1.1906  1.4431 -0.3030
  937SOL     OW 4678   3.010   2.610   8.850  0.0780 -0.2313  0.6874
  937SOL    HW1 4679   2.935   2.620   8.791  0.8929 -0.5754 -0.4319
  937SOL    HW2 4680   2.972   2.576   8.931 -0.8428 -1.4253 -0.2154
  938SOL     OW 4681   3.743   1.846   3.805 -0.3818 -0.1711  0.0111
  938SOL    HW1 4682   3.658   1.801   3.802 -0.9183  0.8578 -1.5491
  938SOL    HW2 4683   3.804   1.780   3.836 -1.6764 -1.0552  0.7865
  939SOL     OW 4684   0.882   4.272   8.564  0.9111 -0.0528 -0.0722
  939SOL    HW1 4685   0.820   4.340   8.538  0.8997 -0.3970 -0.9794
  939SOL    HW2 4686   0.882   4.275   8.660  0.6267  0.9606 -0.0887
  940SOL     OW 4687   3.122   2.491   3.002  0.0869 -0.3178 -0.6240
  940SOL    HW1 4688   3.080   2.409   3.030 -1.4376  0.6753  0.1209
  940SOL    HW2 4689   3.120   2.486   2.906 -1.1465 -0.6245 -0.6053
  941SOL     OW 4690   3.791   2.586   0.727 -0.2911 -0.7093  0.0237
  941SOL    HW1 4691   3.703   2.562   0.756  0.0220 -1.2329  0.5640
  941SOL    HW2 4692   3.845   2.581   0.806  0.0604  0.4646 -0.1295
  942SOL     OW 4693   5.514   4.652   2.690 -0.0309 -0.3512  0.1807
  942SOL    HW1 4694   5.524   4.557   2.675 -0.6153 -0.2561 -0.9484
  942SOL    HW2 4695   5.582   4.673   2.754  0.5838 -1.4120 -0.0837
  943SOL     OW 4696   8.534   1.371   1.018 -0.9209 -0.7450  0.1378
  943SOL    HW1 4697   8.449   1.360   0.975 -0.3062 -0.0557 -1.2954
  943SOL    HW2 4698   8.543   1.465   1.030 -0.8507 -0.8884  1.3530
  944SOL     OW 4699   4.010   7.426   0.212 -0.2548  0.4913 -0.0313
  944SOL    HW1 4700   4.074   7.484   0.172  0.3002  0.0985  0.2706
  944SOL    HW2 4701   3.968   7.381   0.138  1.7675 -1.3080 -0.1911
  945SOL     OW 4702   0.489   4.054   7.434  0.2619 -0.2337  0.5976
  945SOL    HW1 4703   0.525   3.990   7.372 -2.4758 -0.6183 -0.7540
  945SOL    HW2 4704   0.498   4.138   7.390 -0.1529 -0.2894  0.4002
  946SOL     OW 4705   2.932   3.298   4.794  0.8235 -0.7851  0.0326
  946SOL    HW1 4706   2.855   3.282   4.848  0.1830  1.2307 -0.1873
  946SOL    HW2 4707   2.998   3.331   4.855  0.0259  1.7180 -0.3002
  947SOL     OW 4708   2.431   4.447   1.501  0.1682  0.7096 -0.4785
  947SOL    HW1 4709   2.475   4.488   1.426 -1.0920  2.0825 -0.5243
  947SOL    HW2 4710   2.496   4.387   1.537  1.5104  1.5069 -1.4546
  948SOL     OW 4711   4.961   2.799   0.775 -0.4489 -0.1365  0.3743
  948SOL    HW1 4712   4.928   2.863   0.713  0.2847  1.3564  1.4361
  948SOL    HW2 4713   5.044   2.837   0.806  0.9632 -2.4739 -0.2787
  949SOL     OW 4714   7.507   3.083   0.011 -0.4073  0.3786 -0.0680
  949SOL    HW1 4715   7.450   3.027   0.064  1.0094 -1.2483 -0.1785
  949SOL    HW2 4716   7.571   3.117   0.073 -0.3903  0.6969 -0.2605
  950SOL     OW 4717   3.578   8.952   2.136  0.0411 -0.7007 -0.2270
  950SOL    HW1 4718   3.645   8.999   2.185  0.4143 -0.8588 -0.5788
  950SOL    HW2 4719   3.565   8.871   2.185  1.4980 -1.5540 -1.1617
  951SOL     OW 4720   0.386   2.347   2.134  0.7905 -0.1948  0.4737
  951SOL    HW1 4721   0.379   2.341   2.038  1.3642  3.1377  0.0842
  951SOL    HW2 4722   0.468   2.304   2.155  1.3002  0.1289 -0.7317
  952SOL     OW 4723   4.961   5.367   3.179 -0.4842  0.1433  0.4255
  952SOL    HW1 4724   4.893   5.300   3.185  0.8159 -1.1482  1.4907
  952SOL    HW2 4725   5.032   5.326   3.130  0.2348  0.8302  0.8575
  953SOL     OW 4726   3.371   0.119   2.039  1.0630 -0.2177 -0.2984
  953SOL    HW1 4727   3.408   0.065   1.970  1.6356  0.1989 -0.3282
  953SOL    HW2 4728   3.412   0.088   2.119  2.0324  0.7085 -0.4170
  954SOL     OW 4729   4.856   6.965   8.518 -0.5836  0.1967 -0.2910
  954SOL    HW1 4730   4.834   6.947   8.609  1.5765 -0.0259  0.2244
  954SOL    HW2 4731   4.945   6.999   8.520 -0.8449  1.1623 -2.2435
  955SOL     OW 4732   0.223   6.351   3.584 -0.3183 -0.8835 -0.2888
  955SOL    HW1 4733   0.310   6.350   3.543  0.7714  0.8992  1.7930
  955SOL    HW2 4734   0.227   6.283   3.651 -0.7967 -1.2470 -0.6181
  956SOL     OW 4735   2.931   3.702   8.516  0.0565  0.1268 -0.0618
  956SOL    HW1 4736   3.016   3.671   8.547 -0.4280  0.0022  1.1959
  956SOL    HW2 4737   2.898   3.631   8.460  0.0795 -0.5337  0.7481
  957SOL     OW 4738   2.657   6.094   5.717  0.9637 -0.6273 -0.0300
  957SOL    HW1 4739   2.685   6.186   5.720 -0.3401 -0.1087 -1.8457
  957SOL    HW2 4740   2.732   6.045   5.749  1.3042  1.1295  2.0746
  958SOL     OW 4741   8.179   3.032   4.629 -0.2053  0.3319 -0.0369
  958SOL    HW1 4742   8.267   3.008   4.599 -0.0552  1.4778 -0.5846
  958SOL    HW2 4743   8.194   3.096   4.698 -0.6101 -0.0084  0.3728
  959SOL     OW 4744   1.833   5.961   5.465  0.0548  0.1481  0.6481
  959SOL    HW1 4745   1.740   5.969   5.486 -0.5616 -1.8403 -1.0205
  959SOL    HW2 4746   1.856   6.046   5.428 -1.5130  0.1872 -0.3302
  960SOL     OW 4747   0.502   7.364   0.381 -0.6349 -0.7465  0.2380
  960SOL    HW1 4748   0.491   7.375   0.286 -0.1603 -1.2793  0.1125
  960SOL    HW2 4749   0.462   7.442   0.419  2.1643  1.2529 -0.5723
  961SOL     OW 4750   5.677   8.057   1.653  0.1198 -0.6153 -0.2383
  961SOL    HW1 4751   5.648   7.987   1.712 -2.3432 -0.7231 -1.4802
  961SOL    HW2 4752   5.661   8.138   1.702 -3.2763 -0.6059 -1.1213
  962SOL     OW 4753   6.331   3.795   2.023  1.0114  0.7583  0.3835
  962SOL    HW1 4754   6.417   3.836   2.037  1.6727 -0.2629 -0.5125
  962SOL    HW2 4755   6.269   3.855   2.063  2.2815  0.7258  2.5509
  963SOL     OW 4756   5.091   0.580   8.535  0.0762  0.1595 -0.2310
  963SOL    HW1 4757   5.147   0.519   8.488  0.1398  0.1093 -0.0891
  963SOL    HW2 4758   5.002   0.544   8.525  0.1364 -0.0559  0.0117
  964SOL     OW 4759   6.678   3.835   8.431  0.2081 -0.6542 -0.0828
  964SOL    HW1 4760   6.630   3.752   8.419  0.7168 -0.8840 -0.5882
  964SOL    HW2 4761   6.740   3.816   8.501  0.0512 -0.5796  0.0756
  965SOL     OW 4762   7.288   4.453   5.188  0.1794  0.0494  0.1294
  965SOL    HW1 4763   7.194   4.468   5.203  0.3019  1.3732 -0.2595
  965SOL    HW2 4764   7.304   4.491   5.102  0.7827 -1.5543 -0.4842
  966SOL     OW 4765   7.779   3.898   7.215  0.1128 -0.2903 -0.0192
  966SOL    HW1 4766   7.849   3.835   7.234  1.9242  1.4903 -0.3784
  966SOL    HW2 4767   7.708   3.874   7.275  0.5313 -2.8968 -0.4589
  967SOL     OW 4768   2.953   0.137   1.050 -0.5463 -0.4372 -0.0375
  967SOL    HW1 4769   2.913   0.050   1.054 -1.0056 -0.2010  0.7581
  967SOL    HW2 4770   3.012   0.141   1.125 -3.6854  1.4136  2.5994
  968SOL     OW 4771   7.839   6.877   6.911 -0.0525  0.5881  1.1352
  968SOL    HW1 4772   7.860   6.924   6.830 -1.3597  0.6336  0.8096
  968SOL    HW2 4773   7.833   6.785   6.884  1.0789  0.3819  1.5029
  969SOL     OW 4774   4.560   4.882   2.879  0.5463  0.7618 -0.0312
  969SOL    HW1 4775   4.499   4.909   2.947  0.9758 -0.1080  0.7299
  969SOL    HW2 4776   4.510   4.885   2.798 -0.2953  0.7383  0.4832
  970SOL     OW 4777   2.656   6.441   0.170  0.2528  0.0640 -1.1157
  970SOL    HW1 4778   2.699   6.477   0.248 -0.4678 -2.7714  0.7435
  970SOL    HW2 4779   2.724   6.387   0.128  0.1268  0.1642 -1.4526
  971SOL     OW 4780   0.256   2.965   2.696 -0.0044  0.3552  0.2900
  971SOL    HW1 4781   0.340   2.919   2.691 -0.0579  0.2477  0.3737
  971SOL    HW2 4782   0.280   3.057   2.707  0.1042  0.3072  0.4639
  972SOL     OW 4783   7.002   5.404   0.883 -0.0437 -0.5277 -0.9138
  972SOL    HW1 4784   6.981   5.311   0.873  2.1543 -1.0393 -1.2482
  972SOL    HW2 4785   6.934   5.449   0.833 -1.6949 -1.8575 -0.0081
  973SOL     OW 4786   8.726   4.443   7.578  0.3455 -0.0035 -0.7045
  973SOL    HW1 4787   8.661   4.505   7.545 -1.1772 -0.6984  0.8388
  973SOL    HW2 4788   8.750   4.391   7.502 -2.9970 -1.5264 -0.9197
  974SOL     OW 4789   4.425   0.921   7.142 -0.4544 -0.2850  0.2241
  974SOL    HW1 4790   4.348   0.975   7.121 -0.4028 -0.4522 -0.4382
  974SOL    HW2 4791   4.391   0.831   7.144 -0.2361 -0.3878 -0.3452
  975SOL     OW 4792   4.584   5.331   0.660 -0.4208 -0.8286  0.1593
  975SOL    HW1 4793   4.599   5.416   0.618  0.8747  0.0680  2.2620
  975SOL    HW2 4794   4.510   5.346   0.719  1.0830 -0.4923  2.0581
  976SOL     OW 4795   3.940   4.517   0.056 -0.1763  0.2337  0.0338
  976SOL    HW1 4796   3.993   4.583   0.012  0.2455  0.2976  0.6322
  976SOL    HW2 4797   4.003   4.451   0.086 -0.0562  1.5538  3.0123
  977SOL     OW 4798   7.053   4.894   7.893  0.7679  0.4652 -0.3679
  977SOL    HW1 4799   7.107   4.816   7.881 -0.6574 -0.7131  0.4062
  977SOL    HW2 4800   7.029   4.892   7.986 -1.9429 -0.0814 -0.9765
  978SOL     OW 4801   7.261   3.417   0.971  0.0268 -0.4862  0.1380
  978SOL    HW1 4802   7.302   3.401   0.886 -1.0351 -0.8058 -0.3228
  978SOL    HW2 4803   7.293   3.504   0.997 -0.3122 -0.0066 -0.9961
  979SOL     OW 4804   5.089   3.209   0.470 -0.2404 -0.4047 -0.1650
  979SOL    HW1 4805   5.023   3.279   0.470 -0.0016 -0.1392  1.7680
  979SOL    HW2 4806   5.155   3.239   0.408 -0.7137  0.5296 -0.2425
  980SOL     OW 4807   0.386   2.785   7.338  0.1960 -0.1229  0.5825
  980SOL    HW1 4808   0.371   2.871   7.376 -0.9211  0.7064 -1.5851
  980SOL    HW2 4809   0.304   2.762   7.295  1.2923 -1.0449 -1.1538
  981SOL     OW 4810   3.487   8.380   8.851 -0.0173  0.1699 -0.4616
  981SOL    HW1 4811   3.410   8.436   8.863 -1.5099 -1.8858 -0.0449
  981SOL    HW2 4812   3.502   8.340   8.937  0.0531 -1.2628 -1.1162
  982SOL     OW 4813   6.633   1.215   3.746 -0.2912  0.1530 -0.2310
  982SOL    HW1 4814   6.667   1.177   3.827 -2.8739 -0.9395  0.4379
  982SOL    HW2 4815   6.668   1.158   3.677  0.4259 -0.0126  0.2515
  983SOL     OW 4816   7.624   1.455   7.230 -0.3376  0.1919  0.7448
  983SOL    HW1 4817   7.628   1.549   7.212 -1.5583 -0.0106 -0.7891
  983SOL    HW2 4818   7.697   1.418   7.179 -0.6900  0.1661  0.2561
  984SOL     OW 4819   1.183   3.605   2.777  0.2724  0.0426 -0.3938
  984SOL    HW1 4820   1.182   3.610   2.873  1.7497 -0.6867 -0.3001
  984SOL    HW2 4821   1.226   3.685   2.749  2.6745 -1.0983 -0.2239
  985SOL     OW 4822   4.704   8.694   8.733  0.2987 -0.0270 -0.0807
  985SOL    HW1 4823   4.666   8.608   8.754  1.6267 -0.1252  2.3262
  985SOL    HW2 4824   4.693   8.703   8.639 -0.4722 -2.5506 -0.3108
  986SOL     OW 4825   3.443   2.401   2.914  0.0650 -0.9038 -0.2722
  986SOL    HW1 4826   3.423   2.339   2.845  0.9463 -2.2200  0.5959
  986SOL    HW2 4827   3.382   2.380   2.984 -0.8655  0.4572 -0.6387
  987SOL     OW 4828   1.660   4.194   4.957  0.3984  0.3136 -0.6727
  987SOL    HW1 4829   1.636   4.144   5.035  0.4560  1.6190  0.2078
  987SOL    HW2 4830   1.754   4.208   4.966  0.3680  0.6393 -0.8816
  988SOL     OW 4831   2.639   5.126   0.220  0.2508  0.1814 -0.4800
  988SOL    HW1 4832   2.640   5.215   0.254 -1.7642 -0.6409  2.1566
  988SOL    HW2 4833   2.549   5.112   0.190  0.7031 -0.7733 -1.4794
  989SOL     OW 4834   0.094   3.600   8.777  0.0729  0.2921 -0.4838
  989SOL    HW1 4835   0.133   3.576   8.861 -1.8667  0.1031  0.4171
  989SOL    HW2 4836   0.164   3.585   8.713  1.3954 -0.1654  0.9993
  990SOL     OW 4837   0.328   5.166   4.600 -0.3083  0.1370  0.2292
  990SOL    HW1 4838   0.360   5.146   4.688  1.4089  0.3194 -0.3030
  990SOL    HW2 4839   0.337   5.261   4.593 -1.8530  0.3134  0.3504
  991SOL     OW 4840   5.276   0.004   1.682 -0.2091 -0.0660  0.2964
  991SOL    HW1 4841   5.341   0.054   1.632 -1.9775  0.7604 -1.2675
  991SOL    HW2 4842   5.326  -0.069   1.718  1.3139 -0.3531 -2.1454
  992SOL     OW 4843   7.285   5.365   7.046  0.1339 -0.0925 -0.4748
  992SOL    HW1 4844   7.306   5.283   7.092 -0.9219 -0.2963 -0.3145
  992SOL    HW2 4845   7.322   5.434   7.101 -0.4076 -0.3799  0.2723
  993SOL     OW 4846   7.809   3.653   5.318  0.0324 -0.1911  0.1247
  993SOL    HW1 4847   7.862   3.604   5.380  1.9055 -0.7050 -1.7799
  993SOL    HW2 4848   7.771   3.586   5.260 -2.1965  0.2196  1.0067
  994SOL     OW 4849   8.182   4.399   8.883  0.0312  0.1102 -0.0483
  994SOL    HW1 4850   8.152   4.309   8.897 -0.9772  0.1623 -1.6239
  994SOL    HW2 4851   8.108   4.442   8.841  1.3042  1.0639 -1.4059
  995SOL     OW 4852   0.690   1.623   8.152  0.4832  0.4146 -0.2318
  995SOL    HW1 4853   0.735   1.699   8.189 -2.4406  1.4430  1.4655
  995SOL    HW2 4854   0.707   1.553   8.215 -0.4166  0.8670  0.5402
  996SOL     OW 4855   1.399   5.097   5.990  0.3175 -0.1503  0.7703
  996SOL    HW1 4856   1.338   5.170   6.004 -1.9373 -2.2143  2.9007
  996SOL    HW2 4857   1.453   5.096   6.069 -0.4164 -1.3919  1.2767
  997SOL     OW 4858   7.464   8.249   5.027 -0.0465 -0.5422 -0.0135
  997SOL    HW1 4859   7.544   8.284   5.065 -0.4252  0.6332 -0.2594
  997SOL    HW2 4860   7.461   8.158   5.057  1.3597 -0.5953 -0.0014
  998SOL     OW 4861   8.752   5.933   6.464  0.0205  0.0660  0.4761
  998SOL    HW1 4862   8.821   5.915   6.528  0.0256 -0.2801  0.3735
  998SOL    HW2 4863   8.794   5.992   6.401  0.4371 -0.6768  0.0438
  999SOL     OW 4864   2.656   3.290   6.751 -0.0169 -0.1215  0.3109
  999SOL    HW1 4865   2.596   3.276   6.824  0.7097 -2.2292  0.5788
  999SOL    HW2 4866   2.607   3.344   6.689 -1.1228  0.6057  1.7723
 1000SOL     OW 4867   6.912   6.959   1.816 -0.6575 -0.3394  0.0490
 1000SOL    HW1 4868   6.888   7.043   1.856 -1.3297 -0.0485 -0.9155
 1000SOL    HW2 4869   6.982   6.982   1.754 -0.4477 -0.5916  0.1894
 1001SOL     OW 4870   5.900   8.253   0.525  0.0741 -0.2349 -0.2216
 1001SOL    HW1 4871   5.876   8.161   0.511  1.2986 -1.0537  2.3842
 1001SOL    HW2 4872   5.995   8.255   0.514  0.0131  0.8357 -0.6760
 1002SOL     OW 4873   1.235   5.402   4.217  0.0048  0.3318 -0.0750
 1002SOL    HW1 4874   1.200   5.392   4.129 -0.8701  0.8035  0.2038
 1002SOL    HW2 4875   1.243   5.497   4.229 -1.1199  0.3429  0.8005
 1003SOL     OW 4876   1.085   8.115   6.728 -0.6462 -0.3643 -0.3628
 1003SOL    HW1 4877   1.124   8.176   6.790  1.2711 -2.2602  0.4337
 1003SOL    HW2 4878   1.065   8.168   6.651  0.3971  1.3566  0.5029
 1004SOL     OW 4879   7.739   7.030   4.296 -0.0552  0.1569  0.5603
 1004SOL    HW1 4880   7.741   6.935   4.302 -2.3084  0.0111  0.1178
 1004SOL    HW2 4881   7.684   7.058   4.370 -2.1205  0.7824 -1.1033
 1005SOL     OW 4882   2.879   3.807   4.464 -0.4550 -0.2413  0.5315
 1005SOL    HW1 4883   2.874   3.774   4.375  0.9370 -0.7725  0.6305
 1005SOL    HW2 4884   2.929   3.740   4.512  3.3172  2.2733  0.5312
 1006SOL     OW 4885   6.508   1.508   7.412  0.2934 -0.2932 -0.2555
 1006SOL    HW1 4886   6.474   1.540   7.495  1.2161  1.2744 -0.4435
 1006SOL    HW2 4887   6.561   1.432   7.435 -0.3750 -0.5607  0.4427
 1007SOL     OW 4888   1.925   2.044   0.349  0.6117  0.5408  0.3826
 1007SOL    HW1 4889   1.988   2.116   0.345  0.7450  0.3926 -0.3395
 1007SOL    HW2 4890   1.939   1.996   0.267 -1.2264  1.1828 -0.3647
 1008SOL     OW 4891   4.620   3.934   8.560 -0.0695  0.1644 -0.0242
 1008SOL    HW1 4892   4.531   3.908   8.585  0.0450  0.3623  0.6142
 1008SOL    HW2 4893   4.607   4.007   8.500 -0.3275  0.5183  0.4593
 1009SOL     OW 4894   1.852   6.156   0.256  0.1134  0.1151  0.4288
 1009SOL    HW1 4895   1.891   6.093   0.195  0.0076 -1.1002  1.5814
 1009SOL    HW2 4896   1.883   6.129   0.342 -0.4670  1.2529  1.0151
 1010SOL     OW 4897   2.275   3.483   0.375  0.2942  0.1952 -0.6639
 1010SOL    HW1 4898   2.300   3.524   0.458  1.7707  0.0579 -1.0164
 1010SOL    HW2 4899   2.357   3.450   0.338 -0.5672 -1.2458 -1.3913
 1011SOL     OW 4900   3.664   2.526   6.423 -0.2449 -0.0405 -0.4348
 1011SOL    HW1 4901   3.662   2.431   6.431 -0.0664 -0.0632 -0.6316
 1011SOL    HW2 4902   3.695   2.541   6.334 -1.7316  0.1935 -0.9425
 1012SOL     OW 4903   6.572   2.254   4.821  0.9754 -0.1204  0.2887
 1012SOL    HW1 4904   6.544   2.233   4.732  3.5116  1.1743 -0.9015
 1012SOL    HW2 4905   6.574   2.170   4.866 -0.8822 -0.7283 -0.6439
 1013SOL     OW 4906   3.479   0.054   8.663  0.3861 -0.4160  0.3709
 1013SOL    HW1 4907   3.545  -0.015   8.667  1.6115  0.6772  0.0655
 1013SOL    HW2 4908   3.530   0.135   8.663 -0.9725  0.4755  0.0198
 1014SOL     OW 4909   3.698   3.654   1.889  0.0470  0.0203 -0.0069
 1014SOL    HW1 4910   3.619   3.706   1.876  1.1510  1.2447 -2.4443
 1014SOL    HW2 4911   3.718   3.663   1.982 -2.6676 -0.3885  0.7003
 1015SOL     OW 4912   0.635   3.891   0.092  0.5245 -0.4021  0.4223
 1015SOL    HW1 4913   0.644   3.836   0.170  2.2057 -0.7205  0.0427
 1015SOL    HW2 4914   0.568   3.847   0.040  1.3110 -1.7193  0.4649
 1016SOL     OW 4915   6.082   8.176   7.927 -0.4111 -0.7360 -0.1764
 1016SOL    HW1 4916   6.082   8.121   7.849  0.3268  0.0562 -0.7472
 1016SOL    HW2 4917   5.996   8.219   7.926 -0.5639 -1.0366 -0.3112
 1017SOL     OW 4918   4.313   8.693   1.309 -1.0734  0.0025 -0.6112
 1017SOL    HW1 4919   4.301   8.657   1.221 -0.9421 -0.0786 -0.5953
 1017SOL    HW2 4920   4.391   8.749   1.302 -1.6431  0.7938 -0.7944
 1018SOL     OW 4921   0.882   5.407   8.244 -0.3067 -0.4989  0.3105
 1018SOL    HW1 4922   0.860   5.318   8.270  1.9206 -1.0807  0.4055
 1018SOL    HW2 4923   0.826   5.425   8.169 -1.7060 -1.4694  1.0721
 1019SOL     OW 4924   5.833   7.398   1.152 -0.5892  0.0525 -0.0616
 1019SOL    HW1 4925   5.778   7.352   1.088 -0.0394 -0.7769  0.0611
 1019SOL    HW2 4926   5.774   7.463   1.191 -1.7377 -1.3671  0.6602
 1020SOL     OW 4927   6.400   5.677   0.374 -0.5753 -0.7011 -0.1556
 1020SOL    HW1 4928   6.308   5.659   0.360 -0.9046 -0.5305  1.4943
 1020SOL    HW2 4929   6.440   5.674   0.287 -2.7240  2.6362 -1.4416
 1021SOL     OW 4930   5.949   0.880   3.858  0.5251  0.4310 -0.1317
 1021SOL    HW1 4931   6.016   0.834   3.909  0.2852 -1.0977 -1.1341
 1021SOL    HW2 4932   5.879   0.816   3.845 -0.8297  1.7607  0.2489
 1022SOL     OW 4933   5.591   7.975   3.343  0.4728  0.0849  0.0004
 1022SOL    HW1 4934   5.567   7.896   3.295 -0.5614  0.8384 -0.7701
 1022SOL    HW2 4935   5.507   8.019   3.359  1.1172  1.6002 -0.6050
 1023SOL     OW 4936   3.995   7.014   6.253  0.4806  0.0086  0.1712
 1023SOL    HW1 4937   3.949   7.002   6.336  1.3015 -1.3801  0.4558
 1023SOL    HW2 4938   4.086   7.030   6.278  0.7582 -0.5534 -0.4610
 1024SOL     OW 4939   7.987   0.753   7.578 -0.5387 -0.0414 -0.5443
 1024SOL    HW1 4940   7.968   0.773   7.669 -0.6300 -0.3724 -0.4900
 1024SOL    HW2 4941   7.926   0.808   7.528  1.4531  2.3612 -0.5086
 1025SOL     OW 4942   8.273   7.608   3.443 -0.9211 -0.7030  0.2037
 1025SOL    HW1 4943   8.239   7.532   3.397  0.0118 -1.8424  1.3345
 1025SOL    HW2 4944   8.358   7.625   3.402 -1.9544  1.0006 -1.3778
 1026SOL     OW 4945   2.441   5.213   6.075  0.1749  0.1632 -0.3220
 1026SOL    HW1 4946   2.383   5.156   6.125 -0.9375  1.8915  0.4429
 1026SOL    HW2 4947   2.400   5.299   6.080  2.7756  1.4629  0.1907
 1027SOL     OW 4948   5.406   5.348   3.814  0.1072  0.5633  0.3994
 1027SOL    HW1 4949   5.316   5.364   3.842 -0.0093 -0.6472  0.7816
 1027SOL    HW2 4950   5.445   5.435   3.807 -1.1121  1.1080  0.1572
 1028SOL     OW 4951   2.877   6.147   1.199 -0.8850  0.0228 -0.0064
 1028SOL    HW1 4952   2.925   6.172   1.121  1.4812 -1.9690  0.6622
 1028SOL    HW2 4953   2.904   6.211   1.265  0.5005 -0.7467  0.2134
 1029SOL     OW 4954   3.738   6.945   6.418 -0.8386 -0.0001 -0.1792
 1029SOL    HW1 4955   3.662   7.000   6.438 -0.7691  0.0825 -0.1411
 1029SOL    HW2 4956   3.730   6.926   6.325 -0.8077  0.1595 -0.2144
 1030SOL     OW 4957   0.052   3.038   2.492  0.1940  0.5981 -0.2598
 1030SOL    HW1 4958   0.115   3.010   2.558 -1.9934 -1.6459  1.0794
 1030SOL    HW2 4959  -0.018   3.080   2.542  0.1596  2.2400 -1.6030
 1031SOL     OW 4960   2.218   0.342   5.334  0.1673 -0.0279  0.3391
 1031SOL    HW1 4961   2.217   0.307   5.423 -0.6544 -3.8029 -0.9471
 1031SOL    HW2 4962   2.130   0.377   5.321 -0.6429 -1.9274  0.2856
 1032SOL     OW 4963   2.996   7.489   0.769 -0.6770  0.3321  0.6230
 1032SOL    HW1 4964   3.013   7.413   0.826  0.8241  0.5125  0.4468
 1032SOL    HW2 4965   3.045   7.561   0.810 -0.3091  0.6795 -0.4006
 1033SOL     OW 4966   7.673   5.498   6.414 -0.3049  0.0222  0.0450
 1033SOL    HW1 4967   7.625   5.435   6.361 -0.3865  0.1944 -0.0899
 1033SOL    HW2 4968   7.647   5.583   6.379  0.2886  0.1094 -0.1897
 1034SOL     OW 4969   5.887   8.971   6.814 -0.6073 -0.0602 -0.4425
 1034SOL    HW1 4970   5.935   8.900   6.857 -1.0999 -0.2045 -0.1212
 1034SOL    HW2 4971   5.868   9.033   6.885 -0.0535  0.4700 -0.7474
 1035SOL     OW 4972   1.214   8.967   0.840  0.5181  0.2029 -0.1098
 1035SOL    HW1 4973   1.143   8.903   0.836  0.9433 -0.2962  0.2706
 1035SOL    HW2 4974   1.170   9.052   0.837 -0.1612 -0.0867  1.0275
 1036SOL     OW 4975   0.343   3.234   1.712  0.7713  0.3404 -0.3154
 1036SOL    HW1 4976   0.390   3.179   1.650 -0.5641 -3.7597  1.9370
 1036SOL    HW2 4977   0.270   3.270   1.662  1.4483 -0.2641 -1.7909
 1037SOL     OW 4978   5.232   4.082   6.181 -0.7557 -0.6559  0.1694
 1037SOL    HW1 4979   5.254   3.988   6.182  0.0926 -0.4603  0.8128
 1037SOL    HW2 4980   5.279   4.119   6.256  0.3342  0.5812 -1.0617
 1038SOL     OW 4981   2.372   5.316   2.400 -0.2411  0.4638  0.4834
 1038SOL    HW1 4982   2.426   5.242   2.371 -1.1689  0.3905 -1.1546
 1038SOL    HW2 4983   2.423   5.357   2.470  1.6290  0.0150 -0.5581
 1039SOL     OW 4984   6.724   0.040   1.206 -0.3179  0.3016  0.2788
 1039SOL    HW1 4985   6.631   0.016   1.202  0.0407 -1.0728 -0.3611
 1039SOL    HW2 4986   6.770  -0.038   1.176  0.9780  1.5640 -1.1838
 1040SOL     OW 4987   6.453   4.699   2.383 -0.2052  0.2281 -0.0584
 1040SOL    HW1 4988   6.404   4.626   2.345  2.0852 -1.1463 -0.5267
 1040SOL    HW2 4989   6.530   4.709   2.327  0.9908  1.1159  1.6489
 1041SOL     OW 4990   7.532   3.828   5.857  0.0851  0.9200  0.2548
 1041SOL    HW1 4991   7.594   3.768   5.815  1.3591  2.1997  0.2425
 1041SOL    HW2 4992   7.533   3.906   5.803 -0.8633  1.3193  0.7802
 1042SOL     OW 4993   0.884   0.783   7.983 -0.0815  0.0198 -0.2437
 1042SOL    HW1 4994   0.832   0.766   8.061  1.2203 -0.7271  0.4865
 1042SOL    HW2 4995   0.889   0.879   7.978 -1.4035  0.1083 -0.2763
 1043SOL     OW 4996   4.907   4.758   8.388  0.3439  0.2351  0.2902
 1043SOL    HW1 4997   4.901   4.852   8.372  0.2601 -0.0145 -1.3216
 1043SOL    HW2 4998   4.963   4.726   8.318 -0.0325 -0.9904  0.5324
 1044SOL     OW 4999   8.313   3.592   1.594  0.2238  0.4130 -0.5774
 1044SOL    HW1 5000   8.372   3.585   1.518 -0.5888 -1.6124 -1.0853
 1044SOL    HW2 5001   8.235   3.544   1.568 -0.3099  0.1549  1.3615
 1045SOL     OW 5002   0.892   1.431   1.884  0.1473  0.0147  0.2568
 1045SOL    HW1 5003   0.906   1.492   1.811  0.8712  1.3208  1.4240
 1045SOL    HW2 5004   0.799   1.441   1.906  0.0733  0.0864 -0.0854
 1046SOL     OW 5005   0.773   6.030   1.852  0.0329  0.7236 -0.5097
 1046SOL    HW1 5006   0.849   6.081   1.822  0.9344  1.2997  2.4389
 1046SOL    HW2 5007   0.801   5.939   1.846  0.8287  0.9135  0.1671
 1047SOL     OW 5008   3.242   5.396   2.884 -0.2514  0.0544 -0.8178
 1047SOL    HW1 5009   3.246   5.367   2.975 -0.8998 -1.7739 -1.3312
 1047SOL    HW2 5010   3.235   5.315   2.834 -0.4660  1.0626 -2.4690
 1048SOL     OW 5011   7.515   7.975   4.930  0.1050 -0.1820  0.6706
 1048SOL    HW1 5012   7.502   7.997   4.838  0.3669 -0.3131  0.6012
 1048SOL    HW2 5013   7.452   7.905   4.948  1.0830 -1.2370  0.1759
 1049SOL     OW 5014   1.903   4.085   0.480 -0.0463  0.0144  0.1427
 1049SOL    HW1 5015   1.848   4.163   0.478 -1.2367 -0.8268 -0.7085
 1049SOL    HW2 5016   1.861   4.028   0.544  1.3550  0.4121  1.4908
 1050SOL     OW 5017   3.535   3.447   1.425 -0.9154 -0.3180 -0.0866
 1050SOL    HW1 5018   3.611   3.503   1.440 -1.5998  0.7210 -0.3629
 1050SOL    HW2 5019   3.525   3.397   1.506 -0.0685 -0.3294  0.0253
 1051SOL     OW 5020   2.149   5.687   1.955 -0.1017  0.1584  0.7328
 1051SOL    HW1 5021   2.211   5.665   2.024  0.0651 -2.1756 -0.0933
 1051SOL    HW2 5022   2.135   5.605   1.907 -0.6457  1.5389 -1.6536
 1052SOL     OW 5023   5.796   8.589   2.645  0.2781 -0.4940  0.4789
 1052SOL    HW1 5024   5.837   8.635   2.718 -1.3431 -1.0713  1.8400
 1052SOL    HW2 5025   5.767   8.505   2.683  1.0970 -1.6579 -1.3269
 1053SOL     OW 5026   0.561   6.832   7.346  0.1604 -0.1831 -0.0076
 1053SOL    HW1 5027   0.520   6.816   7.261  0.2686  1.6359 -0.4465
 1053SOL    HW2 5028   0.506   6.784   7.408 -0.5699 -0.6346 -0.9688
 1054SOL     OW 5029   4.714   5.421   4.757  0.2012 -0.6211 -0.0372
 1054SOL    HW1 5030   4.635   5.474   4.745 -0.6461 -1.8844 -0.1889
 1054SOL    HW2 5031   4.782   5.485   4.779 -0.7719  0.5314 -0.2538
 1055SOL     OW 5032   2.269   8.234   7.929 -0.1267  0.3899  0.1255
 1055SOL    HW1 5033   2.342   8.183   7.894 -0.6112  0.1619 -0.5793
 1055SOL    HW2 5034   2.305   8.279   8.005  0.7786  0.3811 -0.2900
 1056SOL     OW 5035   4.388   7.541   7.967  0.4623  0.2828 -0.3576
 1056SOL    HW1 5036   4.419   7.452   7.952 -0.3602  0.1805 -1.6491
 1056SOL    HW2 5037   4.458   7.597   7.932  0.5248  0.1213 -0.4925
 1057SOL     OW 5038   5.789   2.660   5.436 -0.4133  0.4767 -0.7396
 1057SOL    HW1 5039   5.879   2.691   5.434 -1.0274  2.5222  0.4607
 1057SOL    HW2 5040   5.751   2.700   5.514 -2.3366 -0.4611 -1.1181
 1058SOL     OW 5041   7.734   0.100   7.880  0.5272  0.0743  0.1589
 1058SOL    HW1 5042   7.705   0.166   7.817 -0.3088 -0.3372  0.0948
 1058SOL    HW2 5043   7.714   0.138   7.966  1.9243  0.7553  0.2171
 1059SOL     OW 5044   6.266   7.936   0.912 -0.1644  0.2043  0.2228
 1059SOL    HW1 5045   6.315   7.920   0.832  0.9081  1.6428  0.5586
 1059SOL    HW2 5046   6.327   7.980   0.971 -1.8836  2.3322  0.5605
 1060SOL     OW 5047   2.060   1.542   2.511  0.8230 -0.0456 -0.0321
 1060SOL    HW1 5048   2.030   1.501   2.593  1.3557 -0.5447 -0.0791
 1060SOL    HW2 5049   2.137   1.593   2.537  0.7463  0.1278 -0.1484
 1061SOL     OW 5050   4.243   5.911   8.632 -0.3271  0.2116 -0.5403
 1061SOL    HW1 5051   4.242   5.862   8.549 -3.7940  1.5508 -1.4725
 1061SOL    HW2 5052   4.279   5.996   8.609 -0.0628  0.1522 -0.3482
 1062SOL     OW 5053   1.626   4.088   5.206 -0.1027 -0.1478 -0.1314
 1062SOL    HW1 5054   1.543   4.101   5.252 -1.0465 -2.8731 -0.8749
 1062SOL    HW2 5055   1.692   4.126   5.264 -1.6695  0.2382  1.4843
 1063SOL     OW 5056   8.132   7.787   2.878  0.2706 -0.3699 -0.2217
 1063SOL    HW1 5057   8.153   7.802   2.970  0.2181 -1.2191 -0.0609
 1063SOL    HW2 5058   8.052   7.734   2.880 -1.0146  1.4485 -0.8040
 1064SOL     OW 5059   6.899   1.474   8.133 -0.0348 -0.0128  0.2374
 1064SOL    HW1 5060   6.909   1.506   8.222 -0.0065 -1.9785  0.9976
 1064SOL    HW2 5061   6.981   1.428   8.114 -0.9540 -1.7228  0.1663
 1065SOL     OW 5062   3.658   6.981   5.903 -0.6886  0.3239  0.6292
 1065SOL    HW1 5063   3.673   7.041   5.830 -0.7780  0.3835  0.6601
 1065SOL    HW2 5064   3.735   6.992   5.959 -0.5218  0.1253  0.4390
 1066SOL     OW 5065   2.915   4.305   8.503  0.2994 -0.1809  0.3470
 1066SOL    HW1 5066   2.965   4.369   8.552  1.0270 -0.3075 -0.2008
 1066SOL    HW2 5067   2.955   4.221   8.525  1.3280 -0.1472 -1.2197
 1067SOL     OW 5068   0.566   3.733   2.123 -0.2477 -0.2626 -0.0622
 1067SOL    HW1 5069   0.562   3.753   2.216 -1.7240  0.6984 -0.3111
 1067SOL    HW2 5070   0.568   3.818   2.079  2.0466 -0.6508 -0.9163
 1068SOL     OW 5071   1.285   4.542   4.736  0.3139 -0.5097  0.1129
 1068SOL    HW1 5072   1.244   4.456   4.728  1.0032 -1.1395  2.5317
 1068SOL    HW2 5073   1.377   4.524   4.755  1.4601  0.8666 -3.3025
 1069SOL     OW 5074   2.475   8.131   3.138 -0.0046 -0.3144  0.2366
 1069SOL    HW1 5075   2.479   8.051   3.085  3.3382  0.3801 -0.7644
 1069SOL    HW2 5076   2.486   8.202   3.075 -0.2669  0.7925  1.4081
 1070SOL     OW 5077   8.465   3.715   0.535  0.3923  0.1129  0.3263
 1070SOL    HW1 5078   8.468   3.622   0.514 -0.1689 -0.2463  1.6845
 1070SOL    HW2 5079   8.541   3.729   0.592  0.6036  0.5416 -0.0556
 1071SOL     OW 5080   5.922   2.912   0.426 -0.0924  0.3112  0.6513
 1071SOL    HW1 5081   5.979   2.939   0.354  1.1628 -1.8531  0.7101
 1071SOL    HW2 5082   5.951   2.822   0.446 -1.5071  0.2503  2.7532
 1072SOL     OW 5083   1.234   6.295   8.432 -0.3041 -0.8184 -0.3393
 1072SOL    HW1 5084   1.209   6.334   8.348 -0.7270 -0.0265  0.1350
 1072SOL    HW2 5085   1.227   6.368   8.495  1.2391 -1.0749  0.1654
 1073SOL     OW 5086   5.750   3.237   0.158  0.2488 -1.0120 -0.0628
 1073SOL    HW1 5087   5.788   3.200   0.078  0.2608  1.1863 -1.1495
 1073SOL    HW2 5088   5.802   3.200   0.229  0.5771 -2.6186 -1.0833
 1074SOL     OW 5089   7.481   0.888   0.527 -0.3562  0.0354 -0.2943
 1074SOL    HW1 5090   7.509   0.840   0.449 -2.2368 -1.8541  0.1099
 1074SOL    HW2 5091   7.538   0.855   0.597 -0.3849 -0.1993 -0.3812
 1075SOL     OW 5092   1.567   8.177   7.488  0.7240  0.1264 -1.2300
 1075SOL    HW1 5093   1.618   8.160   7.409 -0.4471  0.2701 -2.0372
 1075SOL    HW2 5094   1.477   8.184   7.458 -0.0962 -2.1769  0.4364
 1076SOL     OW 5095   5.532   3.429   6.354 -0.0136 -0.7038  0.0593
 1076SOL    HW1 5096   5.449   3.460   6.389 -0.3880 -0.6967 -0.8118
 1076SOL    HW2 5097   5.592   3.431   6.429 -0.4721  0.4659  0.4105
 1077SOL     OW 5098   6.634   8.097   0.707 -0.3734  0.4957 -0.0146
 1077SOL    HW1 5099   6.729   8.083   0.705 -0.0178  2.2428  1.7575
 1077SOL    HW2 5100   6.621   8.178   0.657 -0.9347  0.3086 -0.1764
 1078SOL     OW 5101   3.592   2.749   8.735  0.4253  0.1445  0.3047
 1078SOL    HW1 5102   3.670   2.717   8.689  1.2883  0.9591  1.1390
 1078SOL    HW2 5103   3.591   2.843   8.717 -1.0927 -0.0416 -0.7014
 1079SOL     OW 5104   0.273   3.719   6.228  0.4615 -0.0343  0.0723
 1079SOL    HW1 5105   0.364   3.733   6.202  0.4746  0.2878  0.2891
 1079SOL    HW2 5106   0.243   3.805   6.256  0.2545 -0.2554  0.5337
 1080SOL     OW 5107   3.080   4.901   0.014 -0.6953 -0.4123 -0.2379
 1080SOL    HW1 5108   2.991   4.935   0.001 -0.4271 -0.2828 -1.9482
 1080SOL    HW2 5109   3.079   4.815  -0.029 -0.0636 -0.5226 -0.0362
 1081SOL     OW 5110   1.578   1.460   3.417  0.0444 -0.3929  0.1836
 1081SOL    HW1 5111   1.576   1.546   3.460 -1.0489 -1.4847  2.4630
 1081SOL    HW2 5112   1.568   1.480   3.324  0.5353  1.9784  0.5690
 1082SOL     OW 5113   7.566   2.277   0.959  0.1104  1.0408  0.2117
 1082SOL    HW1 5114   7.562   2.342   0.890  1.9037  1.4221  0.4087
 1082SOL    HW2 5115   7.634   2.216   0.931 -0.7421 -0.1274  0.5731
 1083SOL     OW 5116   6.681   5.178   7.075 -0.0038  0.0658  0.2171
 1083SOL    HW1 5117   6.633   5.104   7.110  2.0538 -1.7165 -0.5041
 1083SOL    HW2 5118   6.635   5.201   6.994 -0.2556 -0.8941  0.0841
 1084SOL     OW 5119   3.636   5.126   7.815  0.1090  0.0022 -0.0345
 1084SOL    HW1 5120   3.592   5.058   7.866  1.1466 -1.5035 -1.0600
 1084SOL    HW2 5121   3.627   5.098   7.724  0.7777  1.1273 -0.4695
 1085SOL     OW 5122   3.802   8.799   6.934  0.0189 -0.2610  0.0578
 1085SOL    HW1 5123   3.729   8.832   6.986 -0.1031  0.0554 -0.3054
 1085SOL    HW2 5124   3.839   8.728   6.986  0.8313  0.9963  1.2682
 1086SOL     OW 5125   4.490   7.708   6.962  0.0645  0.0010  0.4449
 1086SOL    HW1 5126   4.426   7.647   6.998 -0.7428 -0.5994 -1.8297
 1086SOL    HW2 5127   4.452   7.737   6.879  1.6643  1.5222  0.1724
 1087SOL     OW 5128   3.902   7.869   8.454 -0.3348 -0.0402  0.1298
 1087SOL    HW1 5129   3.968   7.851   8.387 -0.0702 -0.4315  0.4940
 1087SOL    HW2 5130   3.950   7.919   8.521 -0.1613 -1.1233  0.8397
 1088SOL     OW 5131   4.928   1.163   2.662 -0.2929 -0.3444  0.2886
 1088SOL    HW1 5132   4.932   1.095   2.730 -0.3566  1.9266  2.7435
 1088SOL    HW2 5133   5.001   1.222   2.683 -0.3605  0.5022 -1.6101
 1089SOL     OW 5134   3.049   7.730   4.374 -0.2623 -0.2853 -0.2090
 1089SOL    HW1 5135   3.122   7.746   4.316  0.1428  0.6165  0.5298
 1089SOL    HW2 5136   3.070   7.647   4.418  0.4402  0.0923  0.1761
 1090SOL     OW 5137   7.903   2.292   8.642 -0.5692  0.7379  0.2048
 1090SOL    HW1 5138   7.904   2.243   8.724 -1.4449  2.5909  1.4031
 1090SOL    HW2 5139   7.964   2.245   8.585 -2.5790 -2.6823  0.6052
 1091SOL     OW 5140   8.605   0.155   6.817 -0.0825  0.3741 -0.0666
 1091SOL    HW1 5141   8.529   0.129   6.765  0.2860 -1.5341  0.2696
 1091SOL    HW2 5142   8.673   0.172   6.752 -0.2169  0.0605 -0.2944
 1092SOL     OW 5143   1.950   2.354   0.743  0.0309 -0.1249 -0.1658
 1092SOL    HW1 5144   1.884   2.399   0.691  0.0800 -0.0076 -0.1271
 1092SOL    HW2 5145   2.033   2.375   0.700  0.0665 -0.0746 -0.0738
 1093SOL     OW 5146   3.301   0.262   2.629  0.4139 -0.5052  0.2748
 1093SOL    HW1 5147   3.332   0.186   2.579 -0.8182  0.7009 -2.5852
 1093SOL    HW2 5148   3.232   0.228   2.685 -2.5150 -1.1889 -3.3708
 1094SOL     OW 5149   8.312   4.586   1.175 -0.6103  0.8630  0.0686
 1094SOL    HW1 5150   8.305   4.497   1.142 -0.8749  0.8017  0.2961
 1094SOL    HW2 5151   8.281   4.641   1.103  0.0046  0.8020 -0.2499
 1095SOL     OW 5152   8.865   2.334   6.746  0.0568  0.2231 -0.2763
 1095SOL    HW1 5153   8.866   2.331   6.650 -0.8761 -0.3450 -0.2897
 1095SOL    HW2 5154   8.907   2.417   6.769  0.5489  0.2297 -1.1643
 1096SOL     OW 5155   6.990   2.061   1.416  0.2637 -0.1002  0.2672
 1096SOL    HW1 5156   6.998   2.142   1.366 -0.2781  0.8784  1.6951
 1096SOL    HW2 5157   6.997   2.089   1.508 -2.4035 -1.2783  0.9215
 1097SOL     OW 5158   5.575   5.079   4.745 -0.1674 -0.5325  0.0631
 1097SOL    HW1 5159   5.547   5.084   4.837 -2.1831 -1.5124 -0.4262
 1097SOL    HW2 5160   5.540   5.158   4.705 -0.6616 -0.8576 -0.1631
 1098SOL     OW 5161   6.225   8.787   0.910  0.1212 -0.0120  0.1014
 1098SOL    HW1 5162   6.258   8.867   0.869 -0.1652  0.0028 -0.1061
 1098SOL    HW2 5163   6.296   8.757   0.966 -0.1400  0.9316  0.9629
 1099SOL     OW 5164   6.500   8.566   4.354 -0.3559  0.0350 -0.1060
 1099SOL    HW1 5165   6.489   8.554   4.260  1.2697 -1.6230 -0.1303
 1099SOL    HW2 5166   6.472   8.656   4.370  1.2712  1.0569 -2.5124
 1100SOL     OW 5167   4.450   1.910   1.763  0.2307 -0.0717  0.4210
 1100SOL    HW1 5168   4.394   1.983   1.788 -0.4106 -0.4807  0.1940
 1100SOL    HW2 5169   4.491   1.938   1.681 -1.5259 -0.7253 -0.7364
 1101SOL     OW 5170   5.794   7.552   7.413  0.3365  0.1767  0.3226
 1101SOL    HW1 5171   5.741   7.500   7.354  1.5858 -0.4581 -0.2652
 1101SOL    HW2 5172   5.882   7.515   7.407  1.2367  2.2177  0.0154
 1102SOL     OW 5173   3.936   8.068   6.994 -0.3120 -0.1709  0.1947
 1102SOL    HW1 5174   3.970   8.002   6.934  0.9274 -0.3430  1.0558
 1102SOL    HW2 5175   3.965   8.151   6.958  1.0075 -0.3140  0.8936
 1103SOL     OW 5176   7.864   1.003   6.379 -0.3243  0.2596 -0.5235
 1103SOL    HW1 5177   7.848   0.923   6.430 -1.3745 -0.1946 -1.5241
 1103SOL    HW2 5178   7.892   1.068   6.444  2.6064 -1.4233  0.0830
 1104SOL     OW 5179   1.806   2.408   3.348  0.5156 -0.2726 -0.4324
 1104SOL    HW1 5180   1.881   2.436   3.402  0.2899  0.1712 -0.3416
 1104SOL    HW2 5181   1.756   2.489   3.333 -0.4351 -0.7227  0.2548
 1105SOL     OW 5182   0.347   2.371   4.956 -0.0679  0.3497  0.0800
 1105SOL    HW1 5183   0.325   2.424   4.880  0.3877  1.3135  0.6064
 1105SOL    HW2 5184   0.319   2.424   5.031 -0.9173 -0.7699  0.5780
 1106SOL     OW 5185   6.201   5.594   1.757  0.7035 -0.1239  0.0229
 1106SOL    HW1 5186   6.143   5.640   1.696 -2.7928 -3.0156  0.9016
 1106SOL    HW2 5187   6.214   5.508   1.718  0.0504 -1.3412  2.3290
 1107SOL     OW 5188   5.321   6.953   8.661  0.0010 -0.1479  0.1264
 1107SOL    HW1 5189   5.385   7.015   8.694 -0.0557 -1.2558  2.4738
 1107SOL    HW2 5190   5.371   6.875   8.638 -0.0750  0.2927 -1.7616
 1108SOL     OW 5191   5.183   2.656   5.193  0.2684  0.1642  0.0765
 1108SOL    HW1 5192   5.212   2.743   5.221  2.4707 -0.6269  0.4191
 1108SOL    HW2 5193   5.251   2.626   5.133 -0.2681 -1.4791  0.2401
 1109SOL     OW 5194   5.780   1.657   6.782  0.1385  0.0729  0.1086
 1109SOL    HW1 5195   5.724   1.595   6.737 -0.4529 -0.1602  1.1198
 1109SOL    HW2 5196   5.863   1.612   6.792 -0.5939 -1.0269  1.7737
 1110SOL     OW 5197   8.275   7.090   7.738  0.4335 -0.3556 -0.0862
 1110SOL    HW1 5198   8.370   7.079   7.736  0.3979 -0.9917  1.1166
 1110SOL    HW2 5199   8.257   7.151   7.667  1.7788  0.0615 -0.0978
 1111SOL     OW 5200   5.016   3.975   4.940 -0.2008  0.2930 -0.2135
 1111SOL    HW1 5201   5.067   4.051   4.912  0.0979 -0.2363 -1.1586
 1111SOL    HW2 5202   4.925   4.001   4.925 -0.0894  0.3827 -0.7566
 1112SOL     OW 5203   5.505   0.430   3.063  0.4067  0.0529  0.0256
 1112SOL    HW1 5204   5.490   0.433   2.968  2.0827 -1.7391 -0.3435
 1112SOL    HW2 5205   5.536   0.341   3.080 -0.7657  0.0323  2.4259
 1113SOL     OW 5206   1.149   6.124   6.392  0.0241  0.1336 -0.0795
 1113SOL    HW1 5207   1.171   6.217   6.392 -0.1722  0.1990 -1.4407
 1113SOL    HW2 5208   1.098   6.111   6.472 -3.0231  2.0000 -1.5254
 1114SOL     OW 5209   4.011   0.208   3.423 -0.1044  0.2568 -0.3173
 1114SOL    HW1 5210   4.025   0.266   3.349  2.2843 -0.0283 -0.1768
 1114SOL    HW2 5211   3.975   0.265   3.492 -1.2028  0.7630 -1.2753
 1115SOL     OW 5212   4.224   0.548   1.083  0.4021 -0.3724 -0.1861
 1115SOL    HW1 5213   4.181   0.524   1.001  1.0539 -0.5454 -0.4864
 1115SOL    HW2 5214   4.287   0.616   1.058 -0.3217  0.5351  0.3976
 1116SOL     OW 5215   5.978   7.798   1.230 -0.1442  0.0620 -0.1475
 1116SOL    HW1 5216   5.923   7.773   1.305 -0.2742  1.5873  0.2908
 1116SOL    HW2 5217   5.923   7.779   1.153 -1.5233  1.9987  0.2947
 1117SOL     OW 5218   2.629   6.060   0.744 -0.7935  0.2084  0.5173
 1117SOL    HW1 5219   2.599   6.072   0.654 -2.1745 -2.5945  0.4889
 1117SOL    HW2 5220   2.631   5.965   0.756 -0.9462  0.4892  3.5387
 1118SOL     OW 5221   4.549   3.598   6.150  0.0921  0.0777  0.2913
 1118SOL    HW1 5222   4.473   3.542   6.131 -0.6430  1.4703 -1.0418
 1118SOL    HW2 5223   4.516   3.664   6.211  0.7022 -0.3115  1.0685
 1119SOL     OW 5224   5.295   6.112   4.008  0.4969  0.7027 -0.1824
 1119SOL    HW1 5225   5.248   6.195   4.007  0.8903  0.9254 -0.5348
 1119SOL    HW2 5226   5.322   6.100   4.099  2.5193  2.1517 -0.5309
 1120SOL     OW 5227   8.801   1.532   1.083  0.1448  0.3226  0.0311
 1120SOL    HW1 5228   8.797   1.559   0.992  1.5066  1.6170  0.3249
 1120SOL    HW2 5229   8.801   1.436   1.080 -0.8209  0.3444 -1.2515
 1121SOL     OW 5230   4.795   7.985   3.249 -0.1627  0.2602 -0.0003
 1121SOL    HW1 5231   4.819   7.907   3.300  1.0401  1.1083  0.7661
 1121SOL    HW2 5232   4.863   8.049   3.269  0.2960  0.6949 -2.6039
 1122SOL     OW 5233   7.595   7.307   6.414 -0.5720 -0.2701 -0.1496
 1122SOL    HW1 5234   7.661   7.355   6.465 -0.8914 -0.8849  0.8766
 1122SOL    HW2 5235   7.552   7.251   6.478 -2.3931  0.4317 -0.7018
 1123SOL     OW 5236   4.216   4.140   3.844  0.1487  0.1216 -0.8401
 1123SOL    HW1 5237   4.179   4.174   3.926  1.6035  0.8650 -0.4493
 1123SOL    HW2 5238   4.201   4.209   3.780 -1.0711 -0.4992 -1.2451
 1124SOL     OW 5239   2.260   8.988   7.016  0.4389  0.5437 -0.4944
 1124SOL    HW1 5240   2.204   9.036   7.077  1.9010  0.3122  1.1159
 1124SOL    HW2 5241   2.200   8.929   6.970 -1.2036  2.9011 -1.6143
 1125SOL     OW 5242   5.554   7.370   5.263  0.3682  0.4257 -0.1934
 1125SOL    HW1 5243   5.618   7.322   5.212  2.1122  2.3115  0.0816
 1125SOL    HW2 5244   5.589   7.372   5.352 -0.9577  0.0238  0.3715
 1126SOL     OW 5245   5.380   5.597   3.317  0.4221 -0.7367  0.2390
 1126SOL    HW1 5246   5.453   5.575   3.260  0.5757 -0.3668  0.2887
 1126SOL    HW2 5247   5.368   5.520   3.373  0.4252 -1.0065 -0.1282
 1127SOL     OW 5248   2.697   1.901   8.993  0.4979 -0.0523  0.0540
 1127SOL    HW1 5249   2.769   1.959   9.017  0.2746 -0.1593  1.0367
 1127SOL    HW2 5250   2.661   1.940   8.913  1.3686  0.2380 -0.2121
 1128SOL     OW 5251   0.198   2.836   2.006 -0.2787 -0.0821 -0.8436
 1128SOL    HW1 5252   0.198   2.765   2.070 -0.6176 -0.7974 -1.6359
 1128SOL    HW2 5253   0.287   2.872   2.011 -0.0856 -0.5972 -0.4920
 1129SOL     OW 5254   0.827   8.716   6.238 -0.0690 -0.0142 -0.0715
 1129SOL    HW1 5255   0.857   8.793   6.190 -0.2850  0.6748  0.8802
 1129SOL    HW2 5256   0.779   8.751   6.313 -1.7277 -1.0836 -0.5824
 1130SOL     OW 5257   1.475   1.693   1.234  0.8679  0.1948  0.2695
 1130SOL    HW1 5258   1.508   1.604   1.246 -1.2301 -0.4973  1.3711
 1130SOL    HW2 5259   1.508   1.740   1.311 -0.9845 -0.6225  1.6373
 1131SOL     OW 5260   8.366   3.166   7.992  0.2612  0.0418  0.1149
 1131SOL    HW1 5261   8.292   3.111   7.968  0.6220  0.5399 -2.3310
 1131SOL    HW2 5262   8.328   3.252   8.006  0.2554  0.1038 -0.2740
 1132SOL     OW 5263   1.724   1.090   5.851 -0.4734 -0.1994 -0.5123
 1132SOL    HW1 5264   1.661   1.154   5.885 -0.3567 -0.9103  1.1547
 1132SOL    HW2 5265   1.789   1.143   5.805 -0.6397  0.8605  0.4191
 1133SOL     OW 5266   4.703   3.705   3.650  0.3827 -0.7350 -0.3134
 1133SOL    HW1 5267   4.713   3.618   3.611  0.6670 -1.2297  0.8261
 1133SOL    HW2 5268   4.791   3.728   3.681  0.2259 -0.2209 -0.2384
 1134SOL     OW 5269   4.816   2.822   1.752  0.1728  0.0073  0.0813
 1134SOL    HW1 5270   4.774   2.887   1.808 -3.5362 -1.0701 -1.1065
 1134SOL    HW2 5271   4.910   2.836   1.763 -0.4244  2.3435  3.4891
 1135SOL     OW 5272   8.375   0.760   2.199 -0.2679  0.0319  0.3556
 1135SOL    HW1 5273   8.371   0.748   2.104  0.2399  0.8052  0.2292
 1135SOL    HW2 5274   8.345   0.676   2.234 -0.5857 -0.2228 -0.4838
 1136SOL     OW 5275   8.118   0.283   0.437 -0.8360  0.2584  0.0285
 1136SOL    HW1 5276   8.144   0.204   0.389  1.0526 -0.0108  1.3974
 1136SOL    HW2 5277   8.070   0.336   0.373  0.0793 -0.8631 -1.6336
 1137SOL     OW 5278   1.286   0.964   8.859 -0.1839 -0.0389  0.0086
 1137SOL    HW1 5279   1.359   1.005   8.906 -0.4500 -0.9825  1.3281
 1137SOL    HW2 5280   1.208   1.011   8.890 -0.2302  0.3029 -0.6244
 1138SOL     OW 5281   8.803   7.792   7.759  0.1843 -0.1995  0.6119
 1138SOL    HW1 5282   8.811   7.772   7.853  1.3173 -1.2758  0.3036
 1138SOL    HW2 5283   8.855   7.871   7.746 -2.1274  1.5698  1.3350
 1139SOL     OW 5284   4.052   5.393   0.677 -0.1824 -0.3247  0.7378
 1139SOL    HW1 5285   3.977   5.393   0.736 -0.4597 -1.2287  0.3924
 1139SOL    HW2 5286   4.057   5.304   0.644  0.0214  0.1385 -0.5395
 1140SOL     OW 5287   4.964   0.477   0.215  0.6241  1.2183 -0.1260
 1140SOL    HW1 5288   4.902   0.542   0.184  0.6702  0.8902 -0.9170
 1140SOL    HW2 5289   5.000   0.437   0.136  1.1208  0.7226  0.3340
 1141SOL     OW 5290   6.122   8.425   5.236 -0.0140  0.5078  0.4299
 1141SOL    HW1 5291   6.055   8.386   5.180 -0.5497  2.3349 -0.2762
 1141SOL    HW2 5292   6.200   8.429   5.181 -0.1313  0.9800  0.2965
 1142SOL     OW 5293   4.246   3.283   5.588  0.5436 -0.1900  0.0213
 1142SOL    HW1 5294   4.250   3.242   5.674 -0.7177  1.6080  0.9878
 1142SOL    HW2 5295   4.153   3.299   5.573  0.8064  0.2367 -1.3571
 1143SOL     OW 5296   0.366   5.363   0.478 -0.2416  0.4004 -0.0190
 1143SOL    HW1 5297   0.407   5.311   0.547  0.5751  1.2673  0.1489
 1143SOL    HW2 5298   0.421   5.349   0.401 -0.1366  0.8688 -0.0273
 1144SOL     OW 5299   2.723   5.968   0.177  0.5059  0.2427 -0.2807
 1144SOL    HW1 5300   2.801   5.940   0.129 -0.6418  0.1589 -2.1708
 1144SOL    HW2 5301   2.683   5.886   0.207  1.9011  0.3255  2.0920
 1145SOL     OW 5302   7.662   3.475   2.423 -0.8996  0.2167 -0.0157
 1145SOL    HW1 5303   7.585   3.459   2.370 -1.2050  0.4460  0.3541
 1145SOL    HW2 5304   7.731   3.495   2.359 -1.3509  0.8588 -0.3138
 1146SOL     OW 5305   1.852   1.777   1.380 -0.4221  0.6240 -0.1761
 1146SOL    HW1 5306   1.858   1.681   1.380 -2.6414  0.4125  1.5780
 1146SOL    HW2 5307   1.917   1.804   1.315  2.9447 -1.8676  1.8318
 1147SOL     OW 5308   3.997   6.529   0.643  0.0447 -0.0777 -0.5031
 1147SOL    HW1 5309   4.062   6.517   0.713  1.0498  0.3231 -1.3426
 1147SOL    HW2 5310   3.958   6.443   0.632  2.0400 -0.9125 -1.5190
 1148SOL     OW 5311   6.497   7.952   5.773  0.1343  0.4899  0.0828
 1148SOL    HW1 5312   6.502   7.922   5.864  0.4294 -0.0621 -0.1134
 1148SOL    HW2 5313   6.573   7.913   5.731 -0.8952 -0.6198 -0.8081
 1149SOL     OW 5314   5.574   2.740   3.429  0.5872  0.0833 -0.3152
 1149SOL    HW1 5315   5.564   2.804   3.358 -0.6485 -0.1773 -0.3919
 1149SOL    HW2 5316   5.525   2.663   3.399  0.4408 -0.1954  0.6263
 1150SOL     OW 5317   7.411   4.197   3.916  0.5368 -0.2913 -0.4897
 1150SOL    HW1 5318   7.467   4.143   3.973  3.2644  0.6479 -2.0870
 1150SOL    HW2 5319   7.427   4.162   3.828  1.7997  2.4725 -1.4844
 1151SOL     OW 5320   7.012   0.668   8.659  0.7347 -0.1642 -0.0172
 1151SOL    HW1 5321   6.922   0.676   8.691  0.7809  0.5194 -0.0354
 1151SOL    HW2 5322   7.021   0.576   8.634 -0.2117 -0.0803 -0.7438
 1152SOL     OW 5323   6.192   5.690   0.765 -0.2540  1.3097  0.2282
 1152SOL    HW1 5324   6.208   5.657   0.853 -1.3226  1.4048  0.4771
 1152SOL    HW2 5325   6.117   5.640   0.733  2.2603 -1.3525 -2.0853
 1153SOL     OW 5326   8.995   7.739   4.049 -0.0685 -0.4096  0.0473
 1153SOL    HW1 5327   8.994   7.829   4.020  0.6507 -0.3614  0.1489
 1153SOL    HW2 5328   9.058   7.695   3.992  1.0880 -0.3924  1.2376
 1154SOL     OW 5329   8.617   1.263   1.941 -0.8505 -0.4354 -0.0622
 1154SOL    HW1 5330   8.578   1.298   1.861 -1.7707 -2.1281 -0.4128
 1154SOL    HW2 5331   8.550   1.204   1.977  0.2804 -1.1826  0.9122
 1155SOL     OW 5332   3.744   2.767   6.717 -0.3843 -0.2156 -0.6377
 1155SOL    HW1 5333   3.799   2.701   6.674  1.2065  1.5683 -1.5043
 1155SOL    HW2 5334   3.792   2.791   6.796 -1.3265 -0.6280  0.0715
 1156SOL     OW 5335   5.437   2.600   2.237 -0.1441 -0.6563  0.2708
 1156SOL    HW1 5336   5.389   2.547   2.300 -1.9723  2.6305  1.9330
 1156SOL    HW2 5337   5.371   2.659   2.200  2.0080  1.9322  0.2488
 1157SOL     OW 5338   3.392   7.045   5.987  0.4892 -0.5312 -0.0598
 1157SOL    HW1 5339   3.335   7.087   5.922 -0.3247 -1.2936  0.1538
 1157SOL    HW2 5340   3.446   6.986   5.935 -0.9521 -2.0076  0.0486
 1158SOL     OW 5341   4.417   0.197   3.927  0.0829  0.3398  0.2021
 1158SOL    HW1 5342   4.383   0.274   3.881  1.4314  0.0080 -1.4195
 1158SOL    HW2 5343   4.394   0.213   4.019 -2.8681  0.9367 -0.5305
 1159SOL     OW 5344   4.001   4.959   1.961 -0.4547 -0.2389  0.3193
 1159SOL    HW1 5345   4.015   4.901   1.886 -0.2783 -0.2354  0.3496
 1159SOL    HW2 5346   4.083   4.956   2.009  0.4570  1.8940 -0.9584
 1160SOL     OW 5347   3.542   8.317   6.293 -0.0527  0.2425 -0.2872
 1160SOL    HW1 5348   3.567   8.301   6.202  1.2232 -0.9810  0.2459
 1160SOL    HW2 5349   3.559   8.410   6.306  2.6106 -0.1225 -0.5205
 1161SOL     OW 5350   4.693   0.379   8.711 -0.2290 -0.8172  0.0082
 1161SOL    HW1 5351   4.724   0.336   8.791 -0.5415  1.1781  1.2793
 1161SOL    HW2 5352   4.610   0.336   8.691 -0.6379 -0.7031  1.3505
 1162SOL     OW 5353   1.152   4.158   3.770  0.0102 -0.2731 -0.6633
 1162SOL    HW1 5354   1.239   4.119   3.771 -0.5738 -1.6725  0.8515
 1162SOL    HW2 5355   1.161   4.237   3.716  2.1191 -0.5283 -0.7616
 1163SOL     OW 5356   6.150   6.337   8.079 -0.4424  0.1631  0.2360
 1163SOL    HW1 5357   6.184   6.394   8.009 -0.8328 -0.1778 -0.2408
 1163SOL    HW2 5358   6.140   6.252   8.037 -0.5432 -0.0826  0.7542
 1164SOL     OW 5359   2.169   6.988   4.695 -0.3435  0.1133  0.4038
 1164SOL    HW1 5360   2.205   6.901   4.710 -0.4742  0.1247  0.7927
 1164SOL    HW2 5361   2.204   7.041   4.766  0.6439  0.6556 -0.4684
 1165SOL     OW 5362   3.245   0.793   4.044 -0.6109 -0.3229 -0.0063
 1165SOL    HW1 5363   3.283   0.712   4.079 -0.8104 -0.0705  0.8045
 1165SOL    HW2 5364   3.275   0.862   4.104  0.4153  0.3705 -1.2663
 1166SOL     OW 5365   1.774   5.572   0.240 -0.3177  0.1176  0.5000
 1166SOL    HW1 5366   1.799   5.663   0.256 -1.4670  0.6398 -0.5019
 1166SOL    HW2 5367   1.691   5.578   0.193 -0.8785 -1.4712  1.2016
 1167SOL     OW 5368   7.539   1.766   6.501 -0.1204  0.6550 -0.2154
 1167SOL    HW1 5369   7.485   1.815   6.439  2.4453  2.9186 -0.8199
 1167SOL    HW2 5370   7.569   1.831   6.564  2.0958 -0.3882 -0.0881
 1168SOL     OW 5371   7.033   5.698   3.760 -0.2555  0.1323  0.5365
 1168SOL    HW1 5372   7.042   5.705   3.665 -0.0560  0.6636  0.5930
 1168SOL    HW2 5373   7.120   5.722   3.794 -0.4998  0.5535  0.8745
 1169SOL     OW 5374   0.610   5.698   8.574 -0.3611 -0.6009 -0.0053
 1169SOL    HW1 5375   0.615   5.752   8.496 -1.6839  0.5613  0.6641
 1169SOL    HW2 5376   0.590   5.610   8.541 -2.9682  0.2409 -0.9412
 1170SOL     OW 5377   8.405   4.513   2.709  0.1469  0.4058  0.1634
 1170SOL    HW1 5378   8.491   4.521   2.667  0.1586 -1.0469 -0.1467
 1170SOL    HW2 5379   8.346   4.563   2.653  0.1664 -1.4516 -1.6350
 1171SOL     OW 5380   5.630   2.212   3.390 -0.2460 -0.4992  0.3611
 1171SOL    HW1 5381   5.688   2.191   3.317  0.5713  2.3239  0.1020
 1171SOL    HW2 5382   5.543   2.184   3.360 -0.0114  1.0075 -1.9676
 1172SOL     OW 5383   7.587   0.778   6.376 -0.0925 -0.0906 -0.2191
 1172SOL    HW1 5384   7.673   0.742   6.356  0.1545  1.0226 -1.2822
 1172SOL    HW2 5385   7.582   0.858   6.323 -1.5971  0.0990  0.1782
 1173SOL     OW 5386   8.274   1.797   1.649  0.6769  0.0141 -0.1713
 1173SOL    HW1 5387   8.368   1.792   1.632  0.7638 -1.9373  0.6617
 1173SOL    HW2 5388   8.267   1.830   1.738  0.6029 -0.3999 -0.0213
 1174SOL     OW 5389   6.419   4.226   0.379 -0.0016  0.5909 -0.1313
 1174SOL    HW1 5390   6.428   4.257   0.289  0.0732 -1.2518 -0.8007
 1174SOL    HW2 5391   6.428   4.131   0.372 -0.8487  0.3396  1.7092
 1175SOL     OW 5392   6.831   0.298   5.088 -0.0761 -0.0656 -0.5431
 1175SOL    HW1 5393   6.795   0.295   5.000 -2.6954  0.6613  0.4016
 1175SOL    HW2 5394   6.863   0.209   5.104  0.1303 -0.2841 -2.0809
 1176SOL     OW 5395   5.226   4.612   3.287 -0.4214 -0.5464 -0.1654
 1176SOL    HW1 5396   5.155   4.654   3.335  0.6201  1.1816 -0.0538
 1176SOL    HW2 5397   5.212   4.518   3.300 -1.4345 -0.1850  1.6238
 1177SOL     OW 5398   8.241   7.521   7.922  0.5457 -0.3849  0.5375
 1177SOL    HW1 5399   8.212   7.435   7.950  0.3482 -0.7125 -0.6372
 1177SOL    HW2 5400   8.210   7.530   7.832  3.4319 -0.4792 -0.5732
 1178SOL     OW 5401   7.198   6.666   3.143 -0.0520 -0.2142 -0.8609
 1178SOL    HW1 5402   7.161   6.753   3.154  0.8959  0.5667 -3.1875
 1178SOL    HW2 5403   7.243   6.648   3.225  0.9769  2.1370 -0.8258
 1179SOL     OW 5404   4.637   6.360   0.652 -0.2418  0.0165 -0.3934
 1179SOL    HW1 5405   4.654   6.448   0.616 -2.2298  0.9293  0.7200
 1179SOL    HW2 5406   4.667   6.365   0.743 -1.5116 -0.0095  0.0457
 1180SOL     OW 5407   1.704   7.866   6.438  0.3645 -0.7041 -0.5160
 1180SOL    HW1 5408   1.754   7.851   6.518 -0.6567 -0.7861  0.1291
 1180SOL    HW2 5409   1.744   7.943   6.399  1.6700 -1.3978 -0.5897
 1181SOL     OW 5410   5.646   2.278   2.877  0.0410  0.1381 -0.1872
 1181SOL    HW1 5411   5.565   2.328   2.863 -0.2229  0.2876  1.6422
 1181SOL    HW2 5412   5.617   2.198   2.922  0.8287 -0.1398 -0.1641
 1182SOL     OW 5413   6.931   0.979   6.864  0.1586  1.0420 -0.2990
 1182SOL    HW1 5414   7.006   0.986   6.923 -0.1682  1.3077  0.0891
 1182SOL    HW2 5415   6.954   0.908   6.805  1.6853  2.5066 -1.5807
 1183SOL     OW 5416   2.796   8.806   6.600  0.3349  0.0942 -0.0919
 1183SOL    HW1 5417   2.726   8.869   6.580  1.4340  1.6474  0.7510
 1183SOL    HW2 5418   2.855   8.810   6.525  0.4002  0.0656 -0.0424
 1184SOL     OW 5419   5.906   2.541   0.868 -0.0283 -0.0129 -0.3556
 1184SOL    HW1 5420   5.986   2.585   0.895  0.1697 -0.6394  0.0919
 1184SOL    HW2 5421   5.918   2.450   0.895 -0.8752 -0.1191 -0.3018
 1185SOL     OW 5422   1.356   2.636   2.056 -0.2654 -0.2323 -0.4238
 1185SOL    HW1 5423   1.428   2.659   1.998 -0.0068 -1.0898 -0.4527
 1185SOL    HW2 5424   1.394   2.638   2.144 -0.3513 -0.1331 -0.3878
 1186SOL     OW 5425   5.768   1.961   2.509 -0.2132  0.0813 -0.3586
 1186SOL    HW1 5426   5.713   1.884   2.496  0.0359 -0.1324 -0.1550
 1186SOL    HW2 5427   5.850   1.926   2.543  1.0107  0.1000 -3.0263
 1187SOL     OW 5428   8.369   7.228   4.510 -0.9237 -0.2669 -0.1564
 1187SOL    HW1 5429   8.387   7.141   4.545 -1.3237 -0.5023 -0.5316
 1187SOL    HW2 5430   8.305   7.266   4.571 -2.0809 -0.9066 -0.9489
 1188SOL     OW 5431   1.050   8.888   8.274 -0.6783  0.2534 -0.6706
 1188SOL    HW1 5432   1.048   8.844   8.189 -0.7417 -1.0888 -0.0069
 1188SOL    HW2 5433   1.132   8.858   8.315 -2.2504 -2.0343  1.1443
 1189SOL     OW 5434   6.378   8.173   8.495 -0.0737  0.5668  0.3313
 1189SOL    HW1 5435   6.402   8.159   8.403  1.0182 -2.3279  0.9298
 1189SOL    HW2 5436   6.460   8.200   8.537 -0.6727  2.3299  0.4154
 1190SOL     OW 5437   2.841   2.778   4.268 -0.1270  0.1953  0.2962
 1190SOL    HW1 5438   2.842   2.682   4.270 -1.3376  0.1760  2.0917
 1190SOL    HW2 5439   2.867   2.804   4.356 -0.6434  1.5096  0.0838
 1191SOL     OW 5440   0.550   6.993   0.617  0.1907  0.0079  0.3391
 1191SOL    HW1 5441   0.625   6.944   0.583 -0.1191  0.1172 -0.5312
 1191SOL    HW2 5442   0.586   7.077   0.643  0.4304 -0.0548  0.2191
 1192SOL     OW 5443   5.071   0.028   3.500 -0.1895  0.1846  0.6909
 1192SOL    HW1 5444   5.012   0.097   3.529 -1.2688  0.0505 -1.0897
 1192SOL    HW2 5445   5.153   0.073   3.479 -0.3327  0.6656  1.1281
 1193SOL     OW 5446   3.736   7.297   2.809  0.6854 -0.2681  0.2499
 1193SOL    HW1 5447   3.822   7.314   2.848  1.0264  1.5288 -1.1591
 1193SOL    HW2 5448   3.674   7.340   2.868  0.9777  0.4235  0.0566
 1194SOL     OW 5449   3.603   2.951   3.479 -0.3617  0.0464 -0.3664
 1194SOL    HW1 5450   3.582   2.860   3.503  0.5212 -0.3325 -0.9747
 1194SOL    HW2 5451   3.580   2.956   3.386  0.2850  0.2212 -0.5209
 1195SOL     OW 5452   6.830   3.620   1.574 -0.1776 -0.0265  0.2257
 1195SOL    HW1 5453   6.852   3.650   1.662  1.6490  1.0044 -0.5325
 1195SOL    HW2 5454   6.881   3.540   1.563  0.3663  0.3756 -0.2255
 1196SOL     OW 5455   2.655   3.914   6.147 -0.2883  0.4486 -0.4158
 1196SOL    HW1 5456   2.599   3.868   6.084  0.2244 -0.3515 -0.2977
 1196SOL    HW2 5457   2.683   3.846   6.208 -1.8795  1.4394  1.5192
 1197SOL     OW 5458   4.306   1.712   6.032 -0.2635 -0.5302 -0.2703
 1197SOL    HW1 5459   4.296   1.626   6.072 -0.8369 -0.2758  0.1480
 1197SOL    HW2 5460   4.246   1.768   6.080  0.4924  0.2273 -0.1877
 1198SOL     OW 5461   0.868   3.349   8.559  0.0026  0.5166 -0.7353
 1198SOL    HW1 5462   0.894   3.263   8.526  0.4034  0.7746 -1.0956
 1198SOL    HW2 5463   0.944   3.380   8.608  0.1851  1.0451 -1.3466
 1199SOL     OW 5464   5.232   7.679   8.259  0.0511  0.0412 -0.1960
 1199SOL    HW1 5465   5.204   7.741   8.192 -1.5793 -0.3493  0.0647
 1199SOL    HW2 5466   5.321   7.705   8.281 -0.5137  2.1879 -0.2373
 1200SOL     OW 5467   8.793   5.399   2.486 -0.0764  0.1317 -1.0805
 1200SOL    HW1 5468   8.744   5.461   2.432 -0.6980 -0.8107 -1.6497
 1200SOL    HW2 5469   8.812   5.326   2.426 -0.7216 -0.9198 -0.0534
 1201SOL     OW 5470   6.211   6.390   2.973  0.1701 -0.5697 -0.0495
 1201SOL    HW1 5471   6.254   6.346   3.046  0.2976  0.7062  0.6765
 1201SOL    HW2 5472   6.129   6.342   2.961  0.1554 -0.8054  0.9238
 1202SOL     OW 5473   0.956   4.393   1.891 -0.2428  0.1488 -0.4619
 1202SOL    HW1 5474   0.969   4.376   1.984 -0.8856  1.0867 -0.1843
 1202SOL    HW2 5475   0.932   4.486   1.887  1.8526  0.7123 -1.7607
 1203SOL     OW 5476   8.208   5.272   3.965 -0.2124  0.1735  0.6702
 1203SOL    HW1 5477   8.206   5.321   4.047  0.4216  0.3175  0.6114
 1203SOL    HW2 5478   8.256   5.192   3.986  1.2185  0.8424  0.1382
 1204SOL     OW 5479   0.192   8.906   5.572  0.0794 -0.1952  0.0699
 1204SOL    HW1 5480   0.235   8.948   5.646  0.6664  2.9449 -1.8704
 1204SOL    HW2 5481   0.102   8.937   5.576  0.0607 -0.1816 -0.4222
 1205SOL     OW 5482   5.735   8.129   8.347  0.8075 -0.6511 -0.2506
 1205SOL    HW1 5483   5.656   8.076   8.345 -1.0795  1.9297 -2.6042
 1205SOL    HW2 5484   5.729   8.178   8.429 -1.7884  1.6863 -1.6720
 1206SOL     OW 5485   6.038   0.087   0.292 -0.6690 -0.3347  0.4570
 1206SOL    HW1 5486   5.970   0.141   0.332  0.0777  0.3001  0.8908
 1206SOL    HW2 5487   6.021  -0.001   0.326 -0.4507  0.0757  1.6750
 1207SOL     OW 5488   0.613   1.882   2.177 -0.1549 -0.2333  0.1677
 1207SOL    HW1 5489   0.590   1.962   2.128  1.2003 -0.9678 -1.8059
 1207SOL    HW2 5490   0.647   1.823   2.110 -1.1541 -2.5170  1.5681
 1208SOL     OW 5491   4.902   6.006   0.192  0.2233  0.1611 -0.5608
 1208SOL    HW1 5492   4.808   6.001   0.206  0.0629  1.5218 -0.9712
 1208SOL    HW2 5493   4.911   6.032   0.100  0.9797  0.5203 -0.3955
 1209SOL     OW 5494   6.297   8.636   1.339  0.4708  0.2713  0.1810
 1209SOL    HW1 5495   6.220   8.580   1.333  0.2859  0.6768 -2.2305
 1209SOL    HW2 5496   6.370   8.576   1.354 -0.0174 -0.3701  0.0270
 1210SOL     OW 5497   7.927   1.482   4.906  0.2366 -0.2838  0.3586
 1210SOL    HW1 5498   7.959   1.468   4.817 -0.3805  1.6894 -0.2138
 1210SOL    HW2 5499   7.845   1.530   4.895 -0.0883 -0.4260  1.9800
 1211SOL     OW 5500   8.280   3.080   5.487 -0.0256 -0.2431  0.5128
 1211SOL    HW1 5501   8.187   3.088   5.509 -0.0640  0.7252  0.0561
 1211SOL    HW2 5502   8.325   3.131   5.555  0.1810 -0.7883  0.7871
 1212SOL     OW 5503   4.564   3.207   2.100 -0.0622  0.3372  0.6399
 1212SOL    HW1 5504   4.604   3.167   2.022  2.4717  1.5513  1.2221
 1212SOL    HW2 5505   4.569   3.301   2.084  0.5591  0.6062  2.2482
 1213SOL     OW 5506   5.112   8.213   3.538 -0.3980 -0.4071 -0.1890
 1213SOL    HW1 5507   5.085   8.122   3.527 -0.4245 -0.6623  1.6234
 1213SOL    HW2 5508   5.197   8.208   3.581  0.2182  0.4375 -1.2624
 1214SOL     OW 5509   0.614   6.907   1.662  0.9655  0.0960  0.2031
 1214SOL    HW1 5510   0.570   6.990   1.681 -0.5375 -0.6581  0.1418
 1214SOL    HW2 5511   0.695   6.933   1.619 -0.1803  1.5147 -1.2382
 1215SOL     OW 5512   7.573   2.858   6.198  0.1535 -0.2420  0.7764
 1215SOL    HW1 5513   7.610   2.844   6.111 -0.0079  0.7402  0.5425
 1215SOL    HW2 5514   7.607   2.785   6.250 -0.1541 -1.1308 -0.2255
 1216SOL     OW 5515   6.658   4.374   7.628  0.1322  0.7442  0.0400
 1216SOL    HW1 5516   6.683   4.453   7.580  1.0011  0.5822  0.2060
 1216SOL    HW2 5517   6.700   4.303   7.579 -1.3763  0.2794 -0.6300
 1217SOL     OW 5518   2.992   6.549   4.023 -0.8787  0.6104 -0.1481
 1217SOL    HW1 5519   2.899   6.559   4.044 -0.6248  0.0441  1.3608
 1217SOL    HW2 5520   3.028   6.501   4.097  0.6721  1.0172 -0.6070
 1218SOL     OW 5521   8.673   3.249   1.398  0.6949  0.1584 -0.5574
 1218SOL    HW1 5522   8.593   3.196   1.394  0.7558 -0.2224  1.7436
 1218SOL    HW2 5523   8.743   3.189   1.369  0.3899 -0.1303 -0.6991
 1219SOL     OW 5524   8.601   7.528   7.943 -0.0100 -0.2535 -0.7666
 1219SOL    HW1 5525   8.697   7.524   7.951 -0.1071 -2.7879 -0.1345
 1219SOL    HW2 5526   8.585   7.603   7.886  2.3913 -0.2765 -1.5864
 1220SOL     OW 5527   1.631   6.738   0.471  0.5369 -0.0269 -0.1087
 1220SOL    HW1 5528   1.703   6.799   0.485  1.5003 -1.2790  0.5948
 1220SOL    HW2 5529   1.607   6.750   0.379  0.7089  1.3767  0.0080
 1221SOL     OW 5530   2.127   2.738   6.071  0.1391 -0.1687  0.0375
 1221SOL    HW1 5531   2.055   2.692   6.027  0.4693 -1.0159  0.3678
 1221SOL    HW2 5532   2.087   2.819   6.103 -0.2542  0.1652 -1.2599
 1222SOL     OW 5533   6.994   1.619   3.984  0.5142 -0.0288  0.0525
 1222SOL    HW1 5534   6.939   1.554   4.028  0.0841  0.6467  0.5421
 1222SOL    HW2 5535   7.058   1.644   4.051 -1.5079  2.6640  1.1712
 1223SOL     OW 5536   2.301   3.956   7.381 -0.7320  0.2454  0.0036
 1223SOL    HW1 5537   2.313   4.046   7.352 -0.0087  0.3291  0.5438
 1223SOL    HW2 5538   2.249   3.964   7.461 -0.3964  0.2115  0.2277
 1224SOL     OW 5539   0.959   5.579   4.821 -0.6448  0.2338 -0.0328
 1224SOL    HW1 5540   0.887   5.556   4.763 -0.0677 -2.2892  0.1527
 1224SOL    HW2 5541   1.035   5.588   4.763 -0.1448 -1.9269  0.2177
 1225SOL     OW 5542   8.501   1.802   4.336 -0.2243  0.1426 -0.0933
 1225SOL    HW1 5543   8.566   1.870   4.351 -0.2883  0.1369  0.2142
 1225SOL    HW2 5544   8.457   1.828   4.255  1.3641 -0.8042 -1.3115
 1226SOL     OW 5545   8.781   3.689   1.630  0.8027 -0.1848  0.5546
 1226SOL    HW1 5546   8.737   3.606   1.618  1.5543 -0.6682  1.0688
 1226SOL    HW2 5547   8.782   3.702   1.725 -0.1255  0.8708  0.4470
 1227SOL     OW 5548   1.092   4.608   3.192 -0.1971 -0.2876  0.4249
 1227SOL    HW1 5549   1.009   4.604   3.240  0.5403  1.3814  1.9977
 1227SOL    HW2 5550   1.107   4.519   3.162 -2.9417 -0.4759 -0.6312
 1228SOL     OW 5551   2.501   4.357   0.724 -0.3899 -0.5689  0.2285
 1228SOL    HW1 5552   2.427   4.359   0.785 -0.4123 -0.3103  0.1956
 1228SOL    HW2 5553   2.528   4.448   0.717 -1.6078 -0.2912 -1.6231
 1229SOL     OW 5554   4.505   1.069   2.536 -0.2083  0.1742 -0.3661
 1229SOL    HW1 5555   4.458   1.139   2.583 -0.4734  0.0808 -0.4889
 1229SOL    HW2 5556   4.575   1.043   2.596 -0.9055 -0.3581  0.2511
 1230SOL     OW 5557   5.284   3.518   6.426 -0.0273 -0.1240  0.0670
 1230SOL    HW1 5558   5.255   3.609   6.432 -0.1242 -0.0323 -1.3758
 1230SOL    HW2 5559   5.259   3.479   6.510  1.7657  1.6402  1.4980
 1231SOL     OW 5560   4.564   1.461   8.628 -0.0743  0.2367 -0.3636
 1231SOL    HW1 5561   4.579   1.375   8.667 -1.4956 -0.2213 -0.7327
 1231SOL    HW2 5562   4.580   1.448   8.534  0.7374  0.6534 -0.2903
 1232SOL     OW 5563   4.010   8.792   3.932 -0.0195 -0.1987 -0.0655
 1232SOL    HW1 5564   4.097   8.773   3.898  0.9444  2.3707  0.7276
 1232SOL    HW2 5565   3.983   8.872   3.886  0.3448  2.0264  3.2300
 1233SOL     OW 5566   5.628   8.490   1.960  0.3273  0.3274  0.2551
 1233SOL    HW1 5567   5.669   8.562   1.912 -1.3887  0.0523 -1.7567
 1233SOL    HW2 5568   5.559   8.532   2.011  0.8078  0.3498  0.9094
 1234SOL     OW 5569   6.911   3.025   2.843  0.0570  0.8229  0.6696
 1234SOL    HW1 5570   6.832   2.986   2.808 -0.3678  1.2757  1.1063
 1234SOL    HW2 5571   6.982   2.969   2.812 -0.2880  1.2760 -1.0099
 1235SOL     OW 5572   7.779   6.382   5.865  0.2006  0.2848  0.1210
 1235SOL    HW1 5573   7.784   6.458   5.808 -0.8981  0.3844  0.1375
 1235SOL    HW2 5574   7.865   6.377   5.907 -0.5094  3.1102  2.1795
 1236SOL     OW 5575   8.725   2.106   6.557  0.3087  0.5358  0.0892
 1236SOL    HW1 5576   8.741   2.176   6.495  0.5819  0.6242  0.2536
 1236SOL    HW2 5577   8.703   2.151   6.639  2.4134  0.5137  0.7362
 1237SOL     OW 5578   8.680   3.100   3.311 -0.9792  0.2736  0.0569
 1237SOL    HW1 5579   8.681   3.011   3.275  0.9638 -0.4026  1.6260
 1237SOL    HW2 5580   8.599   3.138   3.278 -1.3317 -1.7047 -1.5389
 1238SOL     OW 5581   6.223   3.098   5.501  0.1792 -0.2255  0.0597
 1238SOL    HW1 5582   6.234   3.009   5.468  0.5219 -0.2154  0.1452
 1238SOL    HW2 5583   6.223   3.153   5.423 -2.7962 -0.5131 -0.2867
 1239SOL     OW 5584   0.402   8.748   8.427 -0.5304 -0.0754 -0.5343
 1239SOL    HW1 5585   0.344   8.758   8.503 -0.5290  1.8557 -0.7219
 1239SOL    HW2 5586   0.476   8.697   8.460 -0.0696  1.5401  1.0840
 1240SOL     OW 5587   5.711   1.559   2.719  0.1846 -0.4247  0.2054
 1240SOL    HW1 5588   5.772   1.551   2.646  0.5467 -2.0523  0.6342
 1240SOL    HW2 5589   5.640   1.498   2.697  0.0905 -0.6138  1.0105
 1241SOL     OW 5590   0.185   6.368   7.290 -0.2204 -0.2011 -0.0612
 1241SOL    HW1 5591   0.131   6.327   7.223 -0.2869 -1.3018  0.6543
 1241SOL    HW2 5592   0.152   6.334   7.373  1.4353 -0.7816  0.3995
 1242SOL     OW 5593   5.224   4.505   7.222 -0.6021  0.1600 -0.0412
 1242SOL    HW1 5594   5.279   4.538   7.151 -1.6964  1.2244 -0.4275
 1242SOL    HW2 5595   5.285   4.469   7.286  0.7782  3.2555  0.5779
 1243SOL     OW 5596   5.147   1.739   5.097  0.3022  0.1808  0.7748
 1243SOL    HW1 5597   5.224   1.775   5.052 -0.7551 -0.3084 -1.5584
 1243SOL    HW2 5598   5.163   1.645   5.100 -1.1884 -0.2716 -1.9969
 1244SOL     OW 5599   2.788   1.849   3.495 -0.3456 -1.0569 -0.0875
 1244SOL    HW1 5600   2.765   1.841   3.402 -1.3596 -0.6119  0.1096
 1244SOL    HW2 5601   2.852   1.779   3.510 -0.1396 -1.1123 -1.1230
 1245SOL     OW 5602   4.116   5.966   7.594 -0.0628  0.2725  0.3093
 1245SOL    HW1 5603   4.162   5.959   7.678  0.6242 -0.9496 -0.1349
 1245SOL    HW2 5604   4.169   6.028   7.543 -0.4347  0.9509  0.7392
 1246SOL     OW 5605   2.763   5.677   5.380 -0.3578  0.4838  0.0986
 1246SOL    HW1 5606   2.809   5.663   5.463 -0.1930 -0.7491 -0.1815
 1246SOL    HW2 5607   2.822   5.732   5.328  0.6734 -0.7986 -0.1335
 1247SOL     OW 5608   0.341   6.692   7.286  0.2900  0.6355 -0.4774
 1247SOL    HW1 5609   0.350   6.615   7.229 -1.7279 -0.1591  0.1663
 1247SOL    HW2 5610   0.304   6.759   7.230 -0.2179  0.3501 -0.4921
 1248SOL     OW 5611   7.210   2.099   2.855 -0.1394 -1.0209  0.5686
 1248SOL    HW1 5612   7.199   2.005   2.867  0.5269 -1.0758  0.7992
 1248SOL    HW2 5613   7.134   2.126   2.804  0.6384 -2.0391 -1.2346
 1249SOL     OW 5614   3.120   8.918   6.072 -0.0157 -0.1228  0.0464
 1249SOL    HW1 5615   3.187   8.941   6.007 -1.2321 -0.4910 -1.4068
 1249SOL    HW2 5616   3.085   9.002   6.102 -0.1067  0.0440 -0.5184
 1250SOL     OW 5617   0.756   4.574   4.617 -0.5892  0.8006 -0.3295
 1250SOL    HW1 5618   0.671   4.605   4.648 -0.0286  2.0872 -0.0143
 1250SOL    HW2 5619   0.815   4.587   4.692 -0.0070  0.3830 -0.7047
 1251SOL     OW 5620   3.670   8.237   3.228  0.3872  0.8301 -0.2200
 1251SOL    HW1 5621   3.695   8.190   3.148 -0.8023  1.1370 -0.7913
 1251SOL    HW2 5622   3.695   8.328   3.212  1.0255  0.7290  0.1581
 1252SOL     OW 5623   7.511   0.271   4.183  0.2571  0.4563  0.1913
 1252SOL    HW1 5624   7.567   0.225   4.121 -1.7595 -2.6842  0.4949
 1252SOL    HW2 5625   7.462   0.333   4.129  2.5108  1.8924 -0.3515
 1253SOL     OW 5626   7.389   3.652   4.285 -0.1662 -0.0523 -0.3763
 1253SOL    HW1 5627   7.302   3.659   4.324 -0.2490 -0.4495 -0.4893
 1253SOL    HW2 5628   7.384   3.576   4.226  0.6122 -0.8421  0.5361
 1254SOL     OW 5629   6.776   3.101   5.614 -0.1230 -0.2414 -0.2803
 1254SOL    HW1 5630   6.870   3.111   5.626 -0.1921  1.1393 -0.7338
 1254SOL    HW2 5631   6.744   3.190   5.600 -1.8166 -0.3793  2.1298
 1255SOL     OW 5632   5.615   4.397   5.668  0.2418  0.3702  0.2960
 1255SOL    HW1 5633   5.545   4.343   5.706 -0.5631 -0.5469 -2.2966
 1255SOL    HW2 5634   5.580   4.428   5.585  3.0035 -0.4454 -1.3159
 1256SOL     OW 5635   3.476   8.081   0.835  0.0612  1.0501 -0.2523
 1256SOL    HW1 5636   3.518   8.059   0.918  0.2453  1.5940 -0.1971
 1256SOL    HW2 5637   3.514   8.165   0.810  1.5129 -0.0310 -1.9098
 1257SOL     OW 5638   2.323   5.034   4.649 -0.0425  0.3644 -0.3112
 1257SOL    HW1 5639   2.230   5.044   4.667  0.0050  0.1179  0.0869
 1257SOL    HW2 5640   2.348   5.114   4.603 -0.2982  0.7379  0.2006
 1258SOL     OW 5641   8.710   0.378   7.711 -0.2458  0.2303 -0.0385
 1258SOL    HW1 5642   8.623   0.365   7.673 -0.2465  1.0194 -0.3366
 1258SOL    HW2 5643   8.745   0.454   7.663  0.4139  0.2102  0.4057
 1259SOL     OW 5644   4.083   2.949   3.805  0.2387  0.1707 -0.0576
 1259SOL    HW1 5645   4.144   2.921   3.736 -0.2172 -0.3080 -0.2701
 1259SOL    HW2 5646   4.003   2.899   3.789  0.2556 -0.2443  1.0532
 1260SOL     OW 5647   0.978   3.992   5.742 -0.1694 -0.5416 -0.2307
 1260SOL    HW1 5648   1.058   4.029   5.704 -0.9509  0.7227 -0.7238
 1260SOL    HW2 5649   0.949   3.928   5.678 -0.0778 -0.2828 -0.5370
 1261SOL     OW 5650   2.474   0.802   7.714  0.0121  0.1603 -0.3713
 1261SOL    HW1 5651   2.497   0.727   7.659  0.2428 -1.2161  1.4898
 1261SOL    HW2 5652   2.398   0.773   7.764  0.4798  0.9198  0.8404
 1262SOL     OW 5653   7.853   0.556   3.145 -0.2522  0.0803  0.1333
 1262SOL    HW1 5654   7.760   0.572   3.133 -0.4490 -0.8780  0.2575
 1262SOL    HW2 5655   7.896   0.637   3.117 -1.1655  0.8720  0.9353
 1263SOL     OW 5656   6.196   4.287   8.749 -0.1474  0.1356 -0.2193
 1263SOL    HW1 5657   6.213   4.372   8.709  0.3842 -1.7343 -4.5335
 1263SOL    HW2 5658   6.106   4.267   8.726  0.1141 -0.9514 -0.3454
 1264SOL     OW 5659   6.788   5.075   8.841  0.0491 -0.0045  0.5463
 1264SOL    HW1 5660   6.729   5.114   8.777  0.8821  2.0523  0.9713
 1264SOL    HW2 5661   6.756   5.104   8.926  1.2945  0.6512  0.8163
 1265SOL     OW 5662   3.863   3.244   5.406  0.3428  0.1184  0.6810
 1265SOL    HW1 5663   3.900   3.169   5.359 -2.2357 -0.7231 -0.1370
 1265SOL    HW2 5664   3.866   3.316   5.344  0.9434  0.1725  0.7654
 1266SOL     OW 5665   4.365   0.700   8.941 -0.3073  0.0640 -0.4108
 1266SOL    HW1 5666   4.347   0.623   8.994  1.7415 -0.2728 -0.1393
 1266SOL    HW2 5667   4.459   0.695   8.921 -0.6060  1.2076 -2.4293
 1267SOL     OW 5668   3.491   1.152   1.982  0.1032 -0.6623  0.1656
 1267SOL    HW1 5669   3.434   1.086   1.941 -0.1382 -0.4253  0.1195
 1267SOL    HW2 5670   3.530   1.106   2.057  0.7079 -1.1604 -0.4390
 1268SOL     OW 5671   5.719   0.852   6.278 -0.8146 -0.2633  0.6369
 1268SOL    HW1 5672   5.814   0.840   6.274 -0.8107 -0.2088  0.5736
 1268SOL    HW2 5673   5.706   0.919   6.346 -0.6008  2.2567 -1.6408
 1269SOL     OW 5674   4.825   0.768   0.624 -0.2778 -0.1089  0.0209
 1269SOL    HW1 5675   4.762   0.754   0.694 -1.7839  0.8659 -1.0783
 1269SOL    HW2 5676   4.838   0.682   0.585  0.2139 -0.5743  1.1406
 1270SOL     OW 5677   3.902   8.368   4.734 -0.6090  0.0734  0.3684
 1270SOL    HW1 5678   3.907   8.287   4.683 -2.0354  0.3536 -0.2715
 1270SOL    HW2 5679   3.851   8.345   4.811  0.9735 -0.1792  1.3886
 1271SOL     OW 5680   2.633   0.410   1.504  0.1878 -0.4473  0.1438
 1271SOL    HW1 5681   2.570   0.471   1.541 -0.9833 -1.5755  0.1078
 1271SOL    HW2 5682   2.597   0.388   1.418 -0.0426 -2.0184  0.5986
 1272SOL     OW 5683   5.279   8.234   6.318  0.0172  0.7772  0.3111
 1272SOL    HW1 5684   5.332   8.256   6.241  1.5127  0.0748  1.0754
 1272SOL    HW2 5685   5.214   8.303   6.324  0.7239  1.5696 -0.8208
 1273SOL     OW 5686   4.634   1.378   5.983  0.2357 -0.4197 -0.1400
 1273SOL    HW1 5687   4.631   1.382   6.078 -1.1559 -0.2255 -0.1695
 1273SOL    HW2 5688   4.545   1.352   5.957 -0.0952  1.7347 -1.4534
 1274SOL     OW 5689   7.331   7.653   1.824  0.2632 -0.3687 -0.3158
 1274SOL    HW1 5690   7.371   7.585   1.877 -0.0738  0.8568  1.6152
 1274SOL    HW2 5691   7.249   7.674   1.869 -1.0789 -0.6761 -2.4679
 1275SOL     OW 5692   0.142   4.998   3.534 -0.6001  0.3904 -0.0017
 1275SOL    HW1 5693   0.118   4.914   3.572  0.9853  0.2706  0.7842
 1275SOL    HW2 5694   0.109   4.994   3.444  0.5587 -1.5840 -0.3879
 1276SOL     OW 5695   7.307   6.787   6.741  0.0372 -1.2283  0.7131
 1276SOL    HW1 5696   7.383   6.769   6.795  0.2712 -0.9049  0.4930
 1276SOL    HW2 5697   7.329   6.868   6.694 -0.8970 -0.4931  1.5001
 1277SOL     OW 5698   0.845   2.993   5.181 -0.0084  0.1164  0.0823
 1277SOL    HW1 5699   0.918   3.055   5.178  0.7692 -0.8260 -1.4317
 1277SOL    HW2 5700   0.877   2.915   5.136 -2.2144 -0.0298 -1.3812
 1278SOL     OW 5701   0.440   7.530   6.636 -0.0212  0.1637 -0.3985
 1278SOL    HW1 5702   0.353   7.496   6.620  0.2526  0.3027 -2.3973
 1278SOL    HW2 5703   0.450   7.602   6.574  0.7400  1.5946  1.2813
 1279SOL     OW 5704   4.107   4.188   2.887 -0.0747  0.2264 -0.5088
 1279SOL    HW1 5705   4.154   4.221   2.810 -0.1107 -0.4156 -0.8085
 1279SOL    HW2 5706   4.173   4.183   2.955  0.4262 -1.1260 -1.0565
 1280SOL     OW 5707   6.581   6.487   6.604  0.1447  0.1297 -0.1598
 1280SOL    HW1 5708   6.563   6.464   6.695  0.6878 -1.9345 -0.5379
 1280SOL    HW2 5709   6.670   6.522   6.605  0.3707 -0.4542  0.0121
 1281SOL     OW 5710   3.493   1.753   5.327 -0.0516 -0.0538 -0.4452
 1281SOL    HW1 5711   3.446   1.720   5.404 -0.4716 -0.2369 -0.7760
 1281SOL    HW2 5712   3.576   1.705   5.327  1.3187  2.0863  1.6083
 1282SOL     OW 5713   5.326   5.104   3.409  0.1211 -0.0718 -0.3228
 1282SOL    HW1 5714   5.386   5.033   3.433  1.1080  0.3513 -1.4428
 1282SOL    HW2 5715   5.332   5.108   3.313 -1.5450  0.1383 -0.4344
 1283SOL     OW 5716   3.672   5.246   5.340 -0.2398  0.2849 -0.1759
 1283SOL    HW1 5717   3.701   5.158   5.314 -1.0053  0.2052 -0.7872
 1283SOL    HW2 5718   3.640   5.285   5.259 -2.8710 -0.0317  0.6107
 1284SOL     OW 5719   6.329   6.697   2.647  0.4269 -0.7643  0.0489
 1284SOL    HW1 5720   6.327   6.793   2.640  1.7480 -0.6474  0.9111
 1284SOL    HW2 5721   6.359   6.668   2.560 -0.3243 -0.4295 -0.3306
 1285SOL     OW 5722   3.570   5.156   4.900 -0.2403  0.0687 -0.2137
 1285SOL    HW1 5723   3.553   5.105   4.821 -0.3900  1.3699 -1.0541
 1285SOL    HW2 5724   3.493   5.141   4.955 -0.5550 -0.1415 -0.7063
 1286SOL     OW 5725   3.470   3.484   6.370 -0.2222 -0.0752  0.5890
 1286SOL    HW1 5726   3.440   3.574   6.384  0.4529  0.1305  0.7544
 1286SOL    HW2 5727   3.554   3.479   6.416  0.3809 -0.4025 -0.4880
 1287SOL     OW 5728   2.979   8.055   8.834 -0.1347  0.3800  0.4436
 1287SOL    HW1 5729   2.973   8.079   8.926  0.4884  0.6530  0.4118
 1287SOL    HW2 5730   2.986   7.960   8.834  1.1983  0.4649  0.7446
 1288SOL     OW 5731   0.003   6.865   0.940 -0.2233  0.1326 -0.5334
 1288SOL    HW1 5732   0.019   6.828   1.027 -1.4194 -0.7042 -0.6295
 1288SOL    HW2 5733   0.074   6.831   0.886 -0.8969 -1.5265 -0.4504
 1289SOL     OW 5734   0.199   6.857   7.129  0.3733 -0.3154 -0.0073
 1289SOL    HW1 5735   0.144   6.822   7.059  2.8904 -2.2036 -1.2205
 1289SOL    HW2 5736   0.204   6.951   7.112 -1.0131 -0.3767 -0.8677
 1290SOL     OW 5737   4.269   4.668   4.245 -0.3003  0.8002 -0.4272
 1290SOL    HW1 5738   4.270   4.578   4.210  0.2323  1.2482 -1.6308
 1290SOL    HW2 5739   4.184   4.675   4.288 -0.9865  0.1695 -1.6110
 1291SOL     OW 5740   6.147   7.991   5.875 -0.5946  0.2593 -0.0268
 1291SOL    HW1 5741   6.141   7.961   5.966  0.1034 -1.7587 -0.5832
 1291SOL    HW2 5742   6.218   7.939   5.838 -0.9126  1.0001 -1.7530
 1292SOL     OW 5743   2.945   5.631   5.655  0.3242  0.1339 -0.7030
 1292SOL    HW1 5744   2.986   5.717   5.644 -1.0524  1.0341  0.7172
 1292SOL    HW2 5745   2.963   5.607   5.745 -0.6461 -0.3184 -0.6210
 1293SOL     OW 5746   5.156   0.632   1.922 -0.2076  0.3442 -0.4838
 1293SOL    HW1 5747   5.147   0.683   2.002 -0.5291  2.1925 -1.6300
 1293SOL    HW2 5748   5.080   0.574   1.921 -0.2458  0.3659  0.4789
 1294SOL     OW 5749   5.495   6.987   4.090 -0.2349  0.7681 -0.0557
 1294SOL    HW1 5750   5.475   7.065   4.038  0.3632  0.8593 -0.1489
 1294SOL    HW2 5751   5.585   6.965   4.067 -0.5895 -0.3074 -0.4828
 1295SOL     OW 5752   0.537   2.029   1.489 -0.4094 -0.4644  0.2674
 1295SOL    HW1 5753   0.578   2.103   1.534 -1.1673  0.4630 -0.5092
 1295SOL    HW2 5754   0.505   1.972   1.559  0.5625 -0.2762  0.8731
 1296SOL     OW 5755   4.448   1.010   4.456  0.0095  0.2246  0.8917
 1296SOL    HW1 5756   4.366   0.980   4.418  0.4341  0.3468 -0.1417
 1296SOL    HW2 5757   4.455   0.962   4.539 -0.8763 -0.1249  0.7714
 1297SOL     OW 5758   0.657   5.778   5.780 -0.5512 -0.2249  0.5842
 1297SOL    HW1 5759   0.590   5.847   5.784  0.4205  0.6836  1.9685
 1297SOL    HW2 5760   0.739   5.825   5.765 -0.0859 -1.2321 -0.0794
 1298SOL     OW 5761   4.285   2.077   5.043 -0.3680 -0.1933  0.6563
 1298SOL    HW1 5762   4.276   2.157   4.992 -0.9320 -0.6216  0.0690
 1298SOL    HW2 5763   4.215   2.020   5.012  0.6829 -1.3332  0.2940
 1299SOL     OW 5764   4.393   5.498   7.872  0.2772  0.0653  0.0065
 1299SOL    HW1 5765   4.398   5.409   7.837 -2.8523 -0.1036 -0.3366
 1299SOL    HW2 5766   4.425   5.490   7.962  0.4467 -1.3060 -0.1574
 1300SOL     OW 5767   8.333   8.337   1.905  0.4828 -0.1673  0.3979
 1300SOL    HW1 5768   8.292   8.421   1.925  1.4157  0.6122 -0.8260
 1300SOL    HW2 5769   8.285   8.274   1.958 -1.9409  0.7634 -0.5345
 1301SOL     OW 5770   8.544   6.441   6.929 -0.0585 -0.1389 -0.2210
 1301SOL    HW1 5771   8.456   6.421   6.898 -1.0171  2.7885  0.2891
 1301SOL    HW2 5772   8.551   6.399   7.015 -0.2882 -1.7340 -0.9438
 1302SOL     OW 5773   5.369   8.912   5.224 -0.3727  0.2155 -0.0164
 1302SOL    HW1 5774   5.295   8.858   5.196  0.4519 -0.4959 -0.9032
 1302SOL    HW2 5775   5.424   8.853   5.276  0.6778  0.0882 -1.2234
 1303SOL     OW 5776   0.269   1.730   1.989 -0.3665 -0.1336  0.0411
 1303SOL    HW1 5777   0.322   1.793   1.940  0.6835 -0.5515  0.5980
 1303SOL    HW2 5778   0.183   1.771   1.997  0.2965  1.2401  0.4331
 1304SOL     OW 5779   5.649   6.226   6.995  0.3878  0.2081  0.4778
 1304SOL    HW1 5780   5.587   6.207   6.925 -0.2516  0.5552  0.9375
 1304SOL    HW2 5781   5.615   6.306   7.035  0.5756 -0.1533  1.3732
 1305SOL     OW 5782   0.237   7.252   7.387 -0.2428  0.3870  0.3671
 1305SOL    HW1 5783   0.172   7.289   7.447 -1.6816 -0.9366 -0.3060
 1305SOL    HW2 5784   0.306   7.218   7.444 -0.1818  1.6755  1.1039
 1306SOL     OW 5785   7.535   0.580   1.951 -0.0957  0.2147  1.0420
 1306SOL    HW1 5786   7.630   0.572   1.949 -0.1990 -1.7408 -1.7560
 1306SOL    HW2 5787   7.510   0.561   2.041  2.1047  0.3386  1.7154
 1307SOL     OW 5788   6.047   4.072   0.220  0.0811  0.4527 -0.6607
 1307SOL    HW1 5789   6.082   4.127   0.290 -0.2463 -0.0679 -0.0716
 1307SOL    HW2 5790   6.041   4.130   0.144 -0.5897  1.3326  0.0385
 1308SOL     OW 5791   4.194   2.331   6.282 -0.1794  0.2790  0.1443
 1308SOL    HW1 5792   4.281   2.293   6.297 -0.0374  0.4275 -0.2839
 1308SOL    HW2 5793   4.176   2.315   6.190 -0.6504  0.1697  0.2536
 1309SOL     OW 5794   8.811   2.328   6.451 -0.8637  0.3950  0.1552
 1309SOL    HW1 5795   8.897   2.337   6.410 -0.5442 -2.1588  0.0931
 1309SOL    HW2 5796   8.753   2.380   6.396  0.6048  2.1790  0.1967
 1310SOL     OW 5797   8.517   2.857   8.048 -0.0238  0.2218  0.8598
 1310SOL    HW1 5798   8.423   2.838   8.048 -0.2250  1.1345  2.0381
 1310SOL    HW2 5799   8.559   2.771   8.059 -0.6578 -0.3243 -0.7392
 1311SOL     OW 5800   8.915   0.596   6.284  0.0522  0.9637 -0.7824
 1311SOL    HW1 5801   8.913   0.674   6.339 -0.7703  1.4759 -1.5149
 1311SOL    HW2 5802   8.847   0.611   6.219 -0.3610 -0.5353 -0.7207
 1312SOL     OW 5803   4.914   5.440   4.531 -0.0694 -0.3577 -0.3012
 1312SOL    HW1 5804   4.901   5.358   4.579  1.5261  0.3628  1.5002
 1312SOL    HW2 5805   4.842   5.496   4.558 -0.3124 -0.6580 -0.3287
 1313SOL     OW 5806   6.064   3.462   7.994  0.0990 -0.1297 -0.1943
 1313SOL    HW1 5807   6.030   3.397   8.054 -0.1892  1.6204  1.6539
 1313SOL    HW2 5808   6.159   3.457   8.004  0.0911 -0.4007 -0.2416
 1314SOL     OW 5809   7.221   1.194   2.788  0.5514  0.0010 -0.1540
 1314SOL    HW1 5810   7.296   1.170   2.842 -0.2538  0.9246  1.4353
 1314SOL    HW2 5811   7.156   1.127   2.807  0.9967 -0.9311 -1.7048
 1315SOL     OW 5812   3.317   7.939   2.301 -0.3472  0.5551  0.2781
 1315SOL    HW1 5813   3.392   7.897   2.257  1.1342  3.8133 -0.5978
 1315SOL    HW2 5814   3.340   7.937   2.394  0.1647  0.3412  0.1549
 1316SOL     OW 5815   0.124   1.558   6.680  0.3802 -0.3517  0.2405
 1316SOL    HW1 5816   0.179   1.617   6.731  1.1186 -1.1371  0.3643
 1316SOL    HW2 5817   0.042   1.552   6.729  0.4409  0.2682  0.4209
 1317SOL     OW 5818   4.347   3.398   1.052  0.0018 -0.0290 -0.0815
 1317SOL    HW1 5819   4.320   3.315   1.014  0.7117 -0.4195  0.2443
 1317SOL    HW2 5820   4.266   3.440   1.081 -0.3426 -0.6570 -0.1384
 1318SOL     OW 5821   0.938   8.420   4.931 -0.1385 -0.1656 -0.8595
 1318SOL    HW1 5822   0.901   8.484   4.993 -1.2090 -1.7867  0.2535
 1318SOL    HW2 5823   1.014   8.384   4.976 -0.3462 -0.6555 -0.9006
 1319SOL     OW 5824   6.411   8.659   4.110 -0.0277 -0.4123  0.2231
 1319SOL    HW1 5825   6.359   8.739   4.116  1.5124  0.5344  2.0376
 1319SOL    HW2 5826   6.358   8.600   4.056 -1.5322  1.5528 -0.5845
 1320SOL     OW 5827   6.066   3.252   8.279  0.2849 -0.0515 -0.2920
 1320SOL    HW1 5828   6.061   3.162   8.249  0.2076 -0.6536  1.3855
 1320SOL    HW2 5829   6.156   3.279   8.260  1.1220 -1.3937  1.4486
 1321SOL     OW 5830   3.175   3.009   4.691  0.6773 -0.2626  1.0765
 1321SOL    HW1 5831   3.239   2.977   4.627 -1.4505  1.1045 -1.9926
 1321SOL    HW2 5832   3.121   2.933   4.710  0.3568 -0.3528 -0.0836
 1322SOL     OW 5833   5.263   4.093   3.153  0.0762  0.2857 -0.4683
 1322SOL    HW1 5834   5.311   4.022   3.195 -0.5074  0.5551  0.6900
 1322SOL    HW2 5835   5.175   4.058   3.139  0.5989 -0.2532 -2.7087
 1323SOL     OW 5836   8.929   6.380   4.052  0.1614  0.4815  0.1471
 1323SOL    HW1 5837   8.878   6.327   3.991 -0.8188 -0.3669  1.6358
 1323SOL    HW2 5838   8.872   6.455   4.072 -0.0800  0.0742  1.0141
 1324SOL     OW 5839   8.163   3.273   5.846  0.5120 -0.4267  0.6308
 1324SOL    HW1 5840   8.173   3.242   5.936  0.9119 -0.5742  0.5363
 1324SOL    HW2 5841   8.068   3.275   5.831  0.4292 -3.7316 -0.0826
 1325SOL     OW 5842   8.285   6.367   5.614  0.1124 -0.1508  0.1468
 1325SOL    HW1 5843   8.226   6.404   5.548  0.3334 -1.0640 -0.5813
 1325SOL    HW2 5844   8.255   6.405   5.697 -0.3893  0.7458 -0.4271
 1326SOL     OW 5845   5.997   3.601   1.886 -0.0229 -0.3716  0.3750
 1326SOL    HW1 5846   6.064   3.653   1.842 -1.8039  1.0864 -0.7603
 1326SOL    HW2 5847   5.916   3.652   1.877 -1.0820 -1.4599  2.7575
 1327SOL     OW 5848   6.306   3.725   6.383 -0.7095  0.1080  0.2585
 1327SOL    HW1 5849   6.300   3.740   6.289 -0.1878 -1.0244  0.0315
 1327SOL    HW2 5850   6.385   3.771   6.410 -0.8221  0.3750  0.1419
 1328SOL     OW 5851   8.699   7.101   6.016  0.0698 -0.3637  0.4010
 1328SOL    HW1 5852   8.617   7.113   6.064 -0.7420 -0.7407 -0.8294
 1328SOL    HW2 5853   8.692   7.160   5.941  0.1559 -1.6145 -0.6232
 1329SOL     OW 5854   3.993   6.527   0.031  0.0652 -0.4347  0.2482
 1329SOL    HW1 5855   3.942   6.448   0.012  0.4451 -0.7716  0.5918
 1329SOL    HW2 5856   3.948   6.569   0.104 -1.2064  0.6819 -1.1229
 1330SOL     OW 5857   3.261   3.382   4.760  0.7516  0.0511 -0.1062
 1330SOL    HW1 5858   3.229   3.450   4.702  0.1549  0.1417  0.3165
 1330SOL    HW2 5859   3.240   3.413   4.848  0.7271 -0.5450  0.1044
 1331SOL     OW 5860   3.629   2.764   0.328  0.1945  0.1774  0.5228
 1331SOL    HW1 5861   3.634   2.732   0.237 -1.7624  0.0502  0.4362
 1331SOL    HW2 5862   3.668   2.694   0.380 -0.9491 -0.8851  0.0001
 1332SOL     OW 5863   2.887   0.011   3.359  0.5123 -0.2965  0.2777
 1332SOL    HW1 5864   2.828   0.069   3.407 -0.8918 -0.0409 -1.6243
 1332SOL    HW2 5865   2.868  -0.076   3.394  1.0073  0.0919  1.5797
 1333SOL     OW 5866   4.719   5.650   7.565 -0.1804 -0.1422  0.0968
 1333SOL    HW1 5867   4.718   5.580   7.500  1.6552 -0.5850  0.4743
 1333SOL    HW2 5868   4.810   5.682   7.564 -0.1559  0.0125  2.2197
 1334SOL     OW 5869   8.764   6.519   3.356  0.0670  0.4131 -0.3312
 1334SOL    HW1 5870   8.815   6.514   3.437 -1.1631 -0.9952  0.3941
 1334SOL    HW2 5871   8.813   6.466   3.294  0.2519  0.2603 -0.0599
 1335SOL     OW 5872   0.136   6.520   5.345 -0.3620  0.1951 -0.0445
 1335SOL    HW1 5873   0.098   6.545   5.429  0.0738 -0.9887  0.5276
 1335SOL    HW2 5874   0.068   6.471   5.300 -0.3789  0.2797 -0.1117
 1336SOL     OW 5875   5.803   5.299   2.455 -0.2063 -0.0989 -0.1275
 1336SOL    HW1 5876   5.815   5.320   2.362 -0.1372 -0.4772 -0.2098
 1336SOL    HW2 5877   5.756   5.215   2.454  0.9556 -0.7801  0.1611
 1337SOL     OW 5878   5.911   4.044   1.119  0.5360 -0.1045  0.1856
 1337SOL    HW1 5879   5.816   4.038   1.110  0.6044 -0.8457 -0.1468
 1337SOL    HW2 5880   5.935   4.126   1.075 -0.0910  0.8512  1.5530
 1338SOL     OW 5881   6.861   4.646   1.846 -0.0866 -0.2311 -0.2582
 1338SOL    HW1 5882   6.848   4.607   1.932  0.9086  1.5517  0.7745
 1338SOL    HW2 5883   6.819   4.586   1.785 -0.9196 -1.4887  1.4774
 1339SOL     OW 5884   0.744   1.427   4.287  0.0933  0.5663 -0.3533
 1339SOL    HW1 5885   0.699   1.494   4.339  2.3918  0.1727  2.4334
 1339SOL    HW2 5886   0.819   1.472   4.249 -0.5385  0.4065 -1.8531
 1340SOL     OW 5887   3.167   5.511   3.635  0.4824 -0.4582  0.3854
 1340SOL    HW1 5888   3.188   5.438   3.577  2.1245 -0.2348  0.6706
 1340SOL    HW2 5889   3.233   5.577   3.617  0.9232 -0.2965  2.3557
 1341SOL     OW 5890   6.714   4.530   1.564 -0.0421 -0.4785 -0.4248
 1341SOL    HW1 5891   6.785   4.577   1.522 -0.5745 -1.2928 -2.3229
 1341SOL    HW2 5892   6.650   4.513   1.494  0.1691 -4.0730  0.0526
 1342SOL     OW 5893   6.099   2.334   2.420  0.0424 -0.1865  0.2164
 1342SOL    HW1 5894   6.062   2.392   2.487  2.6257 -0.1672  1.7741
 1342SOL    HW2 5895   6.106   2.389   2.342 -2.9647 -0.1910 -0.1669
 1343SOL     OW 5896   8.783   4.728   7.320 -0.1702 -0.0706  0.0305
 1343SOL    HW1 5897   8.819   4.814   7.297  0.4141  0.1372  1.5731
 1343SOL    HW2 5898   8.700   4.723   7.273 -0.2969  1.4141  0.0554
 1344SOL     OW 5899   0.489   0.326   5.923  0.2193 -0.2664 -0.1253
 1344SOL    HW1 5900   0.446   0.407   5.898 -0.7904 -0.9178 -0.5474
 1344SOL    HW2 5901   0.420   0.274   5.966  0.1621 -1.8977 -2.0533
 1345SOL     OW 5902   6.215   1.838   6.854  0.3802  0.3328 -0.4882
 1345SOL    HW1 5903   6.235   1.885   6.773 -0.1827 -1.3390 -1.6386
 1345SOL    HW2 5904   6.157   1.898   6.902  0.7203  1.3570 -1.3072
 1346SOL     OW 5905   1.291   4.725   0.517 -0.5426 -0.7346  0.1609
 1346SOL    HW1 5906   1.247   4.782   0.580 -0.4329  0.7042 -1.0076
 1346SOL    HW2 5907   1.238   4.732   0.437  1.6844  1.0689 -1.3013
 1347SOL     OW 5908   6.855   7.589   3.383  0.0082  0.5170 -0.4312
 1347SOL    HW1 5909   6.766   7.569   3.356  0.2474  0.6867 -1.3574
 1347SOL    HW2 5910   6.872   7.676   3.348  0.7508  0.2329 -0.8016
 1348SOL     OW 5911   0.527   5.437   1.116 -0.1160  0.3025 -0.7248
 1348SOL    HW1 5912   0.606   5.425   1.063 -1.1999 -0.3990 -2.2640
 1348SOL    HW2 5913   0.509   5.531   1.109  1.0378  0.6282  0.3643
 1349SOL     OW 5914   2.184   1.358   4.057  0.0474 -0.3025  0.1504
 1349SOL    HW1 5915   2.224   1.359   3.970  0.1328  0.7686  0.1891
 1349SOL    HW2 5916   2.114   1.423   4.052 -0.1629 -0.4757  0.7812
 1350SOL     OW 5917   4.148   0.491   0.827 -0.7165  0.0853 -0.0665
 1350SOL    HW1 5918   4.219   0.432   0.801 -0.8228 -0.1504  0.1807
 1350SOL    HW2 5919   4.069   0.439   0.821 -0.9654  0.5512 -1.0322
 1351SOL     OW 5920   8.973   1.724   3.020  0.4416  0.3901  0.2792
 1351SOL    HW1 5921   8.961   1.676   2.937  0.5240 -0.7855  0.9249
 1351SOL    HW2 5922   9.054   1.773   3.008  0.5480  0.0872 -0.2859
 1352SOL     OW 5923   8.976   3.484   4.505 -0.4646 -0.5350  0.2120
 1352SOL    HW1 5924   9.064   3.510   4.530  0.2247 -1.8661 -0.7029
 1352SOL    HW2 5925   8.929   3.566   4.491  1.1314  0.2192 -0.9578
 1353SOL     OW 5926   7.331   6.440   7.556 -0.2420  0.0098  0.6028
 1353SOL    HW1 5927   7.337   6.388   7.476 -0.6617 -0.8779  1.1371
 1353SOL    HW2 5928   7.268   6.392   7.611 -1.5493  1.6683  0.6475
 1354SOL     OW 5929   5.860   3.342   8.766 -0.2844 -0.1132 -0.3650
 1354SOL    HW1 5930   5.953   3.320   8.755 -0.1454 -0.3396  1.0725
 1354SOL    HW2 5931   5.827   3.348   8.676  0.9519 -0.7178 -0.8992
 1355SOL     OW 5932   1.820   2.726   8.381  0.1965 -0.7564 -1.1109
 1355SOL    HW1 5933   1.737   2.717   8.428  0.7097  0.6882  0.1342
 1355SOL    HW2 5934   1.804   2.797   8.319  0.8660  0.4924  0.0877
 1356SOL     OW 5935   2.856   2.444   7.327 -0.2558 -0.2417  0.4523
 1356SOL    HW1 5936   2.902   2.485   7.254  0.2981  0.0188  0.9429
 1356SOL    HW2 5937   2.795   2.512   7.357  0.7494  0.3000  1.3456
 1357SOL     OW 5938   5.008   4.830   5.110  0.1965  0.5187 -0.1922
 1357SOL    HW1 5939   4.920   4.809   5.140  0.2579  1.2572  0.5742
 1357SOL    HW2 5940   5.062   4.825   5.189  0.7844  0.3805 -0.5936
 1358SOL     OW 5941   7.387   7.769   7.919  0.5991 -0.0752 -0.0112
 1358SOL    HW1 5942   7.417   7.758   7.829  0.6906 -0.7733  0.1008
 1358SOL    HW2 5943   7.341   7.688   7.940 -0.3740  0.5117  0.2145
 1359SOL     OW 5944   4.553   1.561   0.782  0.6327 -0.1406 -0.0135
 1359SOL    HW1 5945   4.631   1.550   0.728 -0.8111 -1.0766 -2.0645
 1359SOL    HW2 5946   4.565   1.644   0.827  2.7333 -0.2248 -0.3534
 1360SOL     OW 5947   2.304   6.619   8.267 -0.1939 -0.6847 -0.1228
 1360SOL    HW1 5948   2.396   6.605   8.243  0.5299  0.6647  1.5785
 1360SOL    HW2 5949   2.254   6.567   8.205  1.7656 -2.2520 -0.4874
 1361SOL     OW 5950   7.854   5.505   0.985  0.5602  0.1675 -0.2555
 1361SOL    HW1 5951   7.795   5.441   0.945  0.7975  0.9798 -1.9894
 1361SOL    HW2 5952   7.884   5.558   0.912  2.9257  0.2075  0.6702
 1362SOL     OW 5953   2.318   6.126   8.019  0.2150  0.2380  0.0427
 1362SOL    HW1 5954   2.234   6.109   8.062  0.6447  0.8686  1.2072
 1362SOL    HW2 5955   2.311   6.083   7.934 -0.3213 -1.9256  1.1092
 1363SOL     OW 5956   3.995   7.440   2.381 -0.1758 -0.2489 -0.6256
 1363SOL    HW1 5957   3.989   7.346   2.401  0.1423  0.2040  1.9611
 1363SOL    HW2 5958   4.062   7.473   2.440 -1.6470  1.9502 -0.0633
 1364SOL     OW 5959   1.078   5.614   7.895 -0.0509 -0.4340 -0.8448
 1364SOL    HW1 5960   1.150   5.551   7.897 -1.1636 -1.9445 -3.4088
 1364SOL    HW2 5961   1.056   5.622   7.802 -2.1266  1.2288 -0.2833
 1365SOL     OW 5962   7.778   7.074   5.967 -0.1333 -0.1250 -0.1775
 1365SOL    HW1 5963   7.707   7.072   5.904 -0.7615 -1.7720  0.5286
 1365SOL    HW2 5964   7.853   7.036   5.921 -0.0877  0.2880 -0.4561
 1366SOL     OW 5965   1.450   2.082   1.056  0.0774  0.0467 -0.0376
 1366SOL    HW1 5966   1.359   2.072   1.083 -0.1879 -1.5905 -1.3946
 1366SOL    HW2 5967   1.445   2.097   0.961  1.1769  1.2166  0.0564
 1367SOL     OW 5968   5.152   3.691   4.113 -0.1757  0.4690 -0.0245
 1367SOL    HW1 5969   5.137   3.672   4.020  0.7620  0.9460 -0.2899
 1367SOL    HW2 5970   5.073   3.660   4.157 -0.6349  0.2357 -0.9831
 1368SOL     OW 5971   0.113   6.313   5.940 -0.1551  0.2774  0.3337
 1368SOL    HW1 5972   0.196   6.347   5.974 -0.4992  0.2443  1.2321
 1368SOL    HW2 5973   0.056   6.389   5.938 -0.7738 -0.1012  1.8691
 1369SOL     OW 5974   8.886   3.053   3.563 -0.4375  0.3044 -0.6062
 1369SOL    HW1 5975   8.839   3.003   3.630 -0.2091 -0.4338 -0.9907
 1369SOL    HW2 5976   8.829   3.052   3.487  0.0952 -0.4273 -1.0105
 1370SOL     OW 5977   5.874   8.934   5.004 -0.0085 -0.1687 -0.3068
 1370SOL    HW1 5978   5.841   8.941   5.093  3.2069  0.8729  0.9239
 1370SOL    HW2 5979   5.832   9.007   4.957 -1.3480 -0.4309  0.4561
 1371SOL     OW 5980   7.515   4.916   1.774  0.1783  0.5728  0.0280
 1371SOL    HW1 5981   7.570   4.959   1.839  0.2070  0.8533 -0.1815
 1371SOL    HW2 5982   7.577   4.881   1.709  0.1089  1.0013 -0.2763
 1372SOL     OW 5983   6.750   3.366   5.552  0.4373 -0.4706  0.0386
 1372SOL    HW1 5984   6.789   3.423   5.485  0.0187  0.2899  0.4409
 1372SOL    HW2 5985   6.746   3.420   5.631 -0.8014 -0.7577  0.1860
 1373SOL     OW 5986   8.931   3.609   3.776  0.1538  0.2627  0.3834
 1373SOL    HW1 5987   8.973   3.675   3.830 -0.5272  0.4873  0.6469
 1373SOL    HW2 5988   8.952   3.526   3.819  0.2197  0.3837  0.5856
 1374SOL     OW 5989   7.159   5.389   1.425  0.3388 -1.0262  0.7800
 1374SOL    HW1 5990   7.197   5.457   1.370 -0.1161  1.7723  3.6039
 1374SOL    HW2 5991   7.099   5.342   1.367  1.4446  0.2806 -1.5638
 1375SOL     OW 5992   4.126   7.218   7.642 -0.2966 -0.6813  0.5089
 1375SOL    HW1 5993   4.112   7.211   7.736  3.1715 -1.6121  1.0915
 1375SOL    HW2 5994   4.169   7.302   7.630  0.7753 -1.2825  0.0197
 1376SOL     OW 5995   6.168   2.099   3.949 -0.1247 -0.3076 -0.0863
 1376SOL    HW1 5996   6.123   2.098   4.034  1.0028  1.3771  0.5844
 1376SOL    HW2 5997   6.260   2.113   3.970  0.3552 -1.0187 -1.5524
 1377SOL     OW 5998   3.598   6.498   3.894  0.2619  0.7717 -0.2430
 1377SOL    HW1 5999   3.666   6.518   3.958 -0.5002 -0.1450  0.8985
 1377SOL    HW2 6000   3.642   6.446   3.826  0.6994  0.1622  0.4976
 1378SOL     OW 6001   4.063   2.623   0.281  0.3065 -0.9710  1.0495
 1378SOL    HW1 6002   3.990   2.567   0.255 -1.0487  0.0863  2.4020
 1378SOL    HW2 6003   4.135   2.596   0.224 -0.8707 -2.6467  0.2595
 1379SOL     OW 6004   2.578   5.413   8.805  0.1127  0.1323 -0.5962
 1379SOL    HW1 6005   2.638   5.360   8.754  1.0805  0.7946 -0.1880
 1379SOL    HW2 6006   2.498   5.361   8.811  0.3531 -0.4067 -1.8561
 1380SOL     OW 6007   2.799   0.698   8.608  0.2481 -0.8440  0.2422
 1380SOL    HW1 6008   2.737   0.695   8.535  0.7520 -0.1375 -0.2298
 1380SOL    HW2 6009   2.846   0.614   8.603 -0.7198 -1.4250  0.6627
 1381SOL     OW 6010   0.167   7.810   8.479  0.1010  0.2025  0.5703
 1381SOL    HW1 6011   0.088   7.860   8.498 -1.3400 -1.8310  0.3054
 1381SOL    HW2 6012   0.196   7.776   8.564 -0.3215 -0.4315  0.4699
 1382SOL     OW 6013   0.389   1.607   7.802  0.3352 -0.6151  0.5878
 1382SOL    HW1 6014   0.470   1.579   7.845  0.7399 -0.0645  0.1926
 1382SOL    HW2 6015   0.379   1.699   7.827 -0.0812 -0.6303  0.4912
 1383SOL     OW 6016   0.287   0.279   7.614  0.3871 -0.3710 -0.1961
 1383SOL    HW1 6017   0.271   0.234   7.531 -0.1398 -1.1954  0.3502
 1383SOL    HW2 6018   0.321   0.365   7.588 -0.0375 -0.5164 -1.2738
 1384SOL     OW 6019   5.120   6.887   0.163  0.1037  0.5458  0.1881
 1384SOL    HW1 6020   5.143   6.926   0.079  0.2487  1.8940  0.8246
 1384SOL    HW2 6021   5.095   6.797   0.142  2.3013  0.1612 -1.0093
 1385SOL     OW 6022   4.627   0.804   7.877  0.4942 -0.4176  0.4951
 1385SOL    HW1 6023   4.557   0.824   7.815  2.4123  0.9303 -1.4065
 1385SOL    HW2 6024   4.582   0.768   7.954 -2.6577  3.4505  0.7984
 1386SOL     OW 6025   2.181   1.040   4.145 -0.2073  0.0065  0.4474
 1386SOL    HW1 6026   2.190   1.112   4.208  0.4348 -1.4369  2.1114
 1386SOL    HW2 6027   2.258   0.985   4.161  0.5256  0.0910 -2.3685
 1387SOL     OW 6028   5.706   5.063   7.625 -0.2315 -0.6075 -0.5908
 1387SOL    HW1 6029   5.709   5.158   7.636  0.6924 -0.3610 -2.5748
 1387SOL    HW2 6030   5.759   5.029   7.697  0.7462  0.4832 -0.7655
 1388SOL     OW 6031   3.145   4.969   4.083 -0.1766 -0.2863 -0.2987
 1388SOL    HW1 6032   3.120   4.988   3.992  0.7077 -1.3246 -0.7844
 1388SOL    HW2 6033   3.241   4.975   4.082 -0.0160 -2.2492  0.0809
 1389SOL     OW 6034   8.174   2.800   0.323 -0.4472 -0.0253  0.2351
 1389SOL    HW1 6035   8.181   2.849   0.405 -0.8154  1.1364 -0.4055
 1389SOL    HW2 6036   8.083   2.813   0.295 -0.5910 -1.1911  0.1000
 1390SOL     OW 6037   4.126   6.817   7.852  0.0725 -0.2582  0.3895
 1390SOL    HW1 6038   4.196   6.882   7.849 -0.2284  0.1928  2.1176
 1390SOL    HW2 6039   4.172   6.734   7.866  0.3281 -0.0842  0.6114
 1391SOL     OW 6040   3.363   0.938   7.583 -0.2876  0.1511  0.7309
 1391SOL    HW1 6041   3.303   0.866   7.565  0.3963  0.1222 -1.8186
 1391SOL    HW2 6042   3.306   1.012   7.603 -1.2476  0.0225 -1.2347
 1392SOL     OW 6043   2.239   4.211   0.197 -0.2565  0.1039 -0.1513
 1392SOL    HW1 6044   2.158   4.259   0.218 -1.4440 -1.1143 -1.7069
 1392SOL    HW2 6045   2.309   4.272   0.219 -1.5983  1.3225  0.9665
 1393SOL     OW 6046   5.820   2.329   2.575  0.2974 -0.6665  0.0309
 1393SOL    HW1 6047   5.851   2.411   2.535  1.2163 -1.6284 -1.3479
 1393SOL    HW2 6048   5.726   2.329   2.560  0.5578 -0.8311 -1.9884
 1394SOL     OW 6049   2.296   5.201   4.119  0.3258 -0.2255 -0.1835
 1394SOL    HW1 6050   2.344   5.125   4.151  0.0120 -0.5315 -0.4324
 1394SOL    HW2 6051   2.328   5.274   4.172  1.6678 -0.2727 -0.8863
 1395SOL     OW 6052   4.937   7.320   1.455  0.1490  1.0208  0.0165
 1395SOL    HW1 6053   4.930   7.387   1.388 -0.8004  0.5013 -0.4241
 1395SOL    HW2 6054   4.846   7.296   1.474  0.4688 -1.4763 -1.2169
 1396SOL     OW 6055   6.582   1.148   1.163 -0.1360 -0.0278  0.3067
 1396SOL    HW1 6056   6.555   1.082   1.226  1.9581 -0.9562  0.3210
 1396SOL    HW2 6057   6.519   1.140   1.091 -0.4721 -1.3945  0.7281
 1397SOL     OW 6058   4.177   3.008   1.113 -0.4011 -0.4233  0.2836
 1397SOL    HW1 6059   4.108   3.000   1.047 -0.1669 -1.6868  0.1573
 1397SOL    HW2 6060   4.173   2.926   1.162  1.4296 -0.8354 -0.1599
 1398SOL     OW 6061   6.133   4.710   7.842 -0.0457  0.6159 -0.0692
 1398SOL    HW1 6062   6.158   4.703   7.934  3.6541  3.2626 -0.6388
 1398SOL    HW2 6063   6.178   4.637   7.800 -0.9534 -0.0382  0.0880
 1399SOL     OW 6064   5.298   5.727   6.589 -0.6105  0.4920  0.1742
 1399SOL    HW1 6065   5.349   5.648   6.601 -0.1515  0.7515 -0.0601
 1399SOL    HW2 6066   5.294   5.767   6.676 -0.1973  0.5997  0.1465
 1400SOL     OW 6067   5.458   6.674   0.701 -0.2012  0.0325  0.6861
 1400SOL    HW1 6068   5.398   6.694   0.773 -0.4634 -1.2373  0.8458
 1400SOL    HW2 6069   5.425   6.724   0.627 -1.2489 -0.3681  0.8710
 1401SOL     OW 6070   3.703   6.484   8.265  0.3442 -0.1570  0.0024
 1401SOL    HW1 6071   3.640   6.555   8.273  0.8539  0.2633  0.3209
 1401SOL    HW2 6072   3.717   6.474   8.171 -0.4931 -0.5242 -0.0941
 1402SOL     OW 6073   6.065   4.383   1.968 -0.2703  0.0997 -0.1807
 1402SOL    HW1 6074   6.142   4.327   1.965 -0.5851 -0.3117 -0.8819
 1402SOL    HW2 6075   6.002   4.335   2.021 -0.3573  0.0129 -0.3585
 1403SOL     OW 6076   8.160   2.683   5.517 -0.3366  0.0508 -0.2294
 1403SOL    HW1 6077   8.129   2.727   5.596 -2.1097 -1.7968  0.2041
 1403SOL    HW2 6078   8.104   2.716   5.447 -1.4435 -1.1876  0.0373
 1404SOL     OW 6079   6.364   4.307   5.901 -0.1239 -0.1120  0.3156
 1404SOL    HW1 6080   6.302   4.299   5.974 -1.4771 -0.0766 -0.7782
 1404SOL    HW2 6081   6.326   4.253   5.832  1.0029  0.0412 -0.4470
 1405SOL     OW 6082   4.112   3.037   5.812 -0.1641 -0.2509  0.4978
 1405SOL    HW1 6083   4.195   2.995   5.834 -0.8418 -1.8704  0.1451
 1405SOL    HW2 6084   4.116   3.122   5.855  2.0006  0.0600 -0.1930
 1406SOL     OW 6085   4.721   2.908   0.255  0.6465  0.2708 -0.0728
 1406SOL    HW1 6086   4.682   2.837   0.306  1.9332 -0.9942 -0.7678
 1406SOL    HW2 6087   4.814   2.907   0.279  0.8472  1.1443 -0.7400
 1407SOL     OW 6088   7.366   7.558   4.845  0.1500  0.5096 -0.4115
 1407SOL    HW1 6089   7.318   7.568   4.928 -0.8776 -0.9209 -0.7867
 1407SOL    HW2 6090   7.453   7.528   4.872  0.1746  1.1079  0.1966
 1408SOL     OW 6091   6.445   0.828   7.460  0.6658 -0.1960 -0.8550
 1408SOL    HW1 6092   6.393   0.747   7.469 -0.2289  0.4725  0.2991
 1408SOL    HW2 6093   6.532   0.798   7.437  0.4023 -1.5214 -0.2301
 1409SOL     OW 6094   0.859   3.652   8.084  0.3542  0.2236 -0.1651
 1409SOL    HW1 6095   0.771   3.677   8.113 -0.8303 -2.6311 -0.9883
 1409SOL    HW2 6096   0.889   3.590   8.150  0.7260 -0.6429 -1.1240
 1410SOL     OW 6097   0.618   8.677   4.600  0.1160  0.5053 -0.5022
 1410SOL    HW1 6098   0.652   8.721   4.678 -1.8883 -0.2870  0.8916
 1410SOL    HW2 6099   0.527   8.706   4.594  0.2284  0.5274 -2.5701
 1411SOL     OW 6100   4.840   8.197   3.948 -0.1904  0.0778 -0.1436
 1411SOL    HW1 6101   4.836   8.277   4.000 -2.3942 -1.2965  2.0204
 1411SOL    HW2 6102   4.915   8.149   3.982 -0.6793 -0.1072  0.6849
 1412SOL     OW 6103   3.806   2.041   4.229  1.3190 -0.3843  0.0952
 1412SOL    HW1 6104   3.793   2.065   4.137  0.1922 -1.4796 -0.0608
 1412SOL    HW2 6105   3.897   2.012   4.234  1.9742  1.4707 -0.2315
 1413SOL     OW 6106   1.901   6.634   7.320  0.5889  0.2713  0.1683
 1413SOL    HW1 6107   1.899   6.553   7.371  2.8851  0.1878  0.2388
 1413SOL    HW2 6108   1.837   6.620   7.251  1.3892 -1.9315 -0.2241
 1414SOL     OW 6109   8.566   0.184   3.745  0.2090  0.1910 -0.4688
 1414SOL    HW1 6110   8.473   0.167   3.737  0.1260  0.4728 -0.1197
 1414SOL    HW2 6111   8.600   0.178   3.656  0.3287 -2.5160 -0.3226
 1415SOL     OW 6112   8.339   2.184   2.291 -0.0007  0.5239  0.0543
 1415SOL    HW1 6113   8.411   2.247   2.287  0.8701 -0.4943 -0.5674
 1415SOL    HW2 6114   8.368   2.119   2.354 -0.7622  0.5495  0.4487
 1416SOL     OW 6115   4.798   1.726   4.570 -0.0106 -0.6295  0.4664
 1416SOL    HW1 6116   4.749   1.795   4.615  0.3909 -0.6687  0.9680
 1416SOL    HW2 6117   4.866   1.772   4.521 -0.1471 -0.6245  0.2782
 1417SOL     OW 6118   5.231   4.473   2.513 -0.6060  0.1758  0.0253
 1417SOL    HW1 6119   5.322   4.441   2.513 -0.5127  0.4388  0.0703
 1417SOL    HW2 6120   5.182   4.406   2.465 -0.0758  0.9416 -1.6614
 1418SOL     OW 6121   7.344   5.931   1.879 -0.0681  0.8245  0.7923
 1418SOL    HW1 6122   7.259   5.974   1.868 -0.6885 -0.8919 -1.8343
 1418SOL    HW2 6123   7.407   6.001   1.863 -1.0419  1.1709 -2.1580
 1419SOL     OW 6124   7.292   8.397   6.417  0.3198  0.1455 -0.2426
 1419SOL    HW1 6125   7.320   8.338   6.487  0.2994  0.0036 -0.3521
 1419SOL    HW2 6126   7.312   8.484   6.449 -0.3280  0.1305  0.2357
 1420SOL     OW 6127   3.407   8.896   8.047  0.1577  0.1372  0.3195
 1420SOL    HW1 6128   3.483   8.892   7.990 -0.6851 -2.3465 -0.7852
 1420SOL    HW2 6129   3.375   8.986   8.040  2.4692  0.9948  0.1791
 1421SOL     OW 6130   4.230   4.790   4.787 -0.3173  0.0707 -0.4727
 1421SOL    HW1 6131   4.161   4.857   4.790 -0.7722 -0.3429  3.4202
 1421SOL    HW2 6132   4.309   4.839   4.765 -0.9381  1.6186  0.5483
 1422SOL     OW 6133   3.793   1.480   7.094 -0.4881  0.4810 -0.4312
 1422SOL    HW1 6134   3.728   1.544   7.067 -0.7240 -0.0507 -1.1686
 1422SOL    HW2 6135   3.749   1.428   7.162 -0.9014  0.0324 -1.0261
 1423SOL     OW 6136   3.510   6.331   4.275  0.0709  0.6519 -0.6685
 1423SOL    HW1 6137   3.574   6.389   4.235  1.9162 -0.6937  0.1921
 1423SOL    HW2 6138   3.561   6.256   4.306 -1.8817 -0.3529  0.3220
 1424SOL     OW 6139   2.277   5.417   0.746  0.1196  0.3856 -0.0298
 1424SOL    HW1 6140   2.215   5.385   0.681 -0.6164  1.7631 -0.0396
 1424SOL    HW2 6141   2.258   5.367   0.825  1.1977 -1.5051 -0.8844
 1425SOL     OW 6142   3.298   5.907   6.116  0.2965  0.1268  0.0503
 1425SOL    HW1 6143   3.297   5.999   6.144  1.2591  0.3714 -0.6436
 1425SOL    HW2 6144   3.386   5.876   6.138 -0.1242 -0.7359  0.5766
 1426SOL     OW 6145   7.271   4.863   0.293 -0.7756  0.2517 -0.0246
 1426SOL    HW1 6146   7.258   4.770   0.275 -1.2334 -0.3538  2.9367
 1426SOL    HW2 6147   7.184   4.895   0.317 -0.2316  0.8714  1.1806
 1427SOL     OW 6148   2.624   8.841   8.514 -0.0166 -0.4360 -0.2498
 1427SOL    HW1 6149   2.621   8.883   8.428 -1.4238  0.5609  0.2394
 1427SOL    HW2 6150   2.708   8.868   8.550  0.4877 -0.6739 -1.2182
 1428SOL     OW 6151   2.023   8.012   3.034  0.4137 -0.3456 -0.4902
 1428SOL    HW1 6152   1.985   8.082   2.981 -0.2209  0.0020  0.3981
 1428SOL    HW2 6153   1.954   7.947   3.043 -0.2809  0.5880  1.6733
 1429SOL     OW 6154   0.618   4.873   7.581 -0.8426  0.2661 -0.8462
 1429SOL    HW1 6155   0.671   4.793   7.584 -0.8948  0.2139 -1.2894
 1429SOL    HW2 6156   0.664   4.930   7.520  0.5144  1.5259  1.2153
 1430SOL     OW 6157   0.974   4.358   4.481 -0.2338  0.1685 -0.7222
 1430SOL    HW1 6158   0.915   4.382   4.410 -0.5349  1.0805 -0.1820
 1430SOL    HW2 6159   0.971   4.433   4.541 -2.6895 -1.8339  2.0046
 1431SOL     OW 6160   4.253   3.012   0.339  0.1631  0.6204  0.1409
 1431SOL    HW1 6161   4.323   2.946   0.341 -1.6514 -1.4249  2.1183
 1431SOL    HW2 6162   4.238   3.027   0.245  1.0494 -1.3760 -0.3796
 1432SOL     OW 6163   7.404   0.302   8.328 -0.2576 -0.4773  0.2888
 1432SOL    HW1 6164   7.390   0.296   8.233  2.1296 -0.3010 -0.1460
 1432SOL    HW2 6165   7.351   0.377   8.355  0.0554  0.3245 -1.1745
 1433SOL     OW 6166   0.040   8.679   5.146 -0.4318 -0.2980  0.3414
 1433SOL    HW1 6167   0.096   8.647   5.075  3.4548  1.0571  2.4758
 1433SOL    HW2 6168   0.094   8.670   5.225 -2.2416  3.4162  2.2932
 1434SOL     OW 6169   1.819   2.887   1.044  0.2388  0.0253  0.2594
 1434SOL    HW1 6170   1.787   2.866   1.132  1.7492 -1.0541  0.5854
 1434SOL    HW2 6171   1.778   2.971   1.023 -1.4057 -0.4715  1.3234
 1435SOL     OW 6172   4.149   3.362   6.207  0.2211  0.2826  0.1217
 1435SOL    HW1 6173   4.225   3.387   6.155 -0.3062 -0.6768 -1.1803
 1435SOL    HW2 6174   4.075   3.405   6.164 -0.3669 -1.3766 -0.6518
 1436SOL     OW 6175   1.019   2.399   5.066  0.1935 -0.1908  0.1378
 1436SOL    HW1 6176   1.083   2.327   5.067  2.0514  1.3527 -0.8864
 1436SOL    HW2 6177   1.006   2.418   4.973  0.5249  1.4203  0.3882
 1437SOL     OW 6178   1.250   7.671   7.033 -0.1831 -0.1772  0.1659
 1437SOL    HW1 6179   1.315   7.722   6.985  0.5318 -1.0865  0.1327
 1437SOL    HW2 6180   1.166   7.709   7.009  0.3535  1.2608  0.4930
 1438SOL     OW 6181   3.810   7.869   5.590 -0.6221 -0.3485 -0.2854
 1438SOL    HW1 6182   3.882   7.929   5.609 -0.2626  0.0082 -2.4403
 1438SOL    HW2 6183   3.842   7.784   5.617 -1.1011  0.3280  2.7363
 1439SOL     OW 6184   6.520   3.702   0.219 -0.2318  0.0301  0.1542
 1439SOL    HW1 6185   6.447   3.652   0.182 -0.6905  0.9171 -0.1877
 1439SOL    HW2 6186   6.477   3.768   0.274  0.3610 -0.0356  0.7018
 1440SOL     OW 6187   6.656   3.603   7.101  0.3825 -0.5476 -0.1085
 1440SOL    HW1 6188   6.661   3.511   7.127  0.3276 -0.5045  0.0561
 1440SOL    HW2 6189   6.747   3.632   7.100  0.2968 -0.1311  1.5547
 1441SOL     OW 6190   5.753   3.140   7.563  0.4005 -0.2486  0.2035
 1441SOL    HW1 6191   5.670   3.179   7.591 -0.6891 -2.1078 -0.2612
 1441SOL    HW2 6192   5.807   3.139   7.642  0.1146  1.2300  0.4525
 1442SOL     OW 6193   7.913   4.682   3.912  0.0004  0.0662 -0.0288
 1442SOL    HW1 6194   7.986   4.656   3.855 -0.6643 -0.7753 -0.5290
 1442SOL    HW2 6195   7.952   4.690   3.999  1.0300  1.3122 -0.5641
 1443SOL     OW 6196   4.886   2.144   3.064  0.1835  0.4262 -0.0714
 1443SOL    HW1 6197   4.902   2.127   2.971 -0.2075  0.6651 -0.1838
 1443SOL    HW2 6198   4.806   2.196   3.065  1.2551  2.1391  0.2726
 1444SOL     OW 6199   3.777   6.414   6.060 -0.3134  0.1341 -0.1074
 1444SOL    HW1 6200   3.691   6.446   6.087 -0.1707  0.6929 -0.3134
 1444SOL    HW2 6201   3.816   6.486   6.011  0.5452  0.1251  0.5494
 1445SOL     OW 6202   8.041   1.844   7.251 -0.7169  0.2256 -0.3367
 1445SOL    HW1 6203   8.025   1.754   7.279 -1.0237  0.2892 -0.3005
 1445SOL    HW2 6204   7.972   1.861   7.187 -0.6763  0.4432 -0.3218
 1446SOL     OW 6205   1.885   2.089   5.397 -0.1670 -0.7912 -0.2497
 1446SOL    HW1 6206   1.795   2.121   5.402 -0.0304 -0.3571 -0.5763
 1446SOL    HW2 6207   1.878   1.996   5.417 -0.9398 -1.1879 -2.2052
 1447SOL     OW 6208   6.901   3.479   6.680  0.0007  0.1672  0.1691
 1447SOL    HW1 6209   6.873   3.524   6.600 -1.4362  0.7881  0.9676
 1447SOL    HW2 6210   6.822   3.436   6.713  0.6122 -0.2740  1.1259
 1448SOL     OW 6211   0.683   4.663   8.097 -0.2986  0.2050 -0.7579
 1448SOL    HW1 6212   0.778   4.661   8.094 -0.1008  0.7231  2.0473
 1448SOL    HW2 6213   0.661   4.757   8.098 -0.5790  0.1706  1.5670
 1449SOL     OW 6214   5.406   7.749   4.696  0.3010  0.2631 -0.3597
 1449SOL    HW1 6215   5.317   7.718   4.677  0.4115  0.7545 -1.8072
 1449SOL    HW2 6216   5.414   7.741   4.790 -1.0230 -0.5003 -0.2834
 1450SOL     OW 6217   6.143   6.752   8.772 -0.0279 -0.2858 -0.2909
 1450SOL    HW1 6218   6.106   6.684   8.716  0.2982 -0.1296 -0.7018
 1450SOL    HW2 6219   6.105   6.833   8.738  2.1449  0.1077 -1.9953
 1451SOL     OW 6220   4.102   5.597   7.514  0.0414  0.2296 -0.7134
 1451SOL    HW1 6221   4.061   5.681   7.535  1.3036  0.4937  1.0077
 1451SOL    HW2 6222   4.162   5.617   7.442  0.0411  0.7248 -0.5808
 1452SOL     OW 6223   3.298   7.477   5.626  0.4614 -0.5938 -0.1120
 1452SOL    HW1 6224   3.337   7.550   5.578 -0.3252  1.5949  2.3215
 1452SOL    HW2 6225   3.212   7.463   5.585  0.8747 -0.5966 -0.9869
 1453SOL     OW 6226   5.223   8.847   8.059  0.3071  0.2108  0.7341
 1453SOL    HW1 6227   5.171   8.852   7.979  0.1627 -0.0886  0.8064
 1453SOL    HW2 6228   5.168   8.891   8.125  0.8926  1.4131  0.4385
 1454SOL     OW 6229   2.526   1.674   0.869 -0.1241  0.6448  0.0024
 1454SOL    HW1 6230   2.486   1.649   0.952  0.0112  1.6224  0.3626
 1454SOL    HW2 6231   2.499   1.604   0.809  1.3258 -1.1149  1.2803
 1455SOL     OW 6232   6.231   0.703   4.306  0.5577  0.6434  0.2476
 1455SOL    HW1 6233   6.161   0.713   4.371 -0.4241 -0.5104 -0.6023
 1455SOL    HW2 6234   6.274   0.621   4.330  1.6854  1.3812  0.8044
 1456SOL     OW 6235   6.796   6.394   0.965 -0.6550  0.1721  0.2576
 1456SOL    HW1 6236   6.734   6.328   0.994  0.0506 -0.4941  0.2987
 1456SOL    HW2 6237   6.874   6.344   0.939 -0.5349  0.8965 -0.8463
 1457SOL     OW 6238   6.594   7.822   2.583  0.1626 -0.2813  0.0000
 1457SOL    HW1 6239   6.680   7.846   2.548 -1.0061  0.2466 -2.8260
 1457SOL    HW2 6240   6.597   7.727   2.591  1.0611 -0.2563  0.0656
 1458SOL     OW 6241   1.327   7.209   8.499  0.2751 -0.2103  0.0030
 1458SOL    HW1 6242   1.364   7.171   8.419  0.0886  1.7120 -1.0567
 1458SOL    HW2 6243   1.324   7.303   8.482  2.0611  0.5581  3.0184
 1459SOL     OW 6244   8.124   8.227   4.560 -0.6416  0.1726 -0.0765
 1459SOL    HW1 6245   8.121   8.320   4.538  0.3307 -0.1244 -1.6549
 1459SOL    HW2 6246   8.123   8.225   4.656 -3.4685  1.6467  0.0301
 1460SOL     OW 6247   5.798   5.652   8.472  0.0629 -0.3211  0.9706
 1460SOL    HW1 6248   5.852   5.605   8.407 -1.3743 -0.5675 -0.1016
 1460SOL    HW2 6249   5.773   5.585   8.535 -0.1069 -0.5059  0.7095
 1461SOL     OW 6250   0.472   2.576   3.179 -0.0786  0.3270 -0.3646
 1461SOL    HW1 6251   0.399   2.609   3.126 -0.3707 -0.9212 -0.7917
 1461SOL    HW2 6252   0.479   2.637   3.252 -1.1357  0.8315 -0.6672
 1462SOL     OW 6253   3.036   2.306   8.201  0.1967  0.6098  0.6240
 1462SOL    HW1 6254   2.996   2.308   8.114 -0.6031 -1.0178  0.9134
 1462SOL    HW2 6255   3.120   2.351   8.190 -1.1273  3.0575 -0.2862
 1463SOL     OW 6256   4.692   7.305   1.617  0.3027 -0.8047 -0.2175
 1463SOL    HW1 6257   4.733   7.310   1.703 -0.0025 -1.8302  0.0046
 1463SOL    HW2 6258   4.657   7.392   1.602 -0.4811 -0.8570  1.1292
 1464SOL     OW 6259   6.852   5.525   7.388  0.3775 -0.2789 -0.0443
 1464SOL    HW1 6260   6.861   5.436   7.423  0.5086 -0.5543 -0.7600
 1464SOL    HW2 6261   6.933   5.569   7.414  0.0796 -0.1979  0.7768
 1465SOL     OW 6262   6.232   4.656   0.998 -0.4407  0.3024  0.1360
 1465SOL    HW1 6263   6.227   4.742   1.040 -2.1876  0.6103 -0.6058
 1465SOL    HW2 6264   6.300   4.610   1.046  0.8787  2.2440  0.2608
 1466SOL     OW 6265   2.103   4.376   7.386  0.3138  0.0663  0.1434
 1466SOL    HW1 6266   2.081   4.338   7.301 -1.0453  0.7874  0.1368
 1466SOL    HW2 6267   2.046   4.331   7.448 -0.3322  1.0917  0.3273
 1467SOL     OW 6268   8.893   0.932   5.755  0.1573 -0.3503 -0.3985
 1467SOL    HW1 6269   8.851   1.018   5.760 -3.0565 -1.6752 -1.6934
 1467SOL    HW2 6270   8.877   0.902   5.666 -1.2685 -3.3349  0.7051
 1468SOL     OW 6271   6.092   5.622   5.518  0.0197  0.2044  0.4783
 1468SOL    HW1 6272   6.037   5.546   5.539  0.3753  0.2816  1.8148
 1468SOL    HW2 6273   6.115   5.610   5.426 -0.9314 -0.6606  0.3345
 1469SOL     OW 6274   2.526   2.365   5.094  0.5836 -0.0748 -0.0314
 1469SOL    HW1 6275   2.494   2.354   5.183 -0.0363 -0.6619 -0.3205
 1469SOL    HW2 6276   2.493   2.289   5.047  1.2678  0.0047 -0.6642
 1470SOL     OW 6277   5.851   3.049   3.390  0.2037 -0.3138  0.6222
 1470SOL    HW1 6278   5.893   2.966   3.365  1.7896  1.0930 -1.7443
 1470SOL    HW2 6279   5.804   3.076   3.312 -0.0187  1.1990  1.2568
 1471SOL     OW 6280   5.381   2.579   0.598 -0.1978  0.3151 -0.4505
 1471SOL    HW1 6281   5.436   2.501   0.596 -0.1847  0.2637  0.8039
 1471SOL    HW2 6282   5.436   2.648   0.562 -0.0772 -0.1735 -1.2208
 1472SOL     OW 6283   8.449   5.627   4.301 -0.0850  0.0183 -0.1884
 1472SOL    HW1 6284   8.362   5.639   4.337  0.1187 -0.8184  0.6105
 1472SOL    HW2 6285   8.496   5.707   4.323 -0.4061  0.1291  0.0938
 1473SOL     OW 6286   6.813   1.985   5.509  0.7502 -0.8573 -0.2164
 1473SOL    HW1 6287   6.906   2.004   5.521  0.7204 -0.4712 -0.5771
 1473SOL    HW2 6288   6.793   1.923   5.579  1.4873 -1.6381 -0.6832
 1474SOL     OW 6289   3.785   3.928   7.496  0.0155 -0.0512 -0.2042
 1474SOL    HW1 6290   3.839   3.973   7.561  0.0075 -0.5756  0.1792
 1474SOL    HW2 6291   3.712   3.892   7.548 -0.3774  0.1343 -0.6205
 1475SOL     OW 6292   6.823   2.984   0.643  0.2091 -0.6255 -0.0426
 1475SOL    HW1 6293   6.850   3.013   0.556  0.1191 -0.4691 -0.0185
 1475SOL    HW2 6294   6.748   3.040   0.665  0.0785 -0.8268  0.0328
 1476SOL     OW 6295   0.954   4.227   0.116 -0.4863 -0.2378 -0.5390
 1476SOL    HW1 6296   0.893   4.281   0.064 -0.6313  0.1924  0.0656
 1476SOL    HW2 6297   0.900   4.190   0.186  0.1837  1.2786  0.8503
 1477SOL     OW 6298   6.637   4.292   2.736 -0.0560 -0.5586  0.3745
 1477SOL    HW1 6299   6.721   4.280   2.780  0.2385 -1.6691 -0.4492
 1477SOL    HW2 6300   6.598   4.204   2.734 -0.9944 -0.1536  0.2651
 1478SOL     OW 6301   4.314   6.402   8.080 -0.4147 -0.2689  0.2253
 1478SOL    HW1 6302   4.301   6.311   8.107 -1.9818 -0.1266  0.0579
 1478SOL    HW2 6303   4.226   6.435   8.065  0.1877  0.9707 -0.7691
 1479SOL     OW 6304   6.508   0.245   7.722  0.2146 -0.1524  0.0067
 1479SOL    HW1 6305   6.456   0.255   7.643  1.8325  1.0335 -0.9677
 1479SOL    HW2 6306   6.448   0.205   7.785 -1.5386  0.1874 -1.3568
 1480SOL     OW 6307   3.662   8.700   3.819  0.1855 -0.0330  0.3962
 1480SOL    HW1 6308   3.578   8.688   3.864  0.8334  1.4513  2.0855
 1480SOL    HW2 6309   3.715   8.626   3.848 -0.7602 -1.4716 -1.3604
 1481SOL     OW 6310   0.884   1.984   8.493  0.5099 -0.0920  0.4835
 1481SOL    HW1 6311   0.861   1.929   8.568  0.3687  0.5822  0.9407
 1481SOL    HW2 6312   0.819   2.054   8.492  0.0005 -0.5552 -0.7830
 1482SOL     OW 6313   2.432   8.671   3.430 -0.5703 -0.0763  0.1438
 1482SOL    HW1 6314   2.475   8.615   3.365 -0.1458  0.5438 -0.1232
 1482SOL    HW2 6315   2.459   8.635   3.515  0.6900  0.4338 -0.0153
 1483SOL     OW 6316   8.477   8.941   4.774  0.1499 -0.2828  0.4024
 1483SOL    HW1 6317   8.540   9.004   4.810  0.0915 -0.0633  0.1317
 1483SOL    HW2 6318   8.420   8.994   4.718 -0.1165 -0.5228  0.4465
 1484SOL     OW 6319   6.166   5.993   3.017 -0.0868  0.5220 -0.2098
 1484SOL    HW1 6320   6.215   5.966   2.939  0.4001 -2.8763  1.1302
 1484SOL    HW2 6321   6.207   5.946   3.089 -2.3794  1.2404  1.6965
 1485SOL     OW 6322   0.151   6.850   1.993  0.4470 -0.2490 -0.2897
 1485SOL    HW1 6323   0.209   6.776   2.013  0.2908 -0.1019  0.8107
 1485SOL    HW2 6324   0.084   6.847   2.062 -0.4323  0.0247 -1.1087
 1486SOL     OW 6325   3.225   3.583   7.986  0.1574 -0.1157 -0.2853
 1486SOL    HW1 6326   3.204   3.674   7.964  1.8635  0.9324  2.0495
 1486SOL    HW2 6327   3.140   3.539   7.987 -1.1018  2.1205  1.2851
 1487SOL     OW 6328   4.073   5.934   1.873 -0.5541 -0.7824 -0.0425
 1487SOL    HW1 6329   4.071   5.868   1.803 -0.7502 -1.3501  0.4934
 1487SOL    HW2 6330   4.026   6.009   1.836 -0.7096 -1.1013 -0.4979
 1488SOL     OW 6331   5.030   0.952   0.622 -0.2123 -0.1500  0.7817
 1488SOL    HW1 6332   4.968   0.879   0.623 -2.8272  1.9007  2.5897
 1488SOL    HW2 6333   5.008   1.004   0.699  2.1869  2.0632  0.1439
 1489SOL     OW 6334   6.035   8.042   3.845  0.0921 -0.2487  0.0491
 1489SOL    HW1 6335   5.965   8.085   3.795 -0.3206  0.2017  0.9894
 1489SOL    HW2 6336   6.066   7.973   3.787  0.0299  0.6326 -1.0691
 1490SOL     OW 6337   8.443   6.598   4.186 -0.0952  0.2916  0.2493
 1490SOL    HW1 6338   8.523   6.650   4.191  0.3832 -0.3733 -0.3773
 1490SOL    HW2 6339   8.436   6.574   4.094 -1.2722  0.7271  0.2090
 1491SOL     OW 6340   8.871   8.334   4.915 -0.7508 -0.1741 -0.6842
 1491SOL    HW1 6341   8.910   8.392   4.850 -0.8646 -0.2782 -0.8468
 1491SOL    HW2 6342   8.844   8.392   4.987 -0.7810 -0.0384 -0.8055
 1492SOL     OW 6343   3.729   0.203   5.040  0.5495 -0.9063  0.4020
 1492SOL    HW1 6344   3.640   0.218   5.008  0.1907 -1.9259  0.8849
 1492SOL    HW2 6345   3.780   0.276   5.004 -0.6038  0.0612  0.6673
 1493SOL     OW 6346   5.088   4.165   1.718 -0.5302  0.0858 -0.6296
 1493SOL    HW1 6347   5.137   4.085   1.699 -0.6893 -0.2969  0.5149
 1493SOL    HW2 6348   5.130   4.202   1.795 -1.7107  0.0038  0.0772
 1494SOL     OW 6349   0.495   3.676   2.569  0.3605  0.0746 -0.2691
 1494SOL    HW1 6350   0.547   3.602   2.536  0.9877  0.4532 -0.1338
 1494SOL    HW2 6351   0.406   3.657   2.538  0.0586 -1.8132  1.5012
 1495SOL     OW 6352   2.349   0.030   3.608 -0.3406 -0.3147 -0.2297
 1495SOL    HW1 6353   2.396   0.104   3.568 -1.2663 -0.1648 -1.0820
 1495SOL    HW2 6354   2.304   0.067   3.683  0.0294 -0.2363 -0.0432
 1496SOL     OW 6355   1.768   3.331   2.024  0.0471  0.2384 -0.1160
 1496SOL    HW1 6356   1.707   3.403   2.039 -0.5947 -0.2598 -0.2811
 1496SOL    HW2 6357   1.854   3.367   2.045 -0.2698  1.0417 -0.1670
 1497SOL     OW 6358   5.951   0.891   3.088  0.6460  0.3479  0.4425
 1497SOL    HW1 6359   5.875   0.906   3.144  0.3695  0.8118 -0.0471
 1497SOL    HW2 6360   5.913   0.857   3.006  1.1867 -2.6875  1.3288
 1498SOL     OW 6361   2.788   4.120   1.023 -0.5632  0.5043 -0.3731
 1498SOL    HW1 6362   2.784   4.026   1.042 -0.7133  0.6995  0.6339
 1498SOL    HW2 6363   2.878   4.135   0.995 -0.5882  0.0319 -0.7217
 1499SOL     OW 6364   7.309   0.114   0.618 -0.0341  0.8581 -0.1420
 1499SOL    HW1 6365   7.220   0.145   0.601  0.2302  1.8815  0.2948
 1499SOL    HW2 6366   7.358   0.137   0.539 -0.4014 -0.8516 -0.9403
 1500SOL     OW 6367   1.074   3.347   1.222 -0.3024 -0.1036  0.0832
 1500SOL    HW1 6368   1.025   3.285   1.168 -0.5171  0.3420 -0.2451
 1500SOL    HW2 6369   1.044   3.330   1.311  0.8856 -1.6098  0.2267
 1501SOL     OW 6370   4.978   2.315   3.380  0.2065  0.2131  0.1233
 1501SOL    HW1 6371   4.962   2.355   3.294 -0.0418  0.6840  0.3851
 1501SOL    HW2 6372   5.037   2.242   3.361  0.1980  0.3447 -0.4430
 1502SOL     OW 6373   8.856   0.257   4.045 -0.2161 -0.3641 -0.0066
 1502SOL    HW1 6374   8.778   0.215   4.081 -0.1595 -0.4727 -0.0085
 1502SOL    HW2 6375   8.843   0.350   4.061  0.5292 -0.5043  1.7693
 1503SOL     OW 6376   8.138   4.259   7.698  0.2100  0.6881  0.5456
 1503SOL    HW1 6377   8.139   4.328   7.765  1.4492 -0.3149  1.6044
 1503SOL    HW2 6378   8.217   4.275   7.646 -0.3827  1.0411 -0.2737
 1504SOL     OW 6379   4.393   2.470   2.139  0.2827 -0.0114 -0.2834
 1504SOL    HW1 6380   4.321   2.525   2.171 -0.1867 -1.3853  1.1487
 1504SOL    HW2 6381   4.369   2.382   2.166  1.9628 -0.6587 -0.8085
 1505SOL     OW 6382   2.496   7.630   5.207 -0.7225 -0.0856  0.5081
 1505SOL    HW1 6383   2.459   7.602   5.290 -0.3907 -0.5198  0.5123
 1505SOL    HW2 6384   2.580   7.584   5.201 -0.9474 -0.4119 -0.2765
 1506SOL     OW 6385   1.993   5.902   7.312  0.5210 -0.3975 -0.5646
 1506SOL    HW1 6386   2.084   5.878   7.325  0.1918  0.0193  5.2602
 1506SOL    HW2 6387   1.946   5.819   7.313  0.6599 -0.4753 -0.4528
 1507SOL     OW 6388   8.813   5.479   6.990 -0.4074  0.2636  0.4262
 1507SOL    HW1 6389   8.767   5.495   7.072  0.1994  0.8423  0.6596
 1507SOL    HW2 6390   8.798   5.558   6.938 -0.7416 -0.0768 -0.0001
 1508SOL     OW 6391   6.307   2.850   5.422  0.0467 -0.4252  0.3975
 1508SOL    HW1 6392   6.331   2.807   5.340 -1.8224 -1.8609  0.5335
 1508SOL    HW2 6393   6.369   2.816   5.486  1.0319  0.1101 -0.2494
 1509SOL     OW 6394   6.734   3.663   0.929 -0.1118 -0.1999 -0.5696
 1509SOL    HW1 6395   6.647   3.673   0.890 -0.2886  1.6957  0.2018
 1509SOL    HW2 6396   6.793   3.708   0.869  0.4585 -1.8081 -1.2920
 1510SOL     OW 6397   7.153   0.873   8.754 -0.3881 -0.3651 -0.6808
 1510SOL    HW1 6398   7.126   0.822   8.678  0.4112  0.9764 -1.8976
 1510SOL    HW2 6399   7.231   0.828   8.786 -0.4284 -0.6321 -0.9513
 1511SOL     OW 6400   6.548   1.115   8.150 -0.4473 -0.3855  0.0247
 1511SOL    HW1 6401   6.610   1.081   8.086 -0.6545  1.5781 -1.3091
 1511SOL    HW2 6402   6.588   1.097   8.235  1.3270 -0.3099 -0.7548
 1512SOL     OW 6403   2.959   4.783   8.697  0.1194  0.5779 -0.3207
 1512SOL    HW1 6404   2.881   4.828   8.731 -1.0434  0.5625 -2.7550
 1512SOL    HW2 6405   3.024   4.852   8.687  0.2418  0.7060  1.1184
 1513SOL     OW 6406   8.287   4.196   4.471 -0.2314  0.4881  0.1168
 1513SOL    HW1 6407   8.260   4.118   4.520 -0.0700 -0.7389 -1.6864
 1513SOL    HW2 6408   8.320   4.256   4.539 -0.6368 -0.8688  1.5772
 1514SOL     OW 6409   2.018   2.824   7.570  0.4331 -0.0183 -0.3252
 1514SOL    HW1 6410   2.098   2.875   7.561  0.8547 -0.2911  1.4503
 1514SOL    HW2 6411   1.998   2.826   7.664 -1.9908  0.5415 -0.7629
 1515SOL     OW 6412   7.629   3.795   4.147  0.7178 -0.2157 -0.4204
 1515SOL    HW1 6413   7.554   3.750   4.185 -1.4104  2.5410 -1.1055
 1515SOL    HW2 6414   7.655   3.739   4.074 -1.1849 -0.8516 -0.6695
 1516SOL     OW 6415   3.218   6.346   6.447 -0.8314 -0.0617  0.1816
 1516SOL    HW1 6416   3.305   6.375   6.473  0.3695 -1.3475 -2.1433
 1516SOL    HW2 6417   3.162   6.423   6.460  0.8332  1.1027  0.7368
 1517SOL     OW 6418   6.040   6.419   4.900 -0.3465 -0.5084  0.1091
 1517SOL    HW1 6419   6.086   6.411   4.984  0.4123  0.0892 -0.2385
 1517SOL    HW2 6420   6.094   6.369   4.838 -0.5656 -0.4221 -0.1535
 1518SOL     OW 6421   7.853   2.552   1.374 -0.0351  0.0147  0.2306
 1518SOL    HW1 6422   7.852   2.469   1.327  1.2364 -0.0113  0.2398
 1518SOL    HW2 6423   7.878   2.529   1.464  0.5426  0.4288  0.1815
 1519SOL     OW 6424   3.152   2.833   8.871  1.0700 -0.0899 -0.1287
 1519SOL    HW1 6425   3.096   2.773   8.821  0.7814  0.8529 -0.9795
 1519SOL    HW2 6426   3.219   2.860   8.809  1.3595  0.2541  0.3277
 1520SOL     OW 6427   1.472   4.147   6.141  0.0132 -0.2546 -0.2024
 1520SOL    HW1 6428   1.389   4.174   6.102 -0.7616 -2.1877 -0.0105
 1520SOL    HW2 6429   1.448   4.111   6.226  1.0741 -0.6391 -0.0500
 1521SOL     OW 6430   0.141   5.716   3.646 -0.1995 -0.4839 -0.4145
 1521SOL    HW1 6431   0.169   5.654   3.578  0.6296 -0.3506 -0.2082
 1521SOL    HW2 6432   0.205   5.704   3.717 -0.3864  0.1780 -0.1287
 1522SOL     OW 6433   0.040   8.070   1.295 -0.0436  0.0804  0.2991
 1522SOL    HW1 6434  -0.042   8.077   1.245  0.1096 -0.5706 -0.0559
 1522SOL    HW2 6435   0.088   8.149   1.273  0.2725 -0.4529 -1.0648
 1523SOL     OW 6436   3.960   1.670   7.325  0.5157  0.5015 -0.3816
 1523SOL    HW1 6437   3.946   1.591   7.376  3.4206  0.8711  1.2351
 1523SOL    HW2 6438   4.046   1.658   7.285  0.6157  2.4434 -0.8499
 1524SOL     OW 6439   6.405   8.689   1.099  0.2244 -0.3942  0.8398
 1524SOL    HW1 6440   6.376   8.690   1.190  0.2261  0.7515  0.8431
 1524SOL    HW2 6441   6.499   8.673   1.105  0.1410 -0.8451  1.0032
 1525SOL     OW 6442   3.445   4.801   2.741  0.0814 -0.9190  0.1176
 1525SOL    HW1 6443   3.516   4.852   2.703 -0.6176  0.3774  0.4869
 1525SOL    HW2 6444   3.366   4.834   2.698 -0.5030 -0.8802  1.1857
 1526SOL     OW 6445   2.390   5.383   4.284 -0.0350 -0.3706  0.5638
 1526SOL    HW1 6446   2.355   5.464   4.248  0.1115 -1.1646 -1.4721
 1526SOL    HW2 6447   2.484   5.399   4.292 -0.2263  0.2341  1.8378
 1527SOL     OW 6448   5.667   4.536   8.287 -0.2950  0.6057  0.0316
 1527SOL    HW1 6449   5.689   4.604   8.351 -0.7096  0.8170 -0.0491
 1527SOL    HW2 6450   5.687   4.576   8.203 -2.1034  1.2628 -0.1327
 1528SOL     OW 6451   6.440   2.168   6.151  0.0124  0.5649 -0.1373
 1528SOL    HW1 6452   6.510   2.136   6.208 -0.2176 -0.3012 -0.3275
 1528SOL    HW2 6453   6.444   2.264   6.160  0.8140  0.5007  0.3276
 1529SOL     OW 6454   4.439   3.713   6.766 -0.2055  0.2688 -0.3071
 1529SOL    HW1 6455   4.415   3.744   6.679 -0.0452 -0.2619 -0.5462
 1529SOL    HW2 6456   4.483   3.787   6.807 -0.7809  0.7063 -0.4676
 1530SOL     OW 6457   1.395   0.220   6.006 -0.0974 -0.3662  0.3153
 1530SOL    HW1 6458   1.468   0.272   6.040  0.4900  0.0237 -1.4659
 1530SOL    HW2 6459   1.355   0.275   5.939 -1.3911 -0.9970  0.5398
 1531SOL     OW 6460   5.136   0.819   8.107  1.2083  0.1635 -0.3314
 1531SOL    HW1 6461   5.070   0.807   8.174  1.9338  0.7880  0.5131
 1531SOL    HW2 6462   5.088   0.847   8.029  0.3202 -0.9437 -0.2026
 1532SOL     OW 6463   2.733   1.880   2.582  0.3037  0.0884 -0.7087
 1532SOL    HW1 6464   2.735   1.793   2.543 -0.5043 -0.5743  0.6798
 1532SOL    HW2 6465   2.778   1.870   2.666  1.4956  1.3580 -1.1560
 1533SOL     OW 6466   8.233   2.091   3.247  0.5944  0.3991 -0.1502
 1533SOL    HW1 6467   8.151   2.042   3.235 -0.0956  1.3567  0.5300
 1533SOL    HW2 6468   8.299   2.023   3.262  0.0571 -0.4222 -1.3281
 1534SOL     OW 6469   8.712   6.256   3.890 -0.1842  0.0027  0.1147
 1534SOL    HW1 6470   8.714   6.161   3.877  1.6416 -0.1399  1.1197
 1534SOL    HW2 6471   8.622   6.274   3.918 -0.2333 -1.6209  1.1398
 1535SOL     OW 6472   0.778   8.482   5.906 -0.2180 -0.1247  0.3276
 1535SOL    HW1 6473   0.693   8.450   5.936  0.6572  0.0994  3.4924
 1535SOL    HW2 6474   0.836   8.470   5.982  1.7718  2.7425 -0.5663
 1536SOL     OW 6475   1.232   2.720   4.014 -1.3008 -0.3151  0.0511
 1536SOL    HW1 6476   1.293   2.649   3.994  0.9255  1.3373  0.5797
 1536SOL    HW2 6477   1.197   2.746   3.929  0.5227  0.1810 -0.5893
 1537SOL     OW 6478   0.383   2.018   6.419  0.1961  0.6413 -0.0978
 1537SOL    HW1 6479   0.307   2.010   6.477  1.1620  0.9526  1.2546
 1537SOL    HW2 6480   0.402   1.928   6.392 -0.4978  0.5347 -0.2442
 1538SOL     OW 6481   7.967   4.090   4.105 -0.2828  0.1100  0.3487
 1538SOL    HW1 6482   7.895   4.154   4.103 -1.3163 -1.0298 -0.9936
 1538SOL    HW2 6483   7.945   4.033   4.179 -0.9436 -0.4169 -0.2441
 1539SOL     OW 6484   5.873   7.446   2.158  0.2286  0.8412  0.4241
 1539SOL    HW1 6485   5.932   7.400   2.218 -2.3143 -1.7065  1.1595
 1539SOL    HW2 6486   5.816   7.497   2.215 -0.1766  0.9325 -0.0566
 1540SOL     OW 6487   2.017   0.221   6.114 -0.0418 -0.0482 -0.0431
 1540SOL    HW1 6488   2.004   0.284   6.184 -0.1631  1.0393 -1.0195
 1540SOL    HW2 6489   1.984   0.138   6.150 -0.9544  0.6770  0.8496
 1541SOL     OW 6490   2.923   2.688   0.423  0.2674  0.0099  0.3629
 1541SOL    HW1 6491   2.829   2.671   0.427  0.2382 -0.0092 -0.2291
 1541SOL    HW2 6492   2.932   2.760   0.361  0.5140  1.1817  1.7172
 1542SOL     OW 6493   5.471   3.169   2.444 -0.8756 -0.2210 -0.0123
 1542SOL    HW1 6494   5.377   3.152   2.435 -0.5401 -1.4776 -1.7368
 1542SOL    HW2 6495   5.509   3.133   2.364  1.0545  0.5154  0.5247
 1543SOL     OW 6496   2.777   2.239   6.627 -0.6098 -0.5971  0.3896
 1543SOL    HW1 6497   2.851   2.193   6.587 -1.5121 -1.1501 -0.7275
 1543SOL    HW2 6498   2.718   2.257   6.553 -0.7679  1.4588  0.9645
 1544SOL     OW 6499   0.354   2.599   0.040  0.2262  0.4845  0.4676
 1544SOL    HW1 6500   0.445   2.603   0.009 -0.3226  0.3174 -1.2605
 1544SOL    HW2 6501   0.328   2.509   0.023 -0.0284  0.3209  1.6943
 1545SOL     OW 6502   3.403   2.174   2.760 -0.2355 -0.3099  0.0136
 1545SOL    HW1 6503   3.395   2.114   2.834  1.7771  0.3351  0.8175
 1545SOL    HW2 6504   3.351   2.134   2.691 -0.5154 -1.9833  1.1449
 1546SOL     OW 6505   7.675   7.476   2.816 -0.0169  0.6016  0.4218
 1546SOL    HW1 6506   7.686   7.408   2.882 -0.6381  0.1273  0.0472
 1546SOL    HW2 6507   7.683   7.429   2.733  2.6536  1.4719  0.0935
 1547SOL     OW 6508   1.443   7.975   8.451 -0.0201 -0.1255  0.2541
 1547SOL    HW1 6509   1.408   7.986   8.363  0.6510  0.6574  0.0728
 1547SOL    HW2 6510   1.508   7.905   8.443 -0.0280 -0.1196  0.1419
 1548SOL     OW 6511   4.603   8.105   7.775 -0.1289 -0.0422 -0.0380
 1548SOL    HW1 6512   4.628   8.152   7.696 -0.9332 -2.0420 -1.5732
 1548SOL    HW2 6513   4.511   8.080   7.760 -0.2204 -0.6834  1.4147
 1549SOL     OW 6514   6.113   2.021   8.233 -0.6869 -0.3057 -0.0577
 1549SOL    HW1 6515   6.164   2.037   8.154 -0.2605  0.5169  0.3644
 1549SOL    HW2 6516   6.180   2.007   8.301 -1.0408 -0.3614  0.2787
 1550SOL     OW 6517   0.112   7.955   8.108  0.0965 -0.0701  0.2008
 1550SOL    HW1 6518   0.179   7.901   8.149 -0.4474 -0.6145  0.3848
 1550SOL    HW2 6519   0.093   7.912   8.025 -0.6178 -0.4018  0.5216
 1551SOL     OW 6520   8.392   1.670   5.554  0.2223  0.0028 -0.2036
 1551SOL    HW1 6521   8.448   1.646   5.628 -0.3386  1.7689  0.8470
 1551SOL    HW2 6522   8.453   1.688   5.482  0.8281 -0.6400  0.1344
 1552SOL     OW 6523   7.234   2.784   3.889 -0.1282 -0.5590 -0.0910
 1552SOL    HW1 6524   7.182   2.709   3.860  0.4042 -1.4289  1.1004
 1552SOL    HW2 6525   7.258   2.762   3.979  0.0099  1.0736  0.2922
 1553SOL     OW 6526   8.399   5.712   2.310 -0.0122 -0.7860 -0.2942
 1553SOL    HW1 6527   8.372   5.629   2.347 -0.1617 -0.1973  0.9731
 1553SOL    HW2 6528   8.485   5.729   2.350 -0.6916  0.4083  0.7442
 1554SOL     OW 6529   8.326   2.252   1.452  0.2095 -0.1428  0.3355
 1554SOL    HW1 6530   8.267   2.181   1.425 -0.6266  1.3296 -1.9424
 1554SOL    HW2 6531   8.408   2.234   1.407  0.5112 -0.4596  0.9895
 1555SOL     OW 6532   7.878   1.172   2.390  0.5109 -0.0395 -0.1728
 1555SOL    HW1 6533   7.928   1.186   2.310  0.5469  1.4315  0.0784
 1555SOL    HW2 6534   7.843   1.259   2.412 -1.0184 -0.7718  0.4034
 1556SOL     OW 6535   8.211   1.888   5.586 -0.6425 -0.5461  0.3026
 1556SOL    HW1 6536   8.137   1.849   5.632  0.4510 -1.9231  0.9608
 1556SOL    HW2 6537   8.270   1.814   5.568  0.9508  0.6275  0.5231
 1557SOL     OW 6538   8.235   7.056   0.471  0.0577  0.3576 -0.2313
 1557SOL    HW1 6539   8.321   7.097   0.458 -0.0024  0.3375 -0.7057
 1557SOL    HW2 6540   8.250   6.964   0.452  0.0519  0.2594  0.2277
 1558SOL     OW 6541   3.350   5.104   5.087 -0.0552  0.4176  0.0971
 1558SOL    HW1 6542   3.262   5.067   5.092  0.2159 -0.2668 -0.1161
 1558SOL    HW2 6543   3.336   5.194   5.057 -0.5892 -0.0719 -1.1753
 1559SOL     OW 6544   1.801   7.125   1.736 -0.0084 -0.4732  0.5428
 1559SOL    HW1 6545   1.714   7.163   1.724 -1.2251 -3.1062  0.3481
 1559SOL    HW2 6546   1.785   7.031   1.748  2.7149 -0.8514  2.0016
 1560SOL     OW 6547   4.574   8.466   1.679  0.0428 -0.4902 -0.2898
 1560SOL    HW1 6548   4.602   8.485   1.589  0.3568  0.5447  0.0115
 1560SOL    HW2 6549   4.562   8.553   1.719  0.5552 -0.9433  0.8672
 1561SOL     OW 6550   0.721   1.051   4.824 -0.0632 -0.3907 -0.3791
 1561SOL    HW1 6551   0.634   1.012   4.817  0.0617 -0.3486 -3.4492
 1561SOL    HW2 6552   0.777   0.980   4.856 -0.4507 -1.8634 -2.7255
 1562SOL     OW 6553   7.413   2.224   8.777  0.4037  1.2980  0.3560
 1562SOL    HW1 6554   7.477   2.166   8.735 -0.1234  1.4551 -0.7019
 1562SOL    HW2 6555   7.466   2.293   8.817  1.0002  0.4136  1.1312
 1563SOL     OW 6556   1.373   3.996   8.925  0.1096  0.2250  0.5593
 1563SOL    HW1 6557   1.415   3.939   8.989  0.8747 -0.5652 -0.6254
 1563SOL    HW2 6558   1.282   4.004   8.956  0.4679 -0.1318  1.7270
 1564SOL     OW 6559   7.674   8.758   0.242 -0.0993  0.0008 -0.0844
 1564SOL    HW1 6560   7.690   8.796   0.156  0.6522  0.1223  0.1006
 1564SOL    HW2 6561   7.761   8.750   0.281 -0.3932 -0.4702  0.4873
 1565SOL     OW 6562   4.903   5.881   1.421 -0.3312 -0.2624 -0.2193
 1565SOL    HW1 6563   4.879   5.921   1.337  0.3211 -0.8218 -0.6874
 1565SOL    HW2 6564   4.950   5.801   1.396  0.3078 -0.1777  0.6784
 1566SOL     OW 6565   7.702   1.048   6.718 -0.3138 -0.2239 -0.0797
 1566SOL    HW1 6566   7.749   1.122   6.680  0.1834  0.1395  1.1625
 1566SOL    HW2 6567   7.761   0.973   6.707 -0.1864 -0.1271 -0.0584
 1567SOL     OW 6568   7.242   1.708   4.697 -0.2678  0.1925  0.0758
 1567SOL    HW1 6569   7.287   1.784   4.733  0.8956 -1.5772  2.6471
 1567SOL    HW2 6570   7.264   1.709   4.604  0.7628  2.2680  0.2866
 1568SOL     OW 6571   0.877   6.409   4.976  0.0541 -0.0653  0.1306
 1568SOL    HW1 6572   0.928   6.381   4.900  0.9820  0.2357  0.6413
 1568SOL    HW2 6573   0.786   6.403   4.946  0.4370  2.1177 -1.7309
 1569SOL     OW 6574   1.161   0.102   0.190 -0.4236 -0.0045  0.2516
 1569SOL    HW1 6575   1.211   0.083   0.269 -0.9208  0.4459  0.6800
 1569SOL    HW2 6576   1.169   0.022   0.137  0.5980 -0.0070  0.3811
 1570SOL     OW 6577   0.589   5.666   1.971 -0.6091 -0.3615 -0.0767
 1570SOL    HW1 6578   0.499   5.698   1.967 -0.7171 -0.1909  2.4738
 1570SOL    HW2 6579   0.631   5.720   2.037  1.0625 -1.2241 -0.3877
 1571SOL     OW 6580   2.951   7.071   3.677  0.1383  0.4413  0.2366
 1571SOL    HW1 6581   2.980   6.992   3.723  0.8180  0.7969  0.4372
 1571SOL    HW2 6582   3.031   7.106   3.639 -0.2130  0.8712 -0.1124
 1572SOL     OW 6583   0.315   6.469   1.352  0.3341 -0.3458 -0.1235
 1572SOL    HW1 6584   0.241   6.527   1.332 -0.1672 -1.0860 -0.4589
 1572SOL    HW2 6585   0.392   6.527   1.350 -0.2962  0.5482  0.8593
 1573SOL     OW 6586   7.942   0.007   8.528  0.1011  0.1526  0.3282
 1573SOL    HW1 6587   8.033   0.032   8.510 -0.0910  1.6260  1.2468
 1573SOL    HW2 6588   7.950  -0.069   8.586  0.8139  1.3722  1.9075
 1574SOL     OW 6589   3.109   2.220   0.976 -0.5030  0.1646  0.0143
 1574SOL    HW1 6590   3.072   2.160   1.040 -1.3847  0.2599 -0.3883
 1574SOL    HW2 6591   3.074   2.190   0.892  1.5559 -0.6886 -0.6024
 1575SOL     OW 6592   6.081   7.047   0.882 -0.2407 -0.2017  0.1040
 1575SOL    HW1 6593   6.053   7.054   0.973 -2.4068 -1.5599 -0.3873
 1575SOL    HW2 6594   6.049   7.127   0.841 -0.4078 -0.1848  0.2668
 1576SOL     OW 6595   6.221   3.178   4.625  0.2820 -0.0186  0.2310
 1576SOL    HW1 6596   6.289   3.221   4.677  1.5159  0.9499 -2.0219
 1576SOL    HW2 6597   6.233   3.085   4.642  1.0950  0.2432  1.1619
 1577SOL     OW 6598   8.492   8.569   6.416  0.2579 -0.0314  0.0928
 1577SOL    HW1 6599   8.464   8.621   6.491  0.0119 -0.0913  0.0429
 1577SOL    HW2 6600   8.437   8.491   6.419  1.5210 -0.9139  0.9323
 1578SOL     OW 6601   6.006   2.028   1.319 -0.3297 -1.1841  0.2737
 1578SOL    HW1 6602   5.916   2.011   1.346 -0.8667  0.2573 -0.5239
 1578SOL    HW2 6603   6.025   2.115   1.353 -0.3344 -0.1507 -2.1863
 1579SOL     OW 6604   6.766   5.013   4.277 -0.5668  0.0402 -0.3780
 1579SOL    HW1 6605   6.818   4.954   4.222 -0.2546  0.2568 -0.3213
 1579SOL    HW2 6606   6.767   5.096   4.230  2.2362  1.1124  1.3329
 1580SOL     OW 6607   6.596   3.001   7.493 -0.4283  0.0302 -0.3876
 1580SOL    HW1 6608   6.592   2.943   7.416 -4.2099 -0.9006  0.2689
 1580SOL    HW2 6609   6.609   2.942   7.567 -2.2596  0.1490  0.0940
 1581SOL     OW 6610   2.674   8.515   3.936 -0.0424  0.0335  0.5103
 1581SOL    HW1 6611   2.736   8.564   3.882 -0.7936  0.5229  0.0743
 1581SOL    HW2 6612   2.721   8.500   4.018  0.8929 -0.2060 -0.0568
 1582SOL     OW 6613   0.303   4.521   8.440 -0.1344  0.3129  0.0695
 1582SOL    HW1 6614   0.208   4.514   8.442 -0.0026 -2.4017  0.1926
 1582SOL    HW2 6615   0.329   4.480   8.358  1.0163 -0.9486  1.0254
 1583SOL     OW 6616   4.745   4.761   7.345  0.2877  0.6969  0.2349
 1583SOL    HW1 6617   4.807   4.714   7.401  0.4753  0.4234 -0.1913
 1583SOL    HW2 6618   4.749   4.852   7.374  0.4966  0.5855  0.5584
 1584SOL     OW 6619   3.157   3.711   6.793 -0.0621  0.0565 -0.1173
 1584SOL    HW1 6620   3.095   3.774   6.757 -0.8868 -1.0499 -0.6840
 1584SOL    HW2 6621   3.200   3.673   6.716  1.7846  1.2267  0.2746
 1585SOL     OW 6622   8.059   7.548   0.810  0.3057 -0.4027 -0.0843
 1585SOL    HW1 6623   8.148   7.547   0.844  1.2261 -0.2873 -2.3011
 1585SOL    HW2 6624   8.022   7.464   0.837  1.5993 -1.0941 -0.3732
 1586SOL     OW 6625   0.654   2.872   3.449 -0.3330  0.2597 -0.3844
 1586SOL    HW1 6626   0.697   2.895   3.531  2.4918 -1.0468 -1.3921
 1586SOL    HW2 6627   0.588   2.807   3.474 -0.2742  0.6854  0.9657
 1587SOL     OW 6628   5.464   4.460   7.348  0.8219  0.3730  0.1314
 1587SOL    HW1 6629   5.515   4.379   7.340  1.3865  0.7134  0.2202
 1587SOL    HW2 6630   5.529   4.526   7.370  0.2218  0.6698  1.0421
 1588SOL     OW 6631   2.865   7.284   3.932 -0.1084  0.2915  0.0068
 1588SOL    HW1 6632   2.937   7.300   3.870  1.3727  1.4663  1.9298
 1588SOL    HW2 6633   2.875   7.192   3.956 -0.8736 -0.2666 -1.6300
 1589SOL     OW 6634   3.502   4.543   5.145 -0.1862 -0.5229  0.0570
 1589SOL    HW1 6635   3.472   4.550   5.055 -0.8084 -0.5656  0.2542
 1589SOL    HW2 6636   3.583   4.493   5.140  0.8661  1.1439 -0.6895
 1590SOL     OW 6637   7.997   4.098   0.251 -0.1188 -0.9073  0.8079
 1590SOL    HW1 6638   8.041   4.155   0.188 -1.7411  0.6816  1.0182
 1590SOL    HW2 6639   8.056   4.024   0.262  0.8801 -0.5313 -1.4680
 1591SOL     OW 6640   5.214   4.577   4.936  0.3813 -0.4466 -0.3738
 1591SOL    HW1 6641   5.230   4.526   4.857 -0.3975  0.2956 -1.0394
 1591SOL    HW2 6642   5.301   4.605   4.965  0.7162 -1.1769 -0.6609
 1592SOL     OW 6643   7.404   2.335   8.499 -0.4272 -0.3691 -0.8513
 1592SOL    HW1 6644   7.395   2.265   8.435  0.6683  0.2129 -1.6910
 1592SOL    HW2 6645   7.477   2.308   8.555  0.5339  0.4210 -1.6732
 1593SOL     OW 6646   5.493   8.732   7.199  0.5209 -0.0817 -0.3185
 1593SOL    HW1 6647   5.494   8.676   7.121 -2.2886 -1.3269  0.4070
 1593SOL    HW2 6648   5.572   8.708   7.247 -0.0814 -2.8121 -0.5126
 1594SOL     OW 6649   6.919   7.950   5.274  0.2883 -0.3410 -0.6475
 1594SOL    HW1 6650   6.928   7.936   5.368 -1.7520 -0.0363 -0.3758
 1594SOL    HW2 6651   6.864   7.877   5.244 -2.3305  1.5822 -0.8809
 1595SOL     OW 6652   1.214   4.099   5.664  0.4136 -0.5998  0.3266
 1595SOL    HW1 6653   1.267   4.060   5.733  1.4942  1.3152  0.6361
 1595SOL    HW2 6654   1.271   4.166   5.625 -0.9217 -0.1914 -1.0035
 1596SOL     OW 6655   4.388   4.507   1.354  0.2642  0.2255  0.1554
 1596SOL    HW1 6656   4.293   4.515   1.360  0.2556 -0.1509  0.5384
 1596SOL    HW2 6657   4.415   4.476   1.440  0.5209 -1.6064 -0.5354
 1597SOL     OW 6658   3.173   3.627   0.603 -0.3493  0.5550  0.0595
 1597SOL    HW1 6659   3.151   3.578   0.524 -1.1204 -2.2907  1.8369
 1597SOL    HW2 6660   3.127   3.710   0.594 -0.3054  0.3780 -2.4974
 1598SOL     OW 6661   6.264   6.530   0.482  0.3199 -1.3176  0.4438
 1598SOL    HW1 6662   6.312   6.531   0.399  0.7219 -1.1584  0.6708
 1598SOL    HW2 6663   6.256   6.623   0.505 -0.0153 -1.3502  0.4570
 1599SOL     OW 6664   4.688   1.664   7.169  0.0337  0.4000 -0.0648
 1599SOL    HW1 6665   4.721   1.662   7.259 -0.8843  0.3258  0.2751
 1599SOL    HW2 6666   4.708   1.577   7.134 -0.5870  0.0473  0.4323
 1600SOL     OW 6667   5.240   8.498   0.931 -0.6144  0.2759  0.3196
 1600SOL    HW1 6668   5.261   8.435   1.001  2.8274  0.5049 -0.3213
 1600SOL    HW2 6669   5.263   8.452   0.850  1.1012  1.9571 -0.2084
 1601SOL     OW 6670   2.855   3.159   8.029  0.5185 -0.3506  0.3828
 1601SOL    HW1 6671   2.817   3.181   8.114  0.8380 -0.5926  0.5894
 1601SOL    HW2 6672   2.915   3.087   8.047  0.2155 -0.7414 -0.1323
 1602SOL     OW 6673   3.719   1.831   4.559 -0.1954  0.4258 -0.1850
 1602SOL    HW1 6674   3.669   1.902   4.600 -0.1124  0.7254 -0.5913
 1602SOL    HW2 6675   3.784   1.806   4.625 -0.1821  0.7755 -0.0612
 1603SOL     OW 6676   3.687   4.048   2.990 -0.2813 -0.3667  0.1992
 1603SOL    HW1 6677   3.655   4.036   2.900  1.0777 -0.1096 -0.3550
 1603SOL    HW2 6678   3.622   4.006   3.045 -2.4949  1.6705 -0.6918
 1604SOL     OW 6679   8.451   8.683   2.727 -0.0746 -0.5937 -0.6145
 1604SOL    HW1 6680   8.533   8.674   2.775  0.0680  0.1583 -0.7113
 1604SOL    HW2 6681   8.477   8.705   2.638 -0.3857  1.1241 -0.3224
 1605SOL     OW 6682   6.155   3.573   1.595  0.0086  0.2551  0.4919
 1605SOL    HW1 6683   6.093   3.507   1.562 -1.1083  0.8301  1.3953
 1605SOL    HW2 6684   6.216   3.523   1.649  0.9022 -0.4527 -1.1076
 1606SOL     OW 6685   3.740   3.736   0.880 -0.9116 -0.1772 -0.1518
 1606SOL    HW1 6686   3.652   3.762   0.852 -0.9672  3.8588  2.8029
 1606SOL    HW2 6687   3.799   3.787   0.825 -0.4457 -1.3920 -0.8160
 1607SOL     OW 6688   5.378   5.225   7.356 -0.2383  1.1849  0.7468
 1607SOL    HW1 6689   5.364   5.168   7.280 -1.6035  3.8093 -1.0940
 1607SOL    HW2 6690   5.317   5.193   7.422  0.0573 -0.3366  0.3232
 1608SOL     OW 6691   5.806   3.734   3.576  0.4588 -0.6309  0.5302
 1608SOL    HW1 6692   5.743   3.801   3.603  1.4705  0.1198  1.1267
 1608SOL    HW2 6693   5.805   3.736   3.480  0.6829  0.4521  0.5419
 1609SOL     OW 6694   1.175   7.469   7.794 -0.1852 -0.2901  0.7876
 1609SOL    HW1 6695   1.258   7.517   7.802 -0.8888  1.4631 -1.2563
 1609SOL    HW2 6696   1.197   7.394   7.739 -0.0440  0.5949 -0.4155
 1610SOL     OW 6697   7.087   2.655   8.164 -0.0519 -0.1105  0.1027
 1610SOL    HW1 6698   7.085   2.573   8.214 -1.6414  0.4847  1.1012
 1610SOL    HW2 6699   7.075   2.724   8.229  1.6093  0.9879 -0.6731
 1611SOL     OW 6700   3.257   8.590   2.329 -0.5240  0.2569 -0.2406
 1611SOL    HW1 6701   3.185   8.528   2.331  0.8356 -1.4156 -0.5299
 1611SOL    HW2 6702   3.330   8.540   2.292  1.3556  1.2580  1.9038
 1612SOL     OW 6703   1.505   4.249   6.845  0.4653 -0.5739  0.0269
 1612SOL    HW1 6704   1.418   4.222   6.818 -0.3905  1.6483  0.3768
 1612SOL    HW2 6705   1.548   4.278   6.764 -0.0841  0.7798  0.1984
 1613SOL     OW 6706   0.950   6.924   6.428 -0.1143 -0.1781 -0.2254
 1613SOL    HW1 6707   0.898   6.992   6.387 -0.3263 -0.7621 -0.9574
 1613SOL    HW2 6708   0.969   6.957   6.516  1.4995  1.7175 -1.2073
 1614SOL     OW 6709   1.737   3.940   3.201 -0.4987  0.8491  0.1545
 1614SOL    HW1 6710   1.679   3.928   3.276  0.1754 -0.3482  0.5034
 1614SOL    HW2 6711   1.753   4.035   3.199 -0.9488  0.9643  1.1934
 1615SOL     OW 6712   8.819   6.108   8.177 -0.0609 -0.2589 -0.1607
 1615SOL    HW1 6713   8.813   6.025   8.226  1.2505 -0.7139 -0.7322
 1615SOL    HW2 6714   8.871   6.165   8.233 -2.2017  0.7594  0.9302
 1616SOL     OW 6715   8.447   6.127   5.551  0.4279  0.5480 -0.2820
 1616SOL    HW1 6716   8.373   6.183   5.572 -1.2111 -2.0453  1.5323
 1616SOL    HW2 6717   8.412   6.062   5.491  1.5141 -0.1361 -0.2092
 1617SOL     OW 6718   0.319   7.456   0.671  0.6013  0.0244 -0.5992
 1617SOL    HW1 6719   0.256   7.429   0.739  2.1763 -2.3179  0.0658
 1617SOL    HW2 6720   0.267   7.506   0.609 -1.1913  1.1379  1.6264
 1618SOL     OW 6721   4.549   3.494   0.861 -0.2340  0.1717  0.0472
 1618SOL    HW1 6722   4.503   3.566   0.819  0.2261  1.2176  1.2525
 1618SOL    HW2 6723   4.487   3.460   0.926 -0.0280  0.2823  0.3062
 1619SOL     OW 6724   2.041   3.689   3.271 -0.0648  0.6472 -0.7684
 1619SOL    HW1 6725   1.975   3.729   3.327 -0.2193 -1.0891  0.3516
 1619SOL    HW2 6726   2.117   3.675   3.327 -0.0117 -0.5811 -1.1052
 1620SOL     OW 6727   1.266   1.595   8.393  0.2124 -0.2630  0.6496
 1620SOL    HW1 6728   1.256   1.634   8.480 -0.2558  0.4008  0.3065
 1620SOL    HW2 6729   1.176   1.586   8.360  0.4158  3.9104 -1.6690
 1621SOL     OW 6730   0.564   6.224   1.854 -0.0944  0.1177 -0.1210
 1621SOL    HW1 6731   0.552   6.210   1.760  1.4442 -1.6704 -0.1045
 1621SOL    HW2 6732   0.644   6.177   1.876  0.3764  1.6806  1.8522
 1622SOL     OW 6733   3.734   6.517   7.927  0.5916  0.0665  0.4501
 1622SOL    HW1 6734   3.754   6.520   7.834  0.2018  0.5541  0.3774
 1622SOL    HW2 6735   3.727   6.609   7.954  1.5318 -0.0512  1.1462
 1623SOL     OW 6736   3.165   1.732   7.013 -0.0364  0.5938 -0.4637
 1623SOL    HW1 6737   3.090   1.746   6.955  1.0562  0.2786 -2.0257
 1623SOL    HW2 6738   3.144   1.652   7.062 -1.4492  1.4540  0.4089
 1624SOL     OW 6739   4.615   4.622   2.977  0.1040  0.7780 -0.6422
 1624SOL    HW1 6740   4.626   4.612   3.071  1.1439  1.2547 -0.6946
 1624SOL    HW2 6741   4.645   4.712   2.960  0.7119  0.4183 -1.5306
 1625SOL     OW 6742   0.371   5.210   1.078  0.1017  0.3199  0.8887
 1625SOL    HW1 6743   0.426   5.283   1.108  0.9549 -0.5704  1.5913
 1625SOL    HW2 6744   0.415   5.178   1.000  0.2560 -0.0235  1.1147
 1626SOL     OW 6745   3.219   0.893   2.294 -0.0246  0.0077  0.3776
 1626SOL    HW1 6746   3.182   0.962   2.238 -0.3725 -1.2980 -1.0545
 1626SOL    HW2 6747   3.308   0.923   2.312  0.3469  0.1686 -1.4806
 1627SOL     OW 6748   3.942   6.648   8.319 -0.2006 -0.4279  0.6896
 1627SOL    HW1 6749   3.934   6.648   8.414  0.8182 -2.7630  0.8484
 1627SOL    HW2 6750   3.916   6.559   8.293 -0.9467  0.3124 -1.2665
 1628SOL     OW 6751   2.538   4.068   6.309  0.1383  0.0376  0.2342
 1628SOL    HW1 6752   2.467   4.100   6.253  0.4104  0.5370  0.1656
 1628SOL    HW2 6753   2.596   4.021   6.249  0.6898  0.9960 -0.0167
 1629SOL     OW 6754   8.331   8.516   4.095 -0.1828  0.9088  0.0846
 1629SOL    HW1 6755   8.255   8.462   4.117  0.0324  0.1269 -1.0076
 1629SOL    HW2 6756   8.307   8.604   4.125 -1.2572  0.5482  0.3239
 1630SOL     OW 6757   8.623   6.495   2.869  0.2217  0.2413 -0.0257
 1630SOL    HW1 6758   8.562   6.446   2.924 -0.5205  1.3340  0.1509
 1630SOL    HW2 6759   8.588   6.488   2.781 -0.4494  1.2517  0.1399
 1631SOL     OW 6760   5.990   1.769   5.573 -0.3976 -0.5257 -0.7433
 1631SOL    HW1 6761   6.021   1.702   5.512  1.1902  0.1297 -0.7197
 1631SOL    HW2 6762   6.023   1.741   5.659 -2.1798 -1.1767 -0.2412
 1632SOL     OW 6763   4.858   3.306   6.306  0.2402 -0.1353  0.3005
 1632SOL    HW1 6764   4.865   3.325   6.400 -1.2264  0.0562  0.3966
 1632SOL    HW2 6765   4.879   3.213   6.299 -1.0143 -0.4994  1.0358
 1633SOL     OW 6766   8.962   1.849   1.963 -0.9911 -0.9225 -0.5286
 1633SOL    HW1 6767   8.875   1.817   1.988 -1.1812 -0.3646 -0.4620
 1633SOL    HW2 6768   8.971   1.826   1.871 -0.9825 -1.4768 -0.3897
 1634SOL     OW 6769   3.221   4.765   6.724  0.3106 -0.0500  0.0777
 1634SOL    HW1 6770   3.191   4.682   6.685  1.5184  0.7026 -2.6419
 1634SOL    HW2 6771   3.274   4.738   6.799 -1.4871 -1.6014  0.8887
 1635SOL     OW 6772   0.700   6.889   4.931 -0.3553 -0.6530  0.6525
 1635SOL    HW1 6773   0.725   6.830   5.003 -0.0588 -2.1035 -0.5919
 1635SOL    HW2 6774   0.622   6.849   4.894 -0.1719 -0.2274 -0.2003
 1636SOL     OW 6775   7.669   0.755   1.599 -0.0549  0.0384 -0.1837
 1636SOL    HW1 6776   7.589   0.705   1.618  0.4408 -0.4966  0.5911
 1636SOL    HW2 6777   7.638   0.838   1.565 -0.9273 -0.4209 -0.5401
 1637SOL     OW 6778   6.489   7.790   8.098 -0.2451  0.7338  0.1390
 1637SOL    HW1 6779   6.574   7.816   8.135 -0.0562  1.4741 -0.7557
 1637SOL    HW2 6780   6.480   7.845   8.020 -1.6903  0.8779  0.3818
 1638SOL     OW 6781   3.897   0.801   1.512 -0.0101  0.2587 -0.3034
 1638SOL    HW1 6782   3.946   0.843   1.583 -0.2746 -0.6485  0.4458
 1638SOL    HW2 6783   3.945   0.721   1.494 -0.8162 -0.3052 -0.0287
 1639SOL     OW 6784   2.154   3.772   0.514  0.0607  0.8879  0.0744
 1639SOL    HW1 6785   2.228   3.806   0.565  1.2464 -0.8023 -0.4432
 1639SOL    HW2 6786   2.145   3.833   0.440 -0.1343  2.0026  0.9927
 1640SOL     OW 6787   5.419   4.642   7.005  0.0833 -0.0500 -0.0122
 1640SOL    HW1 6788   5.464   4.575   6.954 -1.6185 -1.8917  0.7590
 1640SOL    HW2 6789   5.488   4.688   7.051  1.2357 -3.0902  1.5353
 1641SOL     OW 6790   1.138   7.059   1.713 -0.4031 -0.6343 -0.0139
 1641SOL    HW1 6791   1.208   7.000   1.684  0.0962 -0.1284  0.1452
 1641SOL    HW2 6792   1.158   7.142   1.670 -0.1858 -0.1355  1.0186
 1642SOL     OW 6793   4.036   4.479   5.340 -0.1059  0.1352  0.2195
 1642SOL    HW1 6794   3.999   4.446   5.422 -0.7495 -1.0844 -0.5288
 1642SOL    HW2 6795   4.115   4.426   5.326 -0.3170 -0.0728 -0.2241
 1643SOL     OW 6796   1.893   5.007   7.159 -0.4073  0.0997  0.6484
 1643SOL    HW1 6797   1.886   5.080   7.096  0.2036 -0.3796  0.0171
 1643SOL    HW2 6798   1.878   4.929   7.107  0.5991 -0.3418  1.0009
 1644SOL     OW 6799   1.021   0.947   0.147  0.1264 -0.3338  0.2643
 1644SOL    HW1 6800   1.014   0.877   0.082 -2.1287 -1.3176  1.4495
 1644SOL    HW2 6801   1.050   0.904   0.227 -1.3739  0.0066  1.0319
 1645SOL     OW 6802   1.896   2.524   8.225  0.2921 -0.1258 -0.1172
 1645SOL    HW1 6803   1.889   2.607   8.272 -1.2073  0.0822 -0.6444
 1645SOL    HW2 6804   1.989   2.505   8.224  0.4467  0.1261  2.4434
 1646SOL     OW 6805   0.786   3.558   2.983 -0.3079  0.1903  0.6311
 1646SOL    HW1 6806   0.732   3.486   3.015  0.7810 -0.1779  1.6708
 1646SOL    HW2 6807   0.815   3.529   2.896 -0.0861 -0.5141  0.9335
 1647SOL     OW 6808   4.554   3.930   0.087  0.0591 -0.3658  0.3435
 1647SOL    HW1 6809   4.472   3.925   0.136  0.0300 -1.0941  0.2305
 1647SOL    HW2 6810   4.530   3.971   0.004 -0.0041  0.3197  0.6981
 1648SOL     OW 6811   1.306   0.431   7.310  0.1908  0.6385 -0.1234
 1648SOL    HW1 6812   1.302   0.391   7.223 -0.7714  0.7859 -0.1535
 1648SOL    HW2 6813   1.369   0.503   7.300  1.3109 -0.3293 -0.2719
 1649SOL     OW 6814   8.270   7.252   5.648 -0.5222 -0.3559  0.6298
 1649SOL    HW1 6815   8.272   7.317   5.718  3.3713  1.0243 -0.4971
 1649SOL    HW2 6816   8.229   7.297   5.574 -0.3875 -0.1768  0.6647
 1650SOL     OW 6817   2.915   4.835   3.568 -0.3984 -0.3808  0.3869
 1650SOL    HW1 6818   2.945   4.797   3.486  0.6288  0.5274  0.3357
 1650SOL    HW2 6819   2.984   4.895   3.595 -0.6854 -0.6976  1.9478
 1651SOL     OW 6820   4.358   6.953   3.486  0.5193 -0.0495  0.7280
 1651SOL    HW1 6821   4.448   6.922   3.477  0.9877  1.6497 -1.4729
 1651SOL    HW2 6822   4.366   7.048   3.488 -1.2814  0.6085 -4.8616
 1652SOL     OW 6823   8.960   5.021   7.711 -0.5435  0.1260 -0.4171
 1652SOL    HW1 6824   8.895   4.958   7.680 -0.3221 -1.3278  1.7877
 1652SOL    HW2 6825   9.039   4.968   7.724 -0.1509  0.9824  0.8506
 1653SOL     OW 6826   1.804   3.412   4.723  0.8860  0.5411  0.1375
 1653SOL    HW1 6827   1.734   3.377   4.777  0.3519  1.8822  0.3382
 1653SOL    HW2 6828   1.768   3.415   4.635  1.4182 -0.7074 -0.1443
 1654SOL     OW 6829   1.742   3.391   6.116  0.2819 -0.1264 -0.4405
 1654SOL    HW1 6830   1.801   3.428   6.050 -0.0138 -0.9310 -1.1774
 1654SOL    HW2 6831   1.663   3.369   6.067 -0.3382  0.2168  0.3909
 1655SOL     OW 6832   8.858   3.938   2.273  0.2501 -0.0385  0.0199
 1655SOL    HW1 6833   8.951   3.947   2.254  0.3217 -1.5450 -0.4636
 1655SOL    HW2 6834   8.835   3.850   2.242 -1.4506  0.4845 -0.3396
 1656SOL     OW 6835   2.742   1.699   0.198  0.4497  0.3928  0.1206
 1656SOL    HW1 6836   2.718   1.766   0.133  0.0636 -0.8764 -1.1086
 1656SOL    HW2 6837   2.780   1.628   0.146  2.5350  0.3790  1.5791
 1657SOL     OW 6838   7.242   6.075   8.109 -0.2380 -0.1999 -0.1447
 1657SOL    HW1 6839   7.191   6.050   8.185 -0.2266 -0.8180 -0.3347
 1657SOL    HW2 6840   7.185   6.135   8.060  0.9463  2.9222  1.9786
 1658SOL     OW 6841   8.246   1.696   2.943  0.0304  0.4056  0.0985
 1658SOL    HW1 6842   8.157   1.677   2.911  0.2025 -0.0938 -0.0850
 1658SOL    HW2 6843   8.267   1.781   2.904 -0.0657  0.1594 -0.4992
 1659SOL     OW 6844   0.709   4.374   6.167 -0.2103  0.0954  0.3421
 1659SOL    HW1 6845   0.624   4.382   6.124  0.4870 -0.9867 -1.3268
 1659SOL    HW2 6846   0.697   4.301   6.229 -0.5743  0.1083  0.2901
 1660SOL     OW 6847   8.557   1.318   0.595  0.7612  0.3800 -0.3848
 1660SOL    HW1 6848   8.559   1.413   0.580  0.8772  0.3714 -0.4296
 1660SOL    HW2 6849   8.644   1.288   0.567  0.6938  0.2477 -0.4531
 1661SOL     OW 6850   1.310   5.895   7.385  0.5362 -0.1004  0.2390
 1661SOL    HW1 6851   1.250   5.969   7.378  0.3226 -0.2995 -0.0893
 1661SOL    HW2 6852   1.325   5.884   7.479  0.4006  0.2230  0.2992
 1662SOL     OW 6853   2.779   3.267   5.991 -0.2615 -0.0071 -0.1006
 1662SOL    HW1 6854   2.832   3.196   6.029 -0.2242 -1.2742 -2.3294
 1662SOL    HW2 6855   2.701   3.223   5.958 -0.8033  1.1886 -0.4437
 1663SOL     OW 6856   7.680   8.970   7.057  0.0042 -0.2024 -0.2792
 1663SOL    HW1 6857   7.699   9.062   7.075  0.3054 -0.5930  1.6333
 1663SOL    HW2 6858   7.586   8.960   7.075  0.2072 -0.4938  0.6845
 1664SOL     OW 6859   7.295   7.823   5.018 -0.3009  0.0092 -0.1791
 1664SOL    HW1 6860   7.265   7.740   5.056 -0.2334  0.5082  0.9884
 1664SOL    HW2 6861   7.289   7.886   5.090 -0.0881  0.9611 -0.9811
 1665SOL     OW 6862   5.212   1.602   8.100 -0.3824  0.0666 -0.2108
 1665SOL    HW1 6863   5.255   1.586   8.183 -0.9639  1.3100  0.3656
 1665SOL    HW2 6864   5.240   1.530   8.044  0.7113 -0.3192  0.7842
 1666SOL     OW 6865   2.376   3.542   0.633 -0.1941 -0.2505  0.7029
 1666SOL    HW1 6866   2.444   3.594   0.675  0.0174  1.2142 -1.2808
 1666SOL    HW2 6867   2.296   3.565   0.679  0.1233  0.7394  0.7857
 1667SOL     OW 6868   8.491   5.488   1.121  0.2555  0.0507 -0.1339
 1667SOL    HW1 6869   8.557   5.452   1.180  0.4094 -1.0674 -0.9585
 1667SOL    HW2 6870   8.515   5.455   1.034 -0.5565  0.8106 -0.6689
 1668SOL     OW 6871   1.537   4.520   0.735 -0.2574  0.3155 -0.0281
 1668SOL    HW1 6872   1.582   4.482   0.810 -0.0604  0.9550  0.1831
 1668SOL    HW2 6873   1.527   4.447   0.674  1.8440  0.3208 -0.4503
 1669SOL     OW 6874   0.087   8.441   0.279 -0.0468  0.3834 -0.2918
 1669SOL    HW1 6875   0.092   8.366   0.338  0.4879  1.6528  1.3792
 1669SOL    HW2 6876   0.061   8.405   0.195 -0.0670 -1.6189  0.5316
 1670SOL     OW 6877   6.588   4.887   1.227  0.3636 -0.5252 -0.0899
 1670SOL    HW1 6878   6.523   4.957   1.234  0.2027 -0.5355 -1.2216
 1670SOL    HW2 6879   6.671   4.929   1.247  0.4759  0.4072 -2.1748
 1671SOL     OW 6880   4.496   8.951   1.588  0.3015  0.6328  1.1683
 1671SOL    HW1 6881   4.440   8.889   1.635 -1.5797  2.5516  1.6090
 1671SOL    HW2 6882   4.585   8.924   1.611 -0.4088 -1.9207  1.2684
 1672SOL     OW 6883   5.443   4.938   7.624  0.3710 -0.0491  0.1470
 1672SOL    HW1 6884   5.538   4.952   7.624  0.3482  0.1531 -0.5775
 1672SOL    HW2 6885   5.427   4.886   7.545 -0.2532  0.9137 -0.3803
 1673SOL     OW 6886   1.477   3.069   5.528  0.0303 -0.5548 -0.3527
 1673SOL    HW1 6887   1.437   3.107   5.450 -1.0642  0.6374  0.7448
 1673SOL    HW2 6888   1.565   3.043   5.499 -0.4338 -0.3725 -2.0250
 1674SOL     OW 6889   4.991   2.444   1.012 -0.2939  0.2638 -0.1874
 1674SOL    HW1 6890   4.939   2.516   0.976 -0.6995  0.3211  0.4910
 1674SOL    HW2 6891   5.064   2.434   0.951  0.5389  2.1862  0.4128
 1675SOL     OW 6892   0.660   5.818   8.313 -0.1753  0.6327 -0.0711
 1675SOL    HW1 6893   0.711   5.896   8.332  0.4491  0.2416 -0.0982
 1675SOL    HW2 6894   0.711   5.771   8.246 -0.0387 -0.2804  0.6500
 1676SOL     OW 6895   2.771   0.520   3.818  0.5712  0.1094  0.0490
 1676SOL    HW1 6896   2.698   0.581   3.832  0.3498  0.2590 -1.5522
 1676SOL    HW2 6897   2.793   0.529   3.725  1.9224 -0.7353  0.2490
 1677SOL     OW 6898   3.376   4.243   8.009  0.0833  0.6845 -0.7872
 1677SOL    HW1 6899   3.383   4.327   8.055  0.7417  0.0543  0.3245
 1677SOL    HW2 6900   3.342   4.183   8.076  0.7085 -0.1795 -1.2234
 1678SOL     OW 6901   8.767   8.242   6.422  0.6197 -0.0674 -0.2825
 1678SOL    HW1 6902   8.842   8.183   6.425 -0.0550 -0.9061  0.7679
 1678SOL    HW2 6903   8.782   8.303   6.494 -0.6192 -1.4236  1.1829
 1679SOL     OW 6904   1.427   6.361   2.234  0.2056  0.3317  0.6275
 1679SOL    HW1 6905   1.499   6.420   2.257  0.3208 -0.1587  1.6013
 1679SOL    HW2 6906   1.402   6.321   2.317 -0.4192 -0.3746  0.1142
 1680SOL     OW 6907   2.257   0.315   6.030 -0.0353  0.3470  0.4431
 1680SOL    HW1 6908   2.234   0.404   6.002  0.5050  0.6646  0.9738
 1680SOL    HW2 6909   2.178   0.282   6.074  0.0757  0.9306  1.0954
 1681SOL     OW 6910   7.216   6.221   2.290  0.1738  0.1153  0.1481
 1681SOL    HW1 6911   7.210   6.313   2.318 -0.7586  0.0489  0.2174
 1681SOL    HW2 6912   7.148   6.212   2.223 -0.5895 -0.8175  1.0136
 1682SOL     OW 6913   7.088   3.193   8.544  0.0958  0.7864 -0.1429
 1682SOL    HW1 6914   7.059   3.155   8.461  0.8157  1.6734 -0.8354
 1682SOL    HW2 6915   7.022   3.259   8.564 -0.8450 -0.3870  0.7597
 1683SOL     OW 6916   3.593   6.342   2.775  0.2604 -0.3415  1.0172
 1683SOL    HW1 6917   3.517   6.318   2.828 -1.0646 -0.6076 -0.8846
 1683SOL    HW2 6918   3.628   6.259   2.744  0.2625 -0.1506  0.4964
 1684SOL     OW 6919   2.332   3.433   4.355 -0.6759  0.0951 -0.0837
 1684SOL    HW1 6920   2.245   3.393   4.354 -1.2127  1.2035 -0.3100
 1684SOL    HW2 6921   2.329   3.496   4.427  0.6166 -1.2004  1.1743
 1685SOL     OW 6922   1.333   4.571   2.879  0.2167 -0.2656  0.1352
 1685SOL    HW1 6923   1.335   4.479   2.908  1.1205  0.2065  1.6599
 1685SOL    HW2 6924   1.391   4.573   2.802 -0.8967 -1.2069 -0.7820
 1686SOL     OW 6925   3.414   6.160   5.077 -0.4464 -0.2916 -0.3591
 1686SOL    HW1 6926   3.352   6.137   5.145 -0.3106 -0.4682 -0.2965
 1686SOL    HW2 6927   3.495   6.117   5.102  0.1754  1.2662  0.4474
 1687SOL     OW 6928   2.040   1.271   8.837 -0.6070  0.2848 -0.1237
 1687SOL    HW1 6929   2.132   1.293   8.856  0.1178 -1.1830 -1.7084
 1687SOL    HW2 6930   1.990   1.324   8.899  1.2668  1.8206  0.1765
 1688SOL     OW 6931   5.668   7.201   1.426 -0.0849 -0.4252  0.5329
 1688SOL    HW1 6932   5.741   7.170   1.373 -0.8786 -0.7069 -0.4122
 1688SOL    HW2 6933   5.700   7.282   1.466  0.4454 -0.0772 -0.5670
 1689SOL     OW 6934   4.789   8.804   1.584  0.3427 -0.3617 -0.5103
 1689SOL    HW1 6935   4.874   8.842   1.605  0.1282 -0.0304 -0.2253
 1689SOL    HW2 6936   4.784   8.805   1.489  1.4268 -2.0721 -0.6320
 1690SOL     OW 6937   0.384   0.994   6.498 -0.2735 -0.1638 -0.2700
 1690SOL    HW1 6938   0.457   1.010   6.438  1.9250  0.0600  2.2829
 1690SOL    HW2 6939   0.421   1.008   6.585 -2.7239 -2.5038  1.3067
 1691SOL     OW 6940   6.831   2.592   8.396  0.0466 -0.0468 -0.5488
 1691SOL    HW1 6941   6.811   2.639   8.477  0.0830 -0.5065 -0.2677
 1691SOL    HW2 6942   6.758   2.614   8.337 -0.0709  0.1507 -0.3340
 1692SOL     OW 6943   8.108   1.305   3.542 -0.3123 -0.8683 -0.0948
 1692SOL    HW1 6944   8.042   1.356   3.495 -0.1056 -0.2637  0.2702
 1692SOL    HW2 6945   8.140   1.242   3.477 -0.4212 -0.4035 -0.6066
 1693SOL     OW 6946   2.215   8.275   2.965  0.2811  0.4168  0.0017
 1693SOL    HW1 6947   2.279   8.341   2.990  2.1203 -0.5690 -1.7855
 1693SOL    HW2 6948   2.143   8.286   3.028  2.0002  1.8431  1.8569
 1694SOL     OW 6949   5.292   5.180   7.613  0.1767 -0.0619 -0.1981
 1694SOL    HW1 6950   5.255   5.196   7.700  2.1925  2.2662  0.3358
 1694SOL    HW2 6951   5.327   5.091   7.618  0.2525  0.0224  1.3923
 1695SOL     OW 6952   1.841   8.908   7.314  0.7141  0.2947 -0.2437
 1695SOL    HW1 6953   1.877   8.937   7.398  1.9944 -0.5531 -0.4788
 1695SOL    HW2 6954   1.796   8.826   7.335  1.3878 -0.1335 -0.4433
 1696SOL     OW 6955   7.589   2.159   7.508  0.4327  0.4508  0.5839
 1696SOL    HW1 6956   7.503   2.124   7.485 -0.1448  1.8639  0.4936
 1696SOL    HW2 6957   7.623   2.098   7.574  0.2728 -1.2787 -0.8446
 1697SOL     OW 6958   1.481   7.887   4.679 -0.5338 -0.0573  0.0039
 1697SOL    HW1 6959   1.525   7.912   4.598 -0.7082 -4.4326 -1.7422
 1697SOL    HW2 6960   1.530   7.810   4.709 -2.8432 -0.9214  1.8600
 1698SOL     OW 6961   3.934   6.670   2.409 -0.1207  0.4299 -0.0262
 1698SOL    HW1 6962   4.022   6.638   2.388 -0.6037  0.2176 -1.9416
 1698SOL    HW2 6963   3.897   6.601   2.464  0.6492  0.1717  0.1885
 1699SOL     OW 6964   8.704   1.484   8.034 -0.8942  0.3008 -0.2488
 1699SOL    HW1 6965   8.786   1.534   8.039 -1.5753  1.4979 -0.5514
 1699SOL    HW2 6966   8.728   1.401   7.995  0.5248 -0.1564  1.4807
 1700SOL     OW 6967   0.714   1.420   6.120  0.0606  0.0053 -0.0297
 1700SOL    HW1 6968   0.638   1.450   6.169  0.6304  2.0050 -0.2757
 1700SOL    HW2 6969   0.730   1.331   6.152 -1.0704  0.3288  1.5642
 1701SOL     OW 6970   2.358   5.595   2.331  0.1425  1.0732 -0.0387
 1701SOL    HW1 6971   2.437   5.568   2.284 -0.1723  0.2390 -0.1103
 1701SOL    HW2 6972   2.354   5.537   2.407 -1.3973 -0.2416 -1.0424
 1702SOL     OW 6973   0.303   4.172   0.440 -0.0200  0.1902 -0.1210
 1702SOL    HW1 6974   0.322   4.078   0.442 -0.4353  0.0474 -1.7091
 1702SOL    HW2 6975   0.234   4.181   0.375 -0.7381  1.4932  0.7782
 1703SOL     OW 6976   8.593   6.018   5.756 -0.0358 -0.3758 -0.2280
 1703SOL    HW1 6977   8.506   6.042   5.724 -0.3235  0.6644  1.2595
 1703SOL    HW2 6978   8.584   5.929   5.788 -0.6554 -0.1195  0.3033
 1704SOL     OW 6979   0.447   2.779   1.321 -0.9126  0.1742 -0.1428
 1704SOL    HW1 6980   0.493   2.756   1.403 -1.9011  1.8808  0.9466
 1704SOL    HW2 6981   0.397   2.700   1.299  2.0877 -1.6336 -1.1678
 1705SOL     OW 6982   0.483   8.554   5.691  0.5701  0.3244  0.7483
 1705SOL    HW1 6983   0.464   8.614   5.619 -0.0469  0.4358  0.9993
 1705SOL    HW2 6984   0.562   8.507   5.662  0.5018  0.5714  0.1309
 1706SOL     OW 6985   2.674   7.663   8.560  0.8305 -0.7194  0.4077
 1706SOL    HW1 6986   2.625   7.706   8.490  1.0696  1.4807  1.5141
 1706SOL    HW2 6987   2.766   7.677   8.537  0.9723  2.1102  2.2153
 1707SOL     OW 6988   7.909   3.946   5.220 -0.2763 -0.1886  0.4023
 1707SOL    HW1 6989   7.845   3.988   5.163 -1.5246  0.9135  2.4890
 1707SOL    HW2 6990   7.901   3.853   5.200 -2.0416 -0.0069  0.1162
 1708SOL     OW 6991   3.815   0.731   6.467 -0.2882  0.2740  0.3798
 1708SOL    HW1 6992   3.909   0.735   6.454 -0.6126  1.5315 -2.2303
 1708SOL    HW2 6993   3.784   0.671   6.399 -1.5963  2.2086 -0.8349
 1709SOL     OW 6994   1.449   1.369   4.491 -0.6275  0.4079  0.1401
 1709SOL    HW1 6995   1.380   1.319   4.533  0.4584 -0.6719  0.7082
 1709SOL    HW2 6996   1.469   1.440   4.553 -1.4924  0.9952 -0.2261
 1710SOL     OW 6997   7.572   0.168   3.147 -0.3729  0.7447  0.1928
 1710SOL    HW1 6998   7.667   0.161   3.137 -0.6173 -2.4712 -1.2224
 1710SOL    HW2 6999   7.554   0.125   3.231 -0.6797 -0.9246 -0.6764
 1711SOL     OW 7000   0.080   6.457   1.819  0.7783 -0.7024 -0.2166
 1711SOL    HW1 7001   0.174   6.450   1.836  0.7492  0.1432  0.3388
 1711SOL    HW2 7002   0.068   6.545   1.784 -0.0092 -0.2000  1.2085
 1712SOL     OW 7003   3.086   5.577   3.149 -0.0398  0.5417  0.5897
 1712SOL    HW1 7004   3.148   5.641   3.116 -0.7272  0.1895 -1.5698
 1712SOL    HW2 7005   3.040   5.622   3.220  0.9920  1.6430  0.5841
 1713SOL     OW 7006   5.510   3.840   5.914  0.1751  0.0987  0.1391
 1713SOL    HW1 7007   5.455   3.788   5.972  0.6572 -0.3652  0.1931
 1713SOL    HW2 7008   5.507   3.794   5.830  0.4182  0.1124  0.1220
 1714SOL     OW 7009   1.384   6.576   7.176 -0.4617 -0.3879  0.1354
 1714SOL    HW1 7010   1.399   6.598   7.268 -2.3108 -2.3239  0.9962
 1714SOL    HW2 7011   1.454   6.513   7.155  0.1773  0.3260  0.0719
 1715SOL     OW 7012   7.919   7.548   8.736 -0.4139  0.1864 -0.2094
 1715SOL    HW1 7013   8.010   7.529   8.717 -1.1802 -3.9733 -0.5903
 1715SOL    HW2 7014   7.917   7.565   8.830  0.7300  0.5791 -0.2380
 1716SOL     OW 7015   5.009   2.398   1.937  0.8610 -0.1866  1.1353
 1716SOL    HW1 7016   5.020   2.480   1.889  0.6604 -1.7459 -1.8165
 1716SOL    HW2 7017   4.964   2.423   2.018  0.1971  2.5095  0.0284
 1717SOL     OW 7018   4.696   6.509   8.311 -0.2340 -0.9890 -0.0921
 1717SOL    HW1 7019   4.619   6.482   8.360  0.3149  0.3167  1.5912
 1717SOL    HW2 7020   4.767   6.505   8.374  0.9757 -1.4378 -1.4122
 1718SOL     OW 7021   7.153   0.637   6.112 -0.5393 -0.3348 -0.1186
 1718SOL    HW1 7022   7.066   0.603   6.092 -1.1696  0.3351  1.3584
 1718SOL    HW2 7023   7.148   0.664   6.204  0.9357  0.6224 -0.2892
 1719SOL     OW 7024   6.125   2.198   1.090 -0.0742 -0.1866 -0.3485
 1719SOL    HW1 7025   6.080   2.137   1.148 -0.5826  0.3081 -0.2125
 1719SOL    HW2 7026   6.216   2.198   1.121  0.2419 -1.8621 -1.1840
 1720SOL     OW 7027   8.403   1.845   8.820 -0.6179  0.1285 -0.1789
 1720SOL    HW1 7028   8.339   1.781   8.848  0.0351  0.4005  2.1855
 1720SOL    HW2 7029   8.478   1.793   8.789 -0.5442 -0.2410  0.6079
 1721SOL     OW 7030   6.246   1.039   0.007  0.4411  0.2940  0.0452
 1721SOL    HW1 7031   6.248   1.012   0.099 -1.4699 -0.6492 -0.1505
 1721SOL    HW2 7032   6.338   1.040  -0.019  1.1075  1.5183  2.2060
 1722SOL     OW 7033   2.724   4.474   0.004 -0.0326  0.2845 -0.5057
 1722SOL    HW1 7034   2.658   4.540   0.024  0.9733  0.9360  0.7426
 1722SOL    HW2 7035   2.807   4.518   0.016  0.6645 -0.7709 -1.2351
 1723SOL     OW 7036   3.229   1.986   0.508  0.3554  0.4289  0.1812
 1723SOL    HW1 7037   3.302   1.970   0.447 -1.3560 -0.4763 -1.7425
 1723SOL    HW2 7038   3.181   1.903   0.510 -2.2326  1.7981 -0.8582
 1724SOL     OW 7039   3.869   7.468   6.710  0.6877  1.1380  0.4009
 1724SOL    HW1 7040   3.804   7.532   6.738  0.0794  0.5308  0.4096
 1724SOL    HW2 7041   3.886   7.415   6.789 -0.5442 -0.1626 -0.1579
 1725SOL     OW 7042   4.037   3.757   0.900  0.5996 -0.2310 -0.2686
 1725SOL    HW1 7043   3.987   3.806   0.835  0.2538 -1.3641 -0.8759
 1725SOL    HW2 7044   4.034   3.667   0.870  2.0428 -0.4962  0.3134
 1726SOL     OW 7045   6.912   8.716   7.865  0.5338 -0.7684  0.0513
 1726SOL    HW1 7046   6.900   8.790   7.924  1.4367 -0.6440  0.0926
 1726SOL    HW2 7047   6.834   8.716   7.810  1.4760  1.5425 -1.4014
 1727SOL     OW 7048   5.136   3.377   6.604 -0.0439 -0.2054 -0.2571
 1727SOL    HW1 7049   5.044   3.354   6.588 -0.0884 -0.0220 -0.2664
 1727SOL    HW2 7050   5.140   3.396   6.697  0.0571 -0.5369 -0.1909
 1728SOL     OW 7051   5.104   1.297   1.832 -0.3900 -0.1357 -0.0627
 1728SOL    HW1 7052   5.097   1.385   1.870 -1.1886  0.4006 -1.3495
 1728SOL    HW2 7053   5.109   1.313   1.738 -0.6151 -1.4805 -0.3212
 1729SOL     OW 7054   0.262   6.178   1.881  0.0716  0.2102 -0.0309
 1729SOL    HW1 7055   0.356   6.185   1.870  0.0241  0.8631 -0.0327
 1729SOL    HW2 7056   0.225   6.225   1.807 -0.2955 -2.3425 -1.5992
 1730SOL     OW 7057   7.773   6.070   3.814 -0.0611  0.0901 -0.4083
 1730SOL    HW1 7058   7.712   6.103   3.879  1.2828 -1.6190  1.8777
 1730SOL    HW2 7059   7.729   5.994   3.776 -0.2238  0.1540 -0.3458
 1731SOL     OW 7060   5.525   6.420   6.133  0.0817  0.6775  0.3577
 1731SOL    HW1 7061   5.538   6.352   6.199  0.1673  0.2058 -0.1414
 1731SOL    HW2 7062   5.564   6.499   6.171  0.0724  0.4253  0.8941
 1732SOL     OW 7063   1.525   3.737   7.359 -0.7417 -0.2631 -0.2664
 1732SOL    HW1 7064   1.584   3.667   7.390  1.6833  1.0217 -1.6668
 1732SOL    HW2 7065   1.559   3.816   7.400 -1.4122  0.5455 -1.2449
 1733SOL     OW 7066   8.124   0.272   8.282  0.4361  0.4984  0.5674
 1733SOL    HW1 7067   8.163   0.306   8.202 -1.2117  2.8385  0.6612
 1733SOL    HW2 7068   8.032   0.300   8.278  0.0835 -0.1437  2.8226
 1734SOL     OW 7069   4.610   8.982   2.425  0.5736  0.2373  0.6350
 1734SOL    HW1 7070   4.619   8.900   2.376  0.4317 -0.8923  2.4021
 1734SOL    HW2 7071   4.527   9.019   2.395  0.8418 -0.0189 -0.4909
 1735SOL     OW 7072   0.580   7.580   4.614 -0.8040  0.0101 -0.2373
 1735SOL    HW1 7073   0.669   7.576   4.648 -0.8664  0.9809  0.0754
 1735SOL    HW2 7074   0.559   7.673   4.612 -1.2292 -0.0994 -1.8759
 1736SOL     OW 7075   8.145   4.123   8.999  0.1185 -0.1977  0.3620
 1736SOL    HW1 7076   8.069   4.067   9.013 -0.3754  0.6452  1.1402
 1736SOL    HW2 7077   8.194   4.079   8.930 -0.6030 -1.2284  0.4795
 1737SOL     OW 7078   8.290   8.868   7.159 -0.1725  0.3932 -0.6008
 1737SOL    HW1 7079   8.204   8.842   7.190 -0.4570  1.4969 -0.4027
 1737SOL    HW2 7080   8.349   8.848   7.231 -0.1754 -0.8105 -0.9180
 1738SOL     OW 7081   2.289   0.620   7.823 -0.6072  0.1187 -0.0644
 1738SOL    HW1 7082   2.285   0.566   7.744 -1.7284  0.7526 -0.4647
 1738SOL    HW2 7083   2.199   0.626   7.852 -0.3136  0.6388  0.7657
 1739SOL     OW 7084   3.969   5.520   1.351 -0.1062 -0.3771 -0.5281
 1739SOL    HW1 7085   4.027   5.593   1.374  0.2392 -1.1000  1.0918
 1739SOL    HW2 7086   4.017   5.472   1.284  1.0665 -0.7933  0.5720
 1740SOL     OW 7087   1.668   2.378   0.136 -0.3039  1.0406  0.0211
 1740SOL    HW1 7088   1.690   2.285   0.134 -0.5481  0.9621  0.7156
 1740SOL    HW2 7089   1.644   2.395   0.227 -0.3480  1.7639 -0.1196
 1741SOL     OW 7090   6.604   4.965   2.958  0.4500 -0.1077 -0.1505
 1741SOL    HW1 7091   6.645   4.967   3.044  2.2883  0.2355 -0.9936
 1741SOL    HW2 7092   6.574   4.874   2.948 -2.1689  0.4183  1.8419
 1742SOL     OW 7093   8.851   8.900   1.057 -0.0260  0.1535 -0.1556
 1742SOL    HW1 7094   8.825   8.954   0.982  1.6754  0.7083 -0.3836
 1742SOL    HW2 7095   8.784   8.918   1.123 -1.8845 -0.7755 -1.6967
 1743SOL     OW 7096   1.592   1.797   1.472 -0.0024  0.0322 -0.5317
 1743SOL    HW1 7097   1.559   1.878   1.512  2.0038 -1.0437  3.8575
 1743SOL    HW2 7098   1.679   1.820   1.440 -0.1168 -0.0245 -0.8912
 1744SOL     OW 7099   1.588   4.395   3.711 -0.3647 -0.0247 -0.1806
 1744SOL    HW1 7100   1.573   4.396   3.617  0.2735  0.9480 -0.2869
 1744SOL    HW2 7101   1.674   4.354   3.721 -1.2063 -1.8364  0.1368
 1745SOL     OW 7102   4.843   6.168   4.673 -0.2152 -0.1834 -0.9308
 1745SOL    HW1 7103   4.849   6.147   4.767 -0.5354  0.3548 -0.7886
 1745SOL    HW2 7104   4.932   6.153   4.641 -0.1583 -0.6133 -0.5943
 1746SOL     OW 7105   1.982   1.645   8.504 -0.2072  0.2763 -0.0314
 1746SOL    HW1 7106   2.040   1.679   8.572 -0.6792 -0.9300  1.0120
 1746SOL    HW2 7107   1.898   1.633   8.549 -0.8578  0.5664 -1.1325
 1747SOL     OW 7108   6.729   3.951   6.232 -0.7066  0.1048 -0.6358
 1747SOL    HW1 7109   6.732   4.008   6.309 -0.2862  0.0127 -0.5797
 1747SOL    HW2 7110   6.646   3.903   6.240  0.1422 -1.2152  0.7117
 1748SOL     OW 7111   8.568   7.829   3.121 -0.0300  0.0239  0.2073
 1748SOL    HW1 7112   8.496   7.891   3.137  0.5115  0.4934  0.8416
 1748SOL    HW2 7113   8.560   7.808   3.028 -1.9409 -1.1491  0.5792
 1749SOL     OW 7114   5.713   4.303   4.099  0.1787 -0.4042 -0.4581
 1749SOL    HW1 7115   5.756   4.355   4.167  0.1634  0.4670 -1.0956
 1749SOL    HW2 7116   5.648   4.251   4.147 -0.7849  1.2106  0.0623
 1750SOL     OW 7117   4.840   6.856   2.429 -0.3641 -0.4958  0.0447
 1750SOL    HW1 7118   4.912   6.904   2.387 -0.3212 -0.4953  0.1181
 1750SOL    HW2 7119   4.882   6.807   2.500 -0.7344  1.2801  1.5809
 1751SOL     OW 7120   8.598   4.062   7.587 -0.2250 -0.3896  0.4271
 1751SOL    HW1 7121   8.690   4.041   7.570 -0.2299 -0.0952  0.0124
 1751SOL    HW2 7122   8.597   4.097   7.676  0.2855  0.8722 -0.0382
 1752SOL     OW 7123   0.992   2.637   0.061  0.1032 -0.1011  0.1332
 1752SOL    HW1 7124   0.909   2.673   0.092  0.0683 -0.4446  0.4410
 1752SOL    HW2 7125   0.977   2.543   0.055  0.2434 -0.0865 -0.5222
 1753SOL     OW 7126   5.451   6.905   6.416 -0.1158 -0.1742 -0.0315
 1753SOL    HW1 7127   5.373   6.936   6.370 -1.1312 -1.2591  0.8880
 1753SOL    HW2 7128   5.507   6.983   6.423 -0.3888  0.2519 -2.1048
 1754SOL     OW 7129   0.938   4.986   6.267  0.6460  0.0777  0.3118
 1754SOL    HW1 7130   0.931   4.930   6.189  0.7242 -0.7951  0.9160
 1754SOL    HW2 7131   0.867   5.049   6.257 -1.0213 -1.6123  0.7476
 1755SOL     OW 7132   1.261   7.638   6.183 -0.0708 -0.4637 -0.0280
 1755SOL    HW1 7133   1.245   7.584   6.106 -0.5324  1.2298 -1.1730
 1755SOL    HW2 7134   1.324   7.703   6.153 -1.4470  1.1891  0.5354
 1756SOL     OW 7135   8.203   0.659   1.422  0.3721 -0.3384 -0.3847
 1756SOL    HW1 7136   8.168   0.573   1.399  1.2736 -1.1741  1.1895
 1756SOL    HW2 7137   8.153   0.686   1.498  1.2241 -0.2645  0.1655
 1757SOL     OW 7138   2.587   8.679   7.191 -0.1885 -0.2021 -0.1514
 1757SOL    HW1 7139   2.631   8.617   7.134  0.1140 -0.0040 -0.1332
 1757SOL    HW2 7140   2.581   8.635   7.276 -3.3307 -1.7446 -1.0349
 1758SOL     OW 7141   4.716   5.133   0.529  0.5843 -0.0472 -0.0464
 1758SOL    HW1 7142   4.807   5.130   0.558  0.6856  0.1952 -0.3400
 1758SOL    HW2 7143   4.681   5.212   0.570  0.3634 -0.4117  0.4796
 1759SOL     OW 7144   7.732   1.136   6.978 -0.4933  0.1345  0.5056
 1759SOL    HW1 7145   7.706   1.136   6.886  0.6300  2.2354  0.1069
 1759SOL    HW2 7146   7.662   1.091   7.024 -1.8939  0.5026 -1.1912
 1760SOL     OW 7147   8.638   8.967   2.053  0.0249 -0.7929  0.0782
 1760SOL    HW1 7148   8.705   8.901   2.070 -0.8840 -1.7940 -0.1515
 1760SOL    HW2 7149   8.606   8.947   1.965  0.2622  0.4475 -0.3178
 1761SOL     OW 7150   1.109   2.341   4.174  0.5317 -0.0903 -0.0388
 1761SOL    HW1 7151   1.014   2.349   4.186  0.4211 -1.5127  0.2527
 1761SOL    HW2 7152   1.119   2.271   4.110  1.3827  0.3119 -0.3606
 1762SOL     OW 7153   6.104   0.783   7.033 -0.3779  0.2196  0.0652
 1762SOL    HW1 7154   6.186   0.755   6.993  0.4517  1.9198  0.4956
 1762SOL    HW2 7155   6.052   0.819   6.961  0.1582  1.1321  0.1231
 1763SOL     OW 7156   3.169   7.582   1.243  0.2102  0.2518  0.4305
 1763SOL    HW1 7157   3.259   7.599   1.271  0.6888 -1.4318  0.0078
 1763SOL    HW2 7158   3.143   7.503   1.291 -0.9753  0.5884  0.3795
 1764SOL     OW 7159   5.883   8.101   5.838 -0.1025 -0.4166 -0.2638
 1764SOL    HW1 7160   5.845   8.032   5.783  0.9293 -0.2158 -1.2802
 1764SOL    HW2 7161   5.957   8.059   5.881 -0.6677 -0.4596  0.6778
 1765SOL     OW 7162   4.235   2.946   2.091  0.6288  0.3855 -0.3627
 1765SOL    HW1 7163   4.208   2.997   2.167  0.0426  1.1779 -1.0855
 1765SOL    HW2 7164   4.214   2.856   2.115  0.7473  0.5790  0.5346
 1766SOL     OW 7165   7.332   5.297   8.482 -0.0826 -0.4391 -0.0638
 1766SOL    HW1 7166   7.294   5.300   8.394 -0.4178  0.5707  0.0981
 1766SOL    HW2 7167   7.277   5.235   8.529 -0.5293 -0.2216 -0.2905
 1767SOL     OW 7168   5.225   0.213   0.441  0.7429 -0.5979  0.6484
 1767SOL    HW1 7169   5.132   0.205   0.464  0.4108 -2.6983 -1.1257
 1767SOL    HW2 7170   5.233   0.304   0.410 -0.7383 -0.3873  0.7807
 1768SOL     OW 7171   5.681   8.000   7.122  0.2556  0.1588 -0.5541
 1768SOL    HW1 7172   5.663   7.924   7.066 -0.7841  1.3438 -1.9011
 1768SOL    HW2 7173   5.741   8.054   7.070  2.4815 -0.5229  1.1305
 1769SOL     OW 7174   6.416   5.703   8.754  0.1795 -0.1645 -0.1188
 1769SOL    HW1 7175   6.352   5.707   8.826  0.4270  0.8192  0.0728
 1769SOL    HW2 7176   6.367   5.733   8.677  0.1069 -0.5217 -0.2121
 1770SOL     OW 7177   0.746   4.882   8.494  0.0235 -0.1325  0.2692
 1770SOL    HW1 7178   0.840   4.883   8.479 -0.0709 -1.6281 -0.6492
 1770SOL    HW2 7179   0.710   4.939   8.425  0.0798 -1.8392 -1.2338
 1771SOL     OW 7180   8.597   1.684   6.350 -0.1755  0.3121 -0.0323
 1771SOL    HW1 7181   8.581   1.651   6.262  0.0840  1.0636 -0.3677
 1771SOL    HW2 7182   8.680   1.643   6.376  0.7113  1.4942 -0.8708
 1772SOL     OW 7183   3.024   7.667   7.598 -0.2181 -0.5861  0.0099
 1772SOL    HW1 7184   3.109   7.633   7.569 -0.2241  0.5353 -1.4622
 1772SOL    HW2 7185   2.976   7.681   7.516 -0.6509  1.7760  0.6108
 1773SOL     OW 7186   0.750   8.700   0.414 -0.0846 -0.3404 -0.1963
 1773SOL    HW1 7187   0.798   8.622   0.385  0.0120  0.2671 -1.8043
 1773SOL    HW2 7188   0.763   8.764   0.343 -0.7030  0.9136  0.7750
 1774SOL     OW 7189   4.029   7.981   3.197 -0.2395  0.5957  0.0878
 1774SOL    HW1 7190   4.052   8.059   3.147 -0.1544  1.5328  1.5359
 1774SOL    HW2 7191   4.112   7.952   3.236 -0.4969  0.5812  0.6400
 1775SOL     OW 7192   3.678   6.745   3.659 -0.2378  0.4353 -0.3150
 1775SOL    HW1 7193   3.699   6.750   3.566 -0.3617 -0.3194 -0.3919
 1775SOL    HW2 7194   3.679   6.652   3.678 -1.9315  0.4638  0.0379
 1776SOL     OW 7195   2.743   2.868   7.679 -0.1480  0.1428 -0.2058
 1776SOL    HW1 7196   2.829   2.904   7.656 -0.3078  0.8805  0.2950
 1776SOL    HW2 7197   2.723   2.909   7.764 -1.1549  0.2574 -0.4940
 1777SOL     OW 7198   2.794   7.746   5.846 -0.0170  0.1957 -0.5117
 1777SOL    HW1 7199   2.811   7.721   5.755 -0.2736  0.3149 -0.5910
 1777SOL    HW2 7200   2.753   7.832   5.841  1.6796  1.0865 -0.1993
 1778SOL     OW 7201   4.861   1.386   1.472  0.6239 -0.4789 -0.3850
 1778SOL    HW1 7202   4.877   1.479   1.453  2.9823 -0.4223  1.4572
 1778SOL    HW2 7203   4.906   1.340   1.401  2.2503 -0.2060  0.4371
 1779SOL     OW 7204   8.350   1.241   4.298  0.6415 -0.0486 -0.7191
 1779SOL    HW1 7205   8.304   1.165   4.335  1.3530 -1.0509 -1.8319
 1779SOL    HW2 7206   8.294   1.315   4.320  0.4243 -0.7495  1.2593
 1780SOL     OW 7207   4.268   8.574   5.174  0.2263  0.4785  0.4964
 1780SOL    HW1 7208   4.362   8.585   5.160  0.5181 -2.2232 -0.1686
 1780SOL    HW2 7209   4.238   8.527   5.097 -1.0630 -1.4441  2.0815
 1781SOL     OW 7210   6.841   2.289   3.033  0.2372 -0.5736 -0.2878
 1781SOL    HW1 7211   6.754   2.327   3.043 -0.0153 -1.1124 -0.4009
 1781SOL    HW2 7212   6.837   2.244   2.948  0.2286 -1.6450  0.2682
 1782SOL     OW 7213   3.173   2.557   0.305 -0.0119  0.0829 -0.8864
 1782SOL    HW1 7214   3.080   2.578   0.298 -0.3770 -0.6205  1.0753
 1782SOL    HW2 7215   3.199   2.591   0.391  2.1448  2.1979 -2.2519
 1783SOL     OW 7216   6.098   6.525   6.461 -0.3719 -0.3042  0.6294
 1783SOL    HW1 7217   6.171   6.493   6.408 -0.3240  1.2888 -0.3468
 1783SOL    HW2 7218   6.122   6.501   6.551  0.8696 -0.7163  0.2147
 1784SOL     OW 7219   1.218   8.526   6.758 -0.0499 -0.0911 -0.0996
 1784SOL    HW1 7220   1.190   8.530   6.667  1.8857  0.7105 -0.6955
 1784SOL    HW2 7221   1.301   8.479   6.756 -0.1318 -0.3317  1.2902
 1785SOL     OW 7222   6.918   0.263   0.367  0.0785 -0.0264 -0.1368
 1785SOL    HW1 7223   6.950   0.194   0.307  0.4322 -1.3049  1.4585
 1785SOL    HW2 7224   6.887   0.215   0.443 -1.8488  1.4818  0.0822
 1786SOL     OW 7225   7.547   7.207   4.996  1.1123 -0.7491 -0.3826
 1786SOL    HW1 7226   7.566   7.160   5.077 -0.0587 -1.4506 -0.4963
 1786SOL    HW2 7227   7.542   7.299   5.022  0.9541 -0.9457  0.3095
 1787SOL     OW 7228   2.105   5.863   6.717 -0.1004  0.3321 -0.5608
 1787SOL    HW1 7229   2.035   5.870   6.652 -0.4238  1.4646 -0.1075
 1787SOL    HW2 7230   2.065   5.889   6.800  0.7884  0.7543 -0.2463
 1788SOL     OW 7231   0.303   1.248   7.215 -0.0079 -0.5621  0.3797
 1788SOL    HW1 7232   0.300   1.338   7.246 -1.2156 -1.4776  3.2664
 1788SOL    HW2 7233   0.389   1.216   7.242  0.5502 -0.2348 -0.9302
 1789SOL     OW 7234   7.732   0.342   1.113 -0.0187  1.2861  0.6110
 1789SOL    HW1 7235   7.747   0.394   1.192  3.3065  1.0706  0.2702
 1789SOL    HW2 7236   7.708   0.255   1.146 -0.1917  1.6092  1.3508
 1790SOL     OW 7237   2.613   8.361   5.822  0.3460  0.1123  0.0014
 1790SOL    HW1 7238   2.541   8.323   5.873  0.7757  0.1431  0.6403
 1790SOL    HW2 7239   2.620   8.451   5.854  0.7516  0.0703  0.0380
 1791SOL     OW 7240   5.207   8.677   6.250  0.4691  0.6691 -0.2870
 1791SOL    HW1 7241   5.291   8.674   6.205  1.1850  2.7313  0.7745
 1791SOL    HW2 7242   5.228   8.702   6.340 -1.2913  1.8421 -0.1314
 1792SOL     OW 7243   0.759   4.417   0.997  0.4284  0.3679 -0.2409
 1792SOL    HW1 7244   0.669   4.449   0.990  0.5658  0.5805 -1.2179
 1792SOL    HW2 7245   0.750   4.323   1.014  0.0246  0.4333 -0.0873
 1793SOL     OW 7246   3.095   2.771   0.726  0.2833 -0.0193  0.0010
 1793SOL    HW1 7247   3.100   2.790   0.820  0.4155 -0.9944  0.1957
 1793SOL    HW2 7248   3.010   2.730   0.714  0.2347  0.1694 -0.3217
 1794SOL     OW 7249   2.353   2.357   6.045 -0.3874  0.4052  0.0110
 1794SOL    HW1 7250   2.355   2.448   6.014 -0.9080  0.5659  0.4565
 1794SOL    HW2 7251   2.392   2.307   5.973  0.9401  1.1028  0.1965
 1795SOL     OW 7252   7.742   8.632   6.355  0.0530  0.7892 -0.0355
 1795SOL    HW1 7253   7.828   8.590   6.350 -0.5066 -0.6282  1.2776
 1795SOL    HW2 7254   7.727   8.665   6.266  1.1345 -0.6214 -0.8069
 1796SOL     OW 7255   7.395   6.425   8.280 -0.7353 -0.0068  0.4453
 1796SOL    HW1 7256   7.351   6.390   8.203  0.1072  1.3382 -0.7025
 1796SOL    HW2 7257   7.429   6.348   8.325 -0.7710 -0.7989 -0.8314
 1797SOL     OW 7258   0.967   0.932   0.765 -0.1258 -0.4672  0.6641
 1797SOL    HW1 7259   1.036   0.935   0.698  0.5158 -1.8934  1.2164
 1797SOL    HW2 7260   0.888   0.959   0.719  0.8702  1.8876  0.1630
 1798SOL     OW 7261   0.356   6.812   3.466 -0.2741 -0.0179  0.0633
 1798SOL    HW1 7262   0.324   6.725   3.441 -1.4549  0.3606  0.1756
 1798SOL    HW2 7263   0.322   6.871   3.398  0.0520  0.4291  0.2798
 1799SOL     OW 7264   6.271   8.905   3.373 -0.4077  0.5131  0.3797
 1799SOL    HW1 7265   6.291   8.812   3.381 -0.4750  0.5575  1.0483
 1799SOL    HW2 7266   6.241   8.932   3.459 -0.1760  1.2064  0.2560
 1800SOL     OW 7267   8.552   6.391   7.952  0.0043  0.1912 -0.0787
 1800SOL    HW1 7268   8.644   6.366   7.949  0.1194  0.6235 -0.1011
 1800SOL    HW2 7269   8.550   6.481   7.921 -0.4117  0.2230  0.0351
 1801SOL     OW 7270   3.405   7.688   5.511  0.1494 -0.2469 -0.4932
 1801SOL    HW1 7271   3.381   7.750   5.579 -0.5255  0.2131 -1.1385
 1801SOL    HW2 7272   3.445   7.741   5.442  0.2066 -0.6184 -0.7518
 1802SOL     OW 7273   2.267   4.541   1.133  0.0101  0.5678 -0.5148
 1802SOL    HW1 7274   2.182   4.523   1.172 -0.5340  0.7151 -1.6065
 1802SOL    HW2 7275   2.282   4.634   1.150  1.0535  0.0799  1.7102
 1803SOL     OW 7276   7.267   1.025   5.445 -0.6492  0.0200  0.5077
 1803SOL    HW1 7277   7.262   1.021   5.350  0.9981  0.0305  0.4000
 1803SOL    HW2 7278   7.303   0.941   5.472  0.4700  0.6301  0.9759
 1804SOL     OW 7279   3.502   0.731   0.742 -0.5269 -0.2476  0.4608
 1804SOL    HW1 7280   3.507   0.652   0.688 -0.9029  0.2963 -0.3957
 1804SOL    HW2 7281   3.593   0.757   0.756 -0.4021  1.0329 -2.1038
 1805SOL     OW 7282   8.432   4.503   3.142 -0.0485 -0.6714 -0.3332
 1805SOL    HW1 7283   8.458   4.593   3.164  0.5969 -1.0451  0.5343
 1805SOL    HW2 7284   8.339   4.499   3.162  0.1806 -0.5250  0.8549
 1806SOL     OW 7285   7.843   4.773   3.162 -0.3897 -0.3038  0.4060
 1806SOL    HW1 7286   7.868   4.717   3.089 -1.7672 -0.9905  0.4174
 1806SOL    HW2 7287   7.750   4.755   3.175 -0.3870  0.4846  1.7372
 1807SOL     OW 7288   8.278   8.808   0.934  0.1378 -0.1175 -0.4066
 1807SOL    HW1 7289   8.249   8.899   0.927 -0.8307  0.0014  3.0955
 1807SOL    HW2 7290   8.197   8.757   0.942  0.5529 -0.5100  3.2847
 1808SOL     OW 7291   5.141   3.779   7.502  0.4526 -0.1835 -0.0881
 1808SOL    HW1 7292   5.174   3.841   7.437 -0.3926 -0.5797 -0.9137
 1808SOL    HW2 7293   5.144   3.827   7.585 -0.5465  1.0952 -0.7711
 1809SOL     OW 7294   2.267   0.317   0.601  0.8031  0.0220  0.7037
 1809SOL    HW1 7295   2.222   0.394   0.636  1.0511  0.8580 -0.7396
 1809SOL    HW2 7296   2.351   0.351   0.569  1.1044 -0.9301  0.4502
 1810SOL     OW 7297   3.770   3.254   0.977  0.0573  0.2862  0.0656
 1810SOL    HW1 7298   3.848   3.199   0.980  0.5077  0.8532 -0.8921
 1810SOL    HW2 7299   3.713   3.217   1.044  0.4934 -1.1311 -0.2930
 1811SOL     OW 7300   7.666   6.346   0.222  0.0474 -0.8019  0.2604
 1811SOL    HW1 7301   7.729   6.341   0.294 -0.9911 -1.2509  1.1699
 1811SOL    HW2 7302   7.598   6.283   0.245 -0.3982 -0.8274 -1.0378
 1812SOL     OW 7303   8.426   3.784   5.252 -0.5101 -0.2543 -0.1605
 1812SOL    HW1 7304   8.425   3.759   5.344 -0.6916  0.1426 -0.0556
 1812SOL    HW2 7305   8.483   3.719   5.210  0.2164  0.0460  0.3547
 1813SOL     OW 7306   0.894   3.601   1.790 -0.2816 -0.1502  0.0673
 1813SOL    HW1 7307   0.890   3.611   1.885  1.5433 -0.1928  0.1820
 1813SOL    HW2 7308   0.872   3.509   1.775  2.2982 -0.9937  0.7760
 1814SOL     OW 7309   3.165   5.486   1.388  1.1867 -0.0715  0.4690
 1814SOL    HW1 7310   3.166   5.417   1.455  2.9758 -0.5008  0.0462
 1814SOL    HW2 7311   3.254   5.487   1.353  0.3804  0.3211 -1.7431
 1815SOL     OW 7312   8.975   5.056   4.850  0.8067  0.0947  0.2345
 1815SOL    HW1 7313   8.973   5.039   4.944  1.9479  1.0981  0.4637
 1815SOL    HW2 7314   9.012   5.144   4.842  0.5668  0.0962 -1.1489
 1816SOL     OW 7315   7.522   8.274   1.298  0.1085 -0.0044  0.0382
 1816SOL    HW1 7316   7.493   8.307   1.213 -0.6598 -0.2730  0.1837
 1816SOL    HW2 7317   7.567   8.192   1.279 -0.4952 -0.3154 -0.0746
 1817SOL     OW 7318   1.696   8.065   5.147 -0.4218  0.1371 -0.1166
 1817SOL    HW1 7319   1.635   8.108   5.207 -0.9689 -0.4307 -0.2552
 1817SOL    HW2 7320   1.745   8.137   5.107  0.4755  0.4993  1.5209
 1818SOL     OW 7321   1.183   4.424   4.233  0.2007 -0.3838 -0.2566
 1818SOL    HW1 7322   1.197   4.512   4.198  2.2765 -1.2945 -1.9537
 1818SOL    HW2 7323   1.244   4.417   4.307  0.7592 -0.6813 -0.7320
 1819SOL     OW 7324   1.290   5.065   1.054 -0.3830  0.0239  0.4209
 1819SOL    HW1 7325   1.210   5.112   1.029  0.3079  1.0341  0.0567
 1819SOL    HW2 7326   1.350   5.081   0.981 -0.2721 -1.8277  0.0628
 1820SOL     OW 7327   7.391   2.460   5.271 -0.2760  0.6752 -0.5022
 1820SOL    HW1 7328   7.443   2.425   5.198  0.5563 -0.2419  0.4943
 1820SOL    HW2 7329   7.428   2.546   5.289 -1.5619  1.6502 -2.1994
 1821SOL     OW 7330   2.524   6.725   8.541 -0.2456 -0.0821  0.0866
 1821SOL    HW1 7331   2.487   6.764   8.620 -1.5179 -0.4402 -0.3145
 1821SOL    HW2 7332   2.517   6.794   8.474  0.7672  0.1980  0.2546
 1822SOL     OW 7333   2.972   8.305   2.774  0.3999  0.6025  0.0536
 1822SOL    HW1 7334   3.022   8.322   2.695 -3.9877  0.0377 -3.1869
 1822SOL    HW2 7335   2.980   8.211   2.788 -0.4635  0.3552 -1.0368
 1823SOL     OW 7336   3.898   8.153   0.759  0.5023  0.1952  0.3607
 1823SOL    HW1 7337   3.910   8.125   0.849  0.6839 -0.3461  0.1766
 1823SOL    HW2 7338   3.895   8.071   0.709 -0.1292  0.4651 -0.0628
 1824SOL     OW 7339   1.475   7.790   6.058  0.1120 -0.2890 -0.6123
 1824SOL    HW1 7340   1.537   7.718   6.056  1.9953  1.2009  1.0331
 1824SOL    HW2 7341   1.529   7.869   6.060 -1.8629  1.1536 -0.9065
 1825SOL     OW 7342   0.103   5.664   0.384  0.3754  0.6965 -0.5933
 1825SOL    HW1 7343   0.063   5.747   0.408 -0.6964  0.1970 -0.5680
 1825SOL    HW2 7344   0.054   5.636   0.306  0.9827  0.2735 -0.8311
 1826SOL     OW 7345   1.493   2.279   3.864 -0.0383  0.4466 -0.1999
 1826SOL    HW1 7346   1.538   2.230   3.796  0.0753  2.6371 -1.8185
 1826SOL    HW2 7347   1.553   2.278   3.938  0.4277 -0.8847 -0.5695
 1827SOL     OW 7348   2.383   0.627   6.758  0.5222 -0.2982 -0.2723
 1827SOL    HW1 7349   2.320   0.629   6.830 -1.2803  0.4518 -1.7866
 1827SOL    HW2 7350   2.383   0.537   6.728  1.3139 -0.6240  0.6519
 1828SOL     OW 7351   5.712   7.354   1.943  0.0527  0.2575  0.1621
 1828SOL    HW1 7352   5.689   7.265   1.972  2.0909 -0.3504  0.0997
 1828SOL    HW2 7353   5.759   7.392   2.018 -0.3751  1.1099  0.0091
 1829SOL     OW 7354   8.108   3.431   7.743  0.8715 -0.1623 -0.1443
 1829SOL    HW1 7355   8.130   3.493   7.673  1.2252  0.2731  0.3481
 1829SOL    HW2 7356   8.124   3.345   7.704 -2.4087 -0.1631 -1.8371
 1830SOL     OW 7357   0.147   3.646   4.867  0.1477 -0.0697  0.1104
 1830SOL    HW1 7358   0.180   3.592   4.796  0.1794  0.6944 -0.4746
 1830SOL    HW2 7359   0.099   3.717   4.823  0.4375  0.5936  0.8255
 1831SOL     OW 7360   8.574   7.053   0.845  0.3437  0.5908  0.1717
 1831SOL    HW1 7361   8.492   7.004   0.841 -0.3648  1.6257  1.4767
 1831SOL    HW2 7362   8.632   6.997   0.896 -0.0787  0.5604  0.6305
 1832SOL     OW 7363   8.316   6.540   8.218  0.4871 -0.0028  0.2020
 1832SOL    HW1 7364   8.248   6.514   8.156 -0.5531 -0.0872  1.3487
 1832SOL    HW2 7365   8.357   6.616   8.178 -1.5544  1.2302  0.3359
 1833SOL     OW 7366   3.563   6.702   4.302  0.4451  0.4430  0.1903
 1833SOL    HW1 7367   3.559   6.718   4.396  1.5197  0.5888  0.2259
 1833SOL    HW2 7368   3.471   6.691   4.276 -0.0218  2.1283  0.9454
 1834SOL     OW 7369   8.102   7.110   0.262 -0.2214  0.2197  0.1162
 1834SOL    HW1 7370   8.148   7.098   0.346 -0.7826  0.0112  0.4040
 1834SOL    HW2 7371   8.070   7.022   0.241  1.7351 -0.1769 -1.4122
 1835SOL     OW 7372   5.220   5.470   4.653  0.0570 -0.1598  0.0399
 1835SOL    HW1 7373   5.127   5.447   4.653  0.0605 -0.3048 -1.7339
 1835SOL    HW2 7374   5.224   5.557   4.693 -0.8554 -0.0754 -0.0392
 1836SOL     OW 7375   7.723   2.620   6.025 -0.0338  0.0380  0.0315
 1836SOL    HW1 7376   7.768   2.581   6.101 -0.0934  0.0250  0.0600
 1836SOL    HW2 7377   7.635   2.582   6.027 -0.4446  0.9924  0.6759
 1837SOL     OW 7378   8.703   0.392   8.007  0.3948  0.6442  0.2860
 1837SOL    HW1 7379   8.774   0.455   7.995  1.2857  0.1821  2.5694
 1837SOL    HW2 7380   8.671   0.375   7.919  2.9558  1.0450 -0.8139
 1838SOL     OW 7381   1.686   7.638   1.444 -0.2379  0.2881 -0.3918
 1838SOL    HW1 7382   1.611   7.585   1.470 -0.9530  0.4234 -2.0587
 1838SOL    HW2 7383   1.647   7.715   1.402  0.8188  0.8448 -0.3722
 1839SOL     OW 7384   7.621   7.455   8.352 -0.0675  0.5045 -0.1636
 1839SOL    HW1 7385   7.684   7.383   8.346  0.8185  1.1686  0.6880
 1839SOL    HW2 7386   7.585   7.464   8.264  0.5501 -0.3231 -0.5083
 1840SOL     OW 7387   0.024   7.340   2.899 -0.8387 -0.1146  0.6440
 1840SOL    HW1 7388   0.060   7.352   2.987  1.5449  1.7951 -0.5068
 1840SOL    HW2 7389  -0.054   7.396   2.897 -0.2457  0.7435  1.1814
 1841SOL     OW 7390   0.348   4.666   4.386 -0.7729  0.5806 -0.6085
 1841SOL    HW1 7391   0.426   4.675   4.441 -0.8911 -2.2955  0.1742
 1841SOL    HW2 7392   0.381   4.636   4.302 -0.9880 -1.1957 -0.1068
 1842SOL     OW 7393   8.931   5.644   3.956 -0.0044  0.7949  0.1158
 1842SOL    HW1 7394   8.912   5.572   3.895 -0.8921 -0.8504  2.2155
 1842SOL    HW2 7395   9.013   5.619   3.997  0.0031  1.3171  0.4228
 1843SOL     OW 7396   1.128   6.306   1.202 -0.2225  0.1708 -0.0374
 1843SOL    HW1 7397   1.093   6.237   1.258  0.8017 -1.4076 -1.2528
 1843SOL    HW2 7398   1.134   6.383   1.259  1.7584 -1.6037  2.3288
 1844SOL     OW 7399   3.859   8.686   5.506 -0.2029 -0.3419  0.2506
 1844SOL    HW1 7400   3.808   8.762   5.476 -0.7255 -0.1917  1.4533
 1844SOL    HW2 7401   3.891   8.646   5.426  0.3724  1.3366 -0.4069
 1845SOL     OW 7402   7.382   0.248   1.397  0.0721 -0.4228 -0.2453
 1845SOL    HW1 7403   7.342   0.205   1.321  1.8744 -1.0074 -0.9005
 1845SOL    HW2 7404   7.471   0.214   1.400  0.3348  0.3382  1.5727
 1846SOL     OW 7405   8.637   4.340   8.948  1.0102  0.3610 -0.1075
 1846SOL    HW1 7406   8.656   4.248   8.934  1.3437  0.2674  0.8532
 1846SOL    HW2 7407   8.550   4.353   8.911  0.0194 -0.8585  1.6368
 1847SOL     OW 7408   2.939   4.563   0.713  0.3782  0.3575 -0.3932
 1847SOL    HW1 7409   2.952   4.484   0.764 -0.5302 -0.7545 -1.8311
 1847SOL    HW2 7410   2.854   4.597   0.741  1.6469  2.0582  1.7313
 1848SOL     OW 7411   8.209   8.293   0.107  0.5850  0.4744 -0.9517
 1848SOL    HW1 7412   8.238   8.202   0.094 -1.4677 -0.4349  0.3243
 1848SOL    HW2 7413   8.167   8.316   0.024 -2.2891 -1.2103 -0.1227
 1849SOL     OW 7414   5.495   3.651   2.815  0.1853 -0.0555  0.3033
 1849SOL    HW1 7415   5.586   3.679   2.814 -0.2379  1.4067 -0.3914
 1849SOL    HW2 7416   5.495   3.570   2.865  1.9772 -0.4896 -0.3244
 1850SOL     OW 7417   1.088   3.080   2.217  0.1988  0.8488 -0.2638
 1850SOL    HW1 7418   1.162   3.022   2.197  0.1028  0.8685 -0.6853
 1850SOL    HW2 7419   1.092   3.147   2.149 -2.2059 -0.9670 -2.3957
 1851SOL     OW 7420   7.688   6.039   7.798  0.1555 -0.0147  0.3445
 1851SOL    HW1 7421   7.762   6.042   7.859  0.0543  1.4421  0.4477
 1851SOL    HW2 7422   7.619   5.994   7.846  0.5646 -0.2420  0.7308
 1852SOL     OW 7423   3.025   1.400   8.417 -0.0564  0.6289  0.0073
 1852SOL    HW1 7424   2.972   1.391   8.497  0.0582 -0.4624 -0.0304
 1852SOL    HW2 7425   2.967   1.372   8.347  0.4714 -0.2927 -0.0673
 1853SOL     OW 7426   5.731   0.589   8.680 -0.0052 -0.4560  0.4902
 1853SOL    HW1 7427   5.758   0.497   8.683  3.1631  0.3032 -0.7169
 1853SOL    HW2 7428   5.760   0.625   8.764 -1.4142 -0.5430  1.0437
 1854SOL     OW 7429   0.562   8.182   1.147 -0.2267  0.3191 -0.2295
 1854SOL    HW1 7430   0.550   8.114   1.212 -0.4949 -1.1719 -1.7766
 1854SOL    HW2 7431   0.480   8.185   1.098  0.2326  0.8552 -1.0041
 1855SOL     OW 7432   3.573   8.590   6.234 -0.0757  0.9927 -0.1270
 1855SOL    HW1 7433   3.581   8.626   6.146  0.0686  2.2742  0.3877
 1855SOL    HW2 7434   3.649   8.623   6.281 -0.3767  0.6868  0.6004
 1856SOL     OW 7435   5.833   1.392   0.692 -0.2330 -0.0553  0.6773
 1856SOL    HW1 7436   5.744   1.394   0.727 -0.4165 -0.9517  0.2832
 1856SOL    HW2 7437   5.836   1.313   0.639 -0.0064  1.3082 -1.4716
 1857SOL     OW 7438   8.977   2.223   1.729  0.3624  0.0382  0.3930
 1857SOL    HW1 7439   8.961   2.183   1.815  0.0760  0.4515  0.5373
 1857SOL    HW2 7440   8.935   2.309   1.735 -1.0090 -0.5205 -0.6762
 1858SOL     OW 7441   7.110   2.141   6.845 -0.3104 -0.1935 -0.1447
 1858SOL    HW1 7442   7.164   2.109   6.773 -0.2356  0.3456 -0.3356
 1858SOL    HW2 7443   7.054   2.208   6.805  0.2743  0.6675  0.4407
 1859SOL     OW 7444   2.287   0.508   3.226  0.2387 -0.2544 -0.2864
 1859SOL    HW1 7445   2.279   0.497   3.321  2.2204 -0.3086 -0.0917
 1859SOL    HW2 7446   2.380   0.498   3.208 -0.2742 -1.8352 -2.4666
 1860SOL     OW 7447   4.274   6.455   4.609 -0.2774  0.7486  0.1702
 1860SOL    HW1 7448   4.194   6.407   4.589  0.3145 -0.4881  0.6845
 1860SOL    HW2 7449   4.299   6.496   4.526 -0.5195 -0.2467 -0.4031
 1861SOL     OW 7450   7.513   4.405   0.229 -0.0065  0.1687  0.0670
 1861SOL    HW1 7451   7.564   4.335   0.270  0.4041  0.0841 -0.5741
 1861SOL    HW2 7452   7.573   4.480   0.227  0.5138 -0.2471 -1.7097
 1862SOL     OW 7453   4.416   4.621   7.424 -0.4649 -0.3339 -0.0230
 1862SOL    HW1 7454   4.504   4.608   7.459 -0.6176  0.8205  0.8563
 1862SOL    HW2 7455   4.420   4.589   7.334  1.5817  2.0527 -0.8804
 1863SOL     OW 7456   7.212   4.148   0.014 -0.5434 -0.0266  0.2170
 1863SOL    HW1 7457   7.136   4.091   0.002 -0.7918  0.2350  0.5186
 1863SOL    HW2 7458   7.174   4.232   0.041 -0.2516  0.5741 -1.1686
 1864SOL     OW 7459   8.939   1.130   6.619 -0.0779  0.1470 -0.4872
 1864SOL    HW1 7460   8.964   1.195   6.685  1.5465 -0.5080 -0.4291
 1864SOL    HW2 7461   8.875   1.176   6.564  0.3288  1.4820  0.1109
 1865SOL     OW 7462   8.725   8.928   8.926 -0.0174 -0.1173 -0.5020
 1865SOL    HW1 7463   8.724   8.841   8.885  0.9408 -1.2435  1.7123
 1865SOL    HW2 7464   8.666   8.919   9.001  1.9137  0.3749  1.1430
 1866SOL     OW 7465   4.413   0.605   4.158 -0.2953  0.1268  0.0756
 1866SOL    HW1 7466   4.402   0.521   4.201 -0.3581 -0.2474 -0.6578
 1866SOL    HW2 7467   4.456   0.660   4.224 -0.0431 -0.5416  0.4802
 1867SOL     OW 7468   5.985   0.618   1.154  0.8529 -0.3019  0.7093
 1867SOL    HW1 7469   6.074   0.647   1.137  0.9709  0.2202  2.1071
 1867SOL    HW2 7470   5.970   0.638   1.246 -0.9215  0.1819  0.3600
 1868SOL     OW 7471   5.345   1.171   6.575 -0.0891 -0.2281 -0.7518
 1868SOL    HW1 7472   5.381   1.159   6.663 -0.1678  0.1282 -0.6688
 1868SOL    HW2 7473   5.365   1.089   6.530  0.5250 -0.1672 -0.6033
 1869SOL     OW 7474   5.703   2.550   2.846 -0.8828  0.8464 -0.1425
 1869SOL    HW1 7475   5.773   2.564   2.910 -1.4956  1.8430  0.3276
 1869SOL    HW2 7476   5.684   2.457   2.851 -1.5979  1.0558  1.8557
 1870SOL     OW 7477   4.017   0.019   4.345  0.3650 -0.2828 -0.3952
 1870SOL    HW1 7478   4.105  -0.003   4.313  0.8915 -1.4095  1.6897
 1870SOL    HW2 7479   3.986  -0.061   4.387 -1.8479 -0.0123 -1.3903
 1871SOL     OW 7480   3.760   0.496   4.584  0.2689 -0.4603  0.8771
 1871SOL    HW1 7481   3.812   0.421   4.555  0.4474 -0.7972  2.0374
 1871SOL    HW2 7482   3.680   0.492   4.531 -0.3034 -2.2424  1.7933
 1872SOL     OW 7483   1.936   1.888   0.117  0.6279 -0.1361 -0.0430
 1872SOL    HW1 7484   1.918   1.964   0.062  1.7747  0.4132  0.3094
 1872SOL    HW2 7485   1.991   1.832   0.062  0.2501 -0.4509 -0.1032
 1873SOL     OW 7486   5.332   1.308   2.380 -0.0958 -0.1331  0.2493
 1873SOL    HW1 7487   5.263   1.333   2.318 -0.6542  0.5745  1.1332
 1873SOL    HW2 7488   5.309   1.353   2.461  1.8047  0.7036  0.3711
 1874SOL     OW 7489   7.060   2.039   1.941 -1.1589 -0.0844 -0.1387
 1874SOL    HW1 7490   7.023   1.957   1.907 -0.3525 -1.1854  1.4913
 1874SOL    HW2 7491   7.153   2.019   1.956 -1.0038  1.0409  0.5202
 1875SOL     OW 7492   4.992   3.977   3.173  0.5749  0.2900 -0.3851
 1875SOL    HW1 7493   4.938   4.022   3.110  0.3805 -0.0578 -0.4719
 1875SOL    HW2 7494   4.998   3.887   3.140  0.4169  0.0886  0.1174
 1876SOL     OW 7495   1.533   2.779   1.109 -0.3931 -0.3838 -0.2094
 1876SOL    HW1 7496   1.543   2.874   1.121  0.5379 -0.5021  0.0574
 1876SOL    HW2 7497   1.463   2.770   1.045  1.6607  0.6071 -2.7591
 1877SOL     OW 7498   3.912   3.261   6.510 -0.2327  0.0027  0.5340
 1877SOL    HW1 7499   3.885   3.174   6.539  0.0470  0.3550  1.9247
 1877SOL    HW2 7500   3.876   3.269   6.421 -1.9384 -0.7814  1.1020
 1878SOL     OW 7501   1.926   3.254   3.815 -0.0617  0.1542  0.1725
 1878SOL    HW1 7502   1.972   3.221   3.738 -0.2628  0.2355  0.0158
 1878SOL    HW2 7503   1.891   3.176   3.857  0.5530  0.0564  0.5113
 1879SOL     OW 7504   5.223   3.160   1.053 -0.4742  0.3367  0.5054
 1879SOL    HW1 7505   5.209   3.211   0.973  0.5746 -0.2462 -0.0630
 1879SOL    HW2 7506   5.134   3.142   1.084 -0.9662 -0.5668 -1.2709
 1880SOL     OW 7507   5.278   5.369   4.393  0.2705  0.5848 -0.0305
 1880SOL    HW1 7508   5.255   5.395   4.482  1.1652 -0.7754  0.6200
 1880SOL    HW2 7509   5.243   5.440   4.338  0.5224  1.9165  1.4575
 1881SOL     OW 7510   6.386   7.251   1.233 -0.3828 -0.0251 -0.2470
 1881SOL    HW1 7511   6.474   7.214   1.243 -0.4364  0.2976  1.6416
 1881SOL    HW2 7512   6.401   7.343   1.213 -0.2602  0.4876  2.0175
 1882SOL     OW 7513   4.361   2.746   6.453 -0.5959 -0.3191  0.2718
 1882SOL    HW1 7514   4.357   2.793   6.370  0.6813  0.7548  0.7843
 1882SOL    HW2 7515   4.312   2.800   6.515  0.3695  0.0644  0.7243
 1883SOL     OW 7516   7.316   7.287   1.083 -0.1205 -0.2363 -0.2936
 1883SOL    HW1 7517   7.322   7.367   1.031 -0.0839 -0.0532 -0.0088
 1883SOL    HW2 7518   7.391   7.291   1.143 -1.0079  0.2900  0.8021
 1884SOL     OW 7519   0.603   6.208   0.695 -0.3643 -0.6116 -0.4561
 1884SOL    HW1 7520   0.685   6.255   0.702  0.4905 -1.5787 -2.8795
 1884SOL    HW2 7521   0.558   6.248   0.621 -0.5269 -2.2088 -1.2760
 1885SOL     OW 7522   2.100   0.030   8.206  0.3951 -0.2704 -0.5904
 1885SOL    HW1 7523   2.005   0.031   8.190  0.2201  1.1788  0.3112
 1885SOL    HW2 7524   2.110  -0.024   8.285  0.3078 -0.3484 -0.6323
 1886SOL     OW 7525   7.653   6.199   5.483  0.3280 -0.3952 -0.7148
 1886SOL    HW1 7526   7.671   6.184   5.390 -1.4962  0.4440 -1.2568
 1886SOL    HW2 7527   7.570   6.154   5.499 -0.8165  1.7358 -0.2347
 1887SOL     OW 7528   6.048   2.326   4.948  0.3893  0.0165  0.2170
 1887SOL    HW1 7529   5.986   2.366   5.010  0.6610  0.3332  0.2855
 1887SOL    HW2 7530   6.124   2.384   4.950  0.1308  0.4355 -0.9363
 1888SOL     OW 7531   7.675   3.600   1.593 -0.1468 -0.7213 -0.2603
 1888SOL    HW1 7532   7.700   3.608   1.685  1.0942  1.6788 -0.7217
 1888SOL    HW2 7533   7.582   3.620   1.592 -0.8269 -3.4047  0.7224
 1889SOL     OW 7534   2.213   7.758   7.847 -0.1544  0.3643  0.1659
 1889SOL    HW1 7535   2.173   7.671   7.845  1.7838 -0.6188  1.1063
 1889SOL    HW2 7536   2.271   7.755   7.923 -0.2965  2.6311  0.4207
 1890SOL     OW 7537   4.541   8.404   7.722  0.6068  0.3322  0.3928
 1890SOL    HW1 7538   4.598   8.464   7.770 -1.6246  1.9299  1.2616
 1890SOL    HW2 7539   4.470   8.460   7.689 -0.2571 -1.4594 -0.9652
 1891SOL     OW 7540   7.938   2.076   2.385 -0.3319  0.1593  0.9097
 1891SOL    HW1 7541   8.005   2.007   2.385 -1.7644 -1.2807 -0.1346
 1891SOL    HW2 7542   7.911   2.084   2.294 -2.2543  0.0348  1.4299
 1892SOL     OW 7543   3.086   7.816   8.880 -0.4602 -0.2670  0.0972
 1892SOL    HW1 7544   3.156   7.861   8.834  0.0667  0.5782  1.6549
 1892SOL    HW2 7545   3.084   7.728   8.842  1.3333 -0.2573 -0.0715
 1893SOL     OW 7546   3.273   3.139   1.551 -0.4766  0.1177 -0.2214
 1893SOL    HW1 7547   3.210   3.128   1.622 -0.0882 -2.4541 -0.1739
 1893SOL    HW2 7548   3.341   3.197   1.587  0.1115 -1.7136  1.8690
 1894SOL     OW 7549   8.379   7.448   8.955  0.2304  0.3334  0.5719
 1894SOL    HW1 7550   8.460   7.423   9.000  0.6286  0.4472 -0.0657
 1894SOL    HW2 7551   8.312   7.392   8.994  1.0477 -1.5972 -0.6268
 1895SOL     OW 7552   3.938   4.955   7.633  0.5723 -0.0105  0.4188
 1895SOL    HW1 7553   3.944   4.879   7.575 -1.8556 -0.1107  0.1934
 1895SOL    HW2 7554   3.967   5.029   7.580  2.1372 -0.6409  0.3634
 1896SOL     OW 7555   7.640   6.591   0.403  0.5804 -0.0934 -0.0807
 1896SOL    HW1 7556   7.560   6.581   0.454  0.6948  1.1101  0.3701
 1896SOL    HW2 7557   7.662   6.502   0.375 -0.7512 -0.4746  0.0186
 1897SOL     OW 7558   7.962   7.309   1.212  0.7429  0.9882  0.1441
 1897SOL    HW1 7559   7.947   7.401   1.234 -1.5277  0.9053 -0.8238
 1897SOL    HW2 7560   7.982   7.267   1.296 -0.0838  2.0238  0.8821
 1898SOL     OW 7561   2.760   6.144   4.547  0.2002  0.3396  0.0785
 1898SOL    HW1 7562   2.817   6.080   4.504 -1.3706 -0.6463 -0.6307
 1898SOL    HW2 7563   2.796   6.153   4.635  0.5270 -1.4850  0.1817
 1899SOL     OW 7564   1.954   5.666   6.261 -0.2065  0.0815 -0.1779
 1899SOL    HW1 7565   2.050   5.660   6.261  0.0371  2.5129  1.7589
 1899SOL    HW2 7566   1.929   5.648   6.352 -1.1727  3.0966  0.2635
 1900SOL     OW 7567   0.892   0.685   7.321  0.2150  0.6113  0.2212
 1900SOL    HW1 7568   0.799   0.688   7.299  0.1016  2.1302  0.7922
 1900SOL    HW2 7569   0.895   0.646   7.408  0.4002 -2.2784 -0.9803
 1901SOL     OW 7570   3.270   8.648   0.082 -0.0255 -0.1916  0.2192
 1901SOL    HW1 7571   3.183   8.687   0.083  0.7048  1.6931 -1.5528
 1901SOL    HW2 7572   3.261   8.570   0.027 -0.5644  0.0905 -0.1002
 1902SOL     OW 7573   3.178   5.984   8.063  0.3475 -0.3111 -0.2864
 1902SOL    HW1 7574   3.124   6.002   8.140  0.6587  1.2153 -0.3854
 1902SOL    HW2 7575   3.189   5.889   8.062 -0.7551 -0.4704  0.7980
 1903SOL     OW 7576   3.337   0.401   0.269 -0.2965 -0.2248  0.7209
 1903SOL    HW1 7577   3.420   0.422   0.225 -1.6710 -1.2467 -2.7087
 1903SOL    HW2 7578   3.293   0.485   0.278  0.1982  0.0586  0.5524
 1904SOL     OW 7579   1.514   1.419   0.124 -0.4660  0.2833 -0.3300
 1904SOL    HW1 7580   1.551   1.490   0.177  0.8055 -0.0009 -0.8097
 1904SOL    HW2 7581   1.448   1.462   0.070  0.0266  1.0443 -0.3468
 1905SOL     OW 7582   7.388   2.614   8.587  0.0688  0.5683  0.3374
 1905SOL    HW1 7583   7.322   2.629   8.655 -0.5401 -0.8616  0.1164
 1905SOL    HW2 7584   7.363   2.529   8.549 -0.4086  1.8944 -2.5862
 1906SOL     OW 7585   6.502   7.917   4.848  0.0189  0.2760 -0.5162
 1906SOL    HW1 7586   6.459   7.990   4.893  0.4131  0.7414 -0.8828
 1906SOL    HW2 7587   6.566   7.958   4.790 -1.2105 -0.2118 -2.3217
 1907SOL     OW 7588   4.353   7.807   8.191 -0.2284 -0.0875  0.2617
 1907SOL    HW1 7589   4.385   7.803   8.101 -2.1855 -1.6232 -0.4534
 1907SOL    HW2 7590   4.409   7.747   8.240  0.6589  0.5310  0.0172
 1908SOL     OW 7591   2.538   0.456   3.655  0.1060  0.1936  0.0749
 1908SOL    HW1 7592   2.530   0.501   3.739 -2.3389  1.3472 -0.6789
 1908SOL    HW2 7593   2.615   0.496   3.614 -1.0565  2.6535  0.1182
 1909SOL     OW 7594   2.849   2.294   8.503  0.5960  0.0619 -0.3427
 1909SOL    HW1 7595   2.847   2.339   8.587 -0.8449 -1.6715  0.6098
 1909SOL    HW2 7596   2.932   2.246   8.503  1.1569  1.0157 -0.4575
 1910SOL     OW 7597   3.738   0.326   5.879  0.1256  0.1887  0.0147
 1910SOL    HW1 7598   3.798   0.289   5.944 -0.1334  0.4909  0.4380
 1910SOL    HW2 7599   3.759   0.420   5.879 -0.3183  0.2919  0.1438
 1911SOL     OW 7600   8.444   1.587   4.628 -0.2027  0.9918 -0.2235
 1911SOL    HW1 7601   8.460   1.681   4.617  1.9359  0.4941 -2.4412
 1911SOL    HW2 7602   8.511   1.545   4.574 -2.5382 -1.7806 -1.2486
 1912SOL     OW 7603   6.394   3.458   4.537  0.1581  0.2083  0.4777
 1912SOL    HW1 7604   6.420   3.425   4.623  0.6587 -1.1130 -0.1524
 1912SOL    HW2 7605   6.453   3.532   4.522  2.7181 -1.8106 -0.2733
 1913SOL     OW 7606   4.800   0.886   0.368  0.2163  0.1910 -0.5114
 1913SOL    HW1 7607   4.812   0.869   0.462 -3.2464 -3.5492 -0.4782
 1913SOL    HW2 7608   4.848   0.814   0.326 -0.6065  0.1810 -1.4421
 1914SOL     OW 7609   6.587   3.752   6.471 -0.2253 -0.0062  0.8543
 1914SOL    HW1 7610   6.670   3.704   6.477  0.2070  0.9081  3.6483
 1914SOL    HW2 7611   6.528   3.705   6.529 -0.7189  1.1048  1.2723
 1915SOL     OW 7612   5.128   4.921   8.116 -0.4618  0.0021  0.0015
 1915SOL    HW1 7613   5.147   5.007   8.154  2.0993  0.4112 -1.9532
 1915SOL    HW2 7614   5.160   4.859   8.182  0.6442  0.6233  0.0768
 1916SOL     OW 7615   8.379   3.567   7.765 -0.4817 -0.0654  0.0732
 1916SOL    HW1 7616   8.335   3.550   7.848 -1.2737 -0.1446 -0.3560
 1916SOL    HW2 7617   8.385   3.663   7.761  2.5709 -0.0772  1.7568
 1917SOL     OW 7618   6.561   5.133   8.716  0.0173 -0.3585 -0.4659
 1917SOL    HW1 7619   6.497   5.127   8.645 -0.2203 -0.9781 -0.2063
 1917SOL    HW2 7620   6.509   5.157   8.793  0.2836  0.3688 -0.5134
 1918SOL     OW 7621   6.638   2.344   4.175  0.0519  0.1006  0.2918
 1918SOL    HW1 7622   6.673   2.430   4.149 -0.0358  0.5620  1.5853
 1918SOL    HW2 7623   6.706   2.282   4.150  0.1932  0.5658 -0.5063
 1919SOL     OW 7624   6.112   8.724   5.098 -0.9065  0.2193 -0.1846
 1919SOL    HW1 7625   6.151   8.732   5.010 -0.8843  0.3278 -0.1654
 1919SOL    HW2 7626   6.186   8.738   5.158 -0.7360 -0.7907 -0.1493
 1920SOL     OW 7627   7.142   3.421   5.710 -0.1953 -0.7014  0.1070
 1920SOL    HW1 7628   7.195   3.420   5.790 -0.3220 -0.0814  0.2025
 1920SOL    HW2 7629   7.077   3.490   5.724  0.9329  0.7356 -1.2415
 1921SOL     OW 7630   0.329   8.661   0.182  0.0748  0.0476 -0.1359
 1921SOL    HW1 7631   0.354   8.571   0.206 -0.2510 -0.2737 -0.9843
 1921SOL    HW2 7632   0.341   8.664   0.087 -1.0003  0.5640 -0.2577
 1922SOL     OW 7633   8.128   0.062   5.234 -0.2954  0.5048  0.2861
 1922SOL    HW1 7634   8.041   0.025   5.250 -0.5207  1.4975  1.5120
 1922SOL    HW2 7635   8.163   0.079   5.321  0.7748  0.9307 -0.2100
 1923SOL     OW 7636   5.054   1.137   8.930 -0.1214  0.0409 -0.1788
 1923SOL    HW1 7637   5.129   1.170   8.981  0.1457  1.7909 -1.6132
 1923SOL    HW2 7638   5.094   1.081   8.863  0.0370  1.5683 -1.4141
 1924SOL     OW 7639   3.427   2.481   0.143 -0.4001  0.4131  0.2138
 1924SOL    HW1 7640   3.388   2.460   0.228 -1.1840  0.5638 -0.0981
 1924SOL    HW2 7641   3.386   2.564   0.118  0.5382  0.8556  0.1231
 1925SOL     OW 7642   0.088   6.737   1.380 -1.1796 -0.2809 -0.2634
 1925SOL    HW1 7643   0.002   6.776   1.390 -0.5035  1.4052 -0.6429
 1925SOL    HW2 7644   0.136   6.763   1.459 -1.0534 -1.3248  0.0155
 1926SOL     OW 7645   2.713   5.673   0.113  0.0638  0.0836  0.4214
 1926SOL    HW1 7646   2.753   5.680   0.199 -1.6531  0.0125  1.2742
 1926SOL    HW2 7647   2.747   5.592   0.076  0.5640 -0.0546  1.1752
 1927SOL     OW 7648   6.300   6.004   4.594 -0.2045  0.1324 -0.6199
 1927SOL    HW1 7649   6.390   6.026   4.617  0.1610  0.6437 -2.4196
 1927SOL    HW2 7650   6.299   5.909   4.587  0.4662  0.1920 -1.6068
 1928SOL     OW 7651   2.772   4.293   5.242 -0.3905  0.1780 -0.5877
 1928SOL    HW1 7652   2.763   4.350   5.165 -0.0806 -0.3411 -1.0131
 1928SOL    HW2 7653   2.855   4.247   5.228 -1.3990 -1.5691 -1.0522
 1929SOL     OW 7654   6.930   5.870   3.222 -0.0770  0.0315 -0.3810
 1929SOL    HW1 7655   6.983   5.879   3.144  0.9232  0.5980  0.3438
 1929SOL    HW2 7656   6.873   5.947   3.221  0.2526  0.2785 -0.3192
 1930SOL     OW 7657   5.798   7.438   2.512  0.0745 -0.3718  0.1462
 1930SOL    HW1 7658   5.765   7.442   2.602 -2.4579  3.6710 -0.6863
 1930SOL    HW2 7659   5.891   7.459   2.521 -0.3905  1.3195  1.8139
 1931SOL     OW 7660   4.239   7.262   2.130 -0.5967  0.1352 -0.5515
 1931SOL    HW1 7661   4.281   7.301   2.207 -1.8051  0.7461 -0.1702
 1931SOL    HW2 7662   4.215   7.337   2.076 -1.5243 -0.1688 -0.5695
 1932SOL     OW 7663   6.602   3.172   0.319 -0.0813 -0.0377 -0.8129
 1932SOL    HW1 7664   6.676   3.134   0.365 -0.9056  0.0797  0.6977
 1932SOL    HW2 7665   6.583   3.111   0.247  0.4639 -0.9086 -0.2277
 1933SOL     OW 7666   2.149   5.140   2.274  0.4673  0.3654 -0.8265
 1933SOL    HW1 7667   2.146   5.108   2.364 -0.0656  0.3100 -0.8596
 1933SOL    HW2 7668   2.150   5.236   2.283 -1.3292  0.4100 -0.7788
 1934SOL     OW 7669   8.183   4.678   5.256  0.0838 -0.4213 -0.1969
 1934SOL    HW1 7670   8.239   4.608   5.222  0.3358 -0.5918  0.5426
 1934SOL    HW2 7671   8.107   4.632   5.292 -0.2949 -0.2269 -0.7492
 1935SOL     OW 7672   8.880   0.366   5.610 -0.5671 -0.7482  0.3658
 1935SOL    HW1 7673   8.948   0.365   5.543 -1.5443 -1.0112 -0.6527
 1935SOL    HW2 7674   8.913   0.309   5.679  2.7506  3.2762  2.5665
 1936SOL     OW 7675   8.238   1.045   2.226 -0.0384 -0.0458  0.0907
 1936SOL    HW1 7676   8.259   0.952   2.233 -1.6537 -0.4416  0.1876
 1936SOL    HW2 7677   8.231   1.074   2.317 -0.6774 -0.1345  0.0779
 1937SOL     OW 7678   1.434   5.130   6.452 -0.3499  0.1219 -0.7314
 1937SOL    HW1 7679   1.522   5.099   6.473 -0.9531  0.1021  2.1201
 1937SOL    HW2 7680   1.431   5.220   6.485 -3.2368 -1.7924  5.9663
 1938SOL     OW 7681   8.268   1.747   1.371 -0.1905  0.1902 -0.1164
 1938SOL    HW1 7682   8.176   1.733   1.348 -0.5513 -0.7429  1.6449
 1938SOL    HW2 7683   8.265   1.776   1.463  1.3036 -0.6525  0.2274
 1939SOL     OW 7684   5.618   5.033   3.674 -0.0836  0.4824  0.3835
 1939SOL    HW1 7685   5.664   4.973   3.733  2.1368  0.8109 -0.9264
 1939SOL    HW2 7686   5.525   5.015   3.691  0.4851 -2.0566  1.2966
 1940SOL     OW 7687   0.124   4.160   8.696 -0.1626  0.3126  0.7154
 1940SOL    HW1 7688   0.185   4.100   8.653 -0.1219 -0.1632  1.4380
 1940SOL    HW2 7689   0.168   4.245   8.690  0.6890 -0.0607  1.4309
 1941SOL     OW 7690   3.601   0.409   1.358  0.0087  0.1183 -0.2115
 1941SOL    HW1 7691   3.639   0.496   1.343 -0.8619  0.5276 -0.1365
 1941SOL    HW2 7692   3.560   0.387   1.275  0.3583 -0.2962 -0.2758
 1942SOL     OW 7693   7.608   4.585   7.658 -0.7380  0.5591 -0.4199
 1942SOL    HW1 7694   7.551   4.629   7.595 -0.5258 -2.4495 -2.9821
 1942SOL    HW2 7695   7.599   4.492   7.637  2.0950 -0.3468  1.7233
 1943SOL     OW 7696   7.541   1.927   7.304 -0.3283  0.9426 -0.3559
 1943SOL    HW1 7697   7.530   1.899   7.395 -0.3293  0.0886 -0.6135
 1943SOL    HW2 7698   7.536   1.846   7.253  0.5181  1.3134 -1.0478
 1944SOL     OW 7699   6.241   2.428   8.765  0.7241  0.5924 -0.0508
 1944SOL    HW1 7700   6.280   2.441   8.851  0.5327  0.4577  0.0585
 1944SOL    HW2 7701   6.152   2.398   8.784  1.1664 -0.9336 -0.2866
 1945SOL     OW 7702   4.305   3.975   0.972  0.2486  0.0397  0.1861
 1945SOL    HW1 7703   4.217   4.003   0.947 -0.2559 -0.8486  0.9374
 1945SOL    HW2 7704   4.326   4.026   1.050 -0.0708 -0.5747  0.6801
 1946SOL     OW 7705   5.323   5.465   2.955  0.2383  0.4223 -0.2922
 1946SOL    HW1 7706   5.384   5.462   3.029  0.2405  1.5243 -0.2284
 1946SOL    HW2 7707   5.240   5.433   2.991  0.6749 -0.7588 -0.2930
 1947SOL     OW 7708   2.281   1.874   2.334 -0.5739  0.1239 -0.2385
 1947SOL    HW1 7709   2.316   1.963   2.326 -1.8185  0.4644 -2.9981
 1947SOL    HW2 7710   2.188   1.883   2.312 -1.3676 -1.4959  2.1057
 1948SOL     OW 7711   4.732   1.813   8.700  0.0206  0.2560  0.6080
 1948SOL    HW1 7712   4.821   1.804   8.666 -0.6655 -2.0414 -0.8066
 1948SOL    HW2 7713   4.678   1.826   8.621 -1.1063 -0.4795  1.2286
 1949SOL     OW 7714   7.577   5.816   0.880 -0.1909 -0.0742 -0.0318
 1949SOL    HW1 7715   7.548   5.749   0.818  0.5134 -0.5891  0.1851
 1949SOL    HW2 7716   7.533   5.896   0.851  1.5848  0.1424 -2.3392
 1950SOL     OW 7717   3.500   2.641   3.074  0.2009  0.2162  0.1189
 1950SOL    HW1 7718   3.466   2.554   3.052 -0.8004  0.4464  0.6565
 1950SOL    HW2 7719   3.580   2.650   3.023 -0.1129 -0.7028 -0.5583
 1951SOL     OW 7720   1.034   4.352   5.218 -0.4197 -0.1069 -0.2437
 1951SOL    HW1 7721   1.007   4.362   5.309 -0.6779 -0.7378 -0.2507
 1951SOL    HW2 7722   1.130   4.352   5.221 -0.4093  0.8908 -0.0888
 1952SOL     OW 7723   3.535   5.693   6.426 -0.1914 -0.3355  0.5525
 1952SOL    HW1 7724   3.516   5.634   6.354 -0.7646 -1.5299  1.6408
 1952SOL    HW2 7725   3.449   5.720   6.459  0.0620  0.1978  0.8015
 1953SOL     OW 7726   1.427   2.376   0.022 -0.2785 -0.5422 -0.4118
 1953SOL    HW1 7727   1.501   2.389   0.081 -1.5823  2.8920  0.6675
 1953SOL    HW2 7728   1.352   2.363   0.080 -0.8969 -1.9036 -1.4558
 1954SOL     OW 7729   6.781   2.418   0.449 -0.1247 -0.1868  0.4967
 1954SOL    HW1 7730   6.823   2.389   0.530 -0.5396 -0.6871  0.5311
 1954SOL    HW2 7731   6.849   2.406   0.382  0.6432  1.3545  0.9385
 1955SOL     OW 7732   3.466   1.330   3.273 -0.5405  0.2515 -0.1234
 1955SOL    HW1 7733   3.516   1.295   3.199  0.5275  1.1009  0.1812
 1955SOL    HW2 7734   3.523   1.396   3.312 -1.6609  0.8229  0.6027
 1956SOL     OW 7735   7.901   2.903   3.174 -0.1180  0.0213  0.0362
 1956SOL    HW1 7736   7.848   2.842   3.226  0.6725 -0.9962 -0.3220
 1956SOL    HW2 7737   7.967   2.935   3.236 -1.2203  1.4364  0.5343
 1957SOL     OW 7738   5.239   1.415   3.581 -0.3042  0.4593 -0.6600
 1957SOL    HW1 7739   5.253   1.380   3.493  0.3370 -0.2025 -0.3005
 1957SOL    HW2 7740   5.316   1.387   3.631 -0.0431  1.8772 -0.1986
 1958SOL     OW 7741   4.243   3.200   6.801  0.5030 -0.4437  0.1133
 1958SOL    HW1 7742   4.286   3.227   6.719 -0.5012 -1.3867 -0.7633
 1958SOL    HW2 7743   4.217   3.282   6.842  1.8326  0.0854 -0.0467
 1959SOL     OW 7744   7.357   0.290   1.115  0.1609 -0.5348  0.5229
 1959SOL    HW1 7745   7.364   0.272   1.021 -0.3097  0.8691  0.1963
 1959SOL    HW2 7746   7.433   0.344   1.135  0.1297 -0.6271  0.8900
 1960SOL     OW 7747   3.695   3.722   4.139 -0.5293 -0.1781 -0.1485
 1960SOL    HW1 7748   3.744   3.641   4.159 -0.3589 -0.1040 -0.2673
 1960SOL    HW2 7749   3.603   3.696   4.144 -0.4765 -0.7192 -1.5726
 1961SOL     OW 7750   8.501   2.041   8.981  0.4783  0.2319 -0.1373
 1961SOL    HW1 7751   8.476   1.979   8.913  1.2220 -0.9838  0.6807
 1961SOL    HW2 7752   8.427   2.040   9.042 -0.6012  1.9860 -1.2972
 1962SOL     OW 7753   0.919   7.388   6.319  0.0298 -0.2584 -0.2262
 1962SOL    HW1 7754   0.841   7.393   6.374  1.5906  0.4525  2.1027
 1962SOL    HW2 7755   0.962   7.473   6.330  0.8872 -0.4285 -1.8848
 1963SOL     OW 7756   3.182   3.080   3.017  0.2884  0.2357  0.3836
 1963SOL    HW1 7757   3.247   3.012   2.997  1.1657  0.3329  2.5599
 1963SOL    HW2 7758   3.133   3.044   3.091 -0.9701  0.9324 -0.0957
 1964SOL     OW 7759   7.573   7.896   2.645 -0.0642 -0.5097 -0.3652
 1964SOL    HW1 7760   7.665   7.918   2.654 -0.0437 -0.8731  0.3152
 1964SOL    HW2 7761   7.568   7.848   2.563  0.0173  1.2740 -1.4836
 1965SOL     OW 7762   7.863   6.690   1.836  0.3560 -0.2016  0.4650
 1965SOL    HW1 7763   7.907   6.630   1.775  1.3975  0.7157  0.2989
 1965SOL    HW2 7764   7.859   6.641   1.918  0.2466 -0.8998  0.0516
 1966SOL     OW 7765   6.510   1.541   8.665 -0.2501  0.0314 -0.0842
 1966SOL    HW1 7766   6.595   1.572   8.633 -0.1146 -0.7213 -0.4917
 1966SOL    HW2 7767   6.460   1.620   8.681  0.4990  0.4831  0.0721
 1967SOL     OW 7768   1.991   4.371   4.002  0.1525 -0.0423  0.1681
 1967SOL    HW1 7769   1.963   4.282   3.982 -1.5170  0.6394 -0.7327
 1967SOL    HW2 7770   2.012   4.370   4.095 -2.4496 -0.7932  0.8326
 1968SOL     OW 7771   5.867   8.472   7.078  0.5157 -0.0604  0.1256
 1968SOL    HW1 7772   5.778   8.448   7.052  0.2127  0.9816  0.1691
 1968SOL    HW2 7773   5.924   8.419   7.021 -0.1313 -0.3581 -0.2535
 1969SOL     OW 7774   7.263   3.195   1.149  0.0732 -0.1163  0.5323
 1969SOL    HW1 7775   7.257   3.286   1.121  0.7242  0.4398  2.0787
 1969SOL    HW2 7776   7.182   3.179   1.198 -0.1226 -0.4427  0.1130
 1970SOL     OW 7777   7.351   2.053   0.724 -0.9242  0.0350 -0.4333
 1970SOL    HW1 7778   7.421   2.003   0.682  0.5198 -0.2975  2.1544
 1970SOL    HW2 7779   7.302   2.092   0.651  1.0693 -0.9018 -2.3872
 1971SOL     OW 7780   5.276   6.977   6.224  0.1494  0.4110  0.1471
 1971SOL    HW1 7781   5.205   7.024   6.267  0.4067  2.2005 -1.2494
 1971SOL    HW2 7782   5.233   6.911   6.170 -0.5172  1.6555 -0.9002
 1972SOL     OW 7783   1.586   0.380   6.153  0.4240 -0.1277  0.2688
 1972SOL    HW1 7784   1.629   0.459   6.186  0.9154 -0.6864  0.9885
 1972SOL    HW2 7785   1.554   0.335   6.231 -0.5197 -0.2754 -0.1856
 1973SOL     OW 7786   4.676   8.552   3.093 -0.1204  0.2954  0.0321
 1973SOL    HW1 7787   4.600   8.609   3.105  1.0145  1.9396 -0.2249
 1973SOL    HW2 7788   4.751   8.607   3.117  1.0780 -0.8963 -0.8391
 1974SOL     OW 7789   1.869   3.224   1.693  0.1512 -0.0270 -0.2792
 1974SOL    HW1 7790   1.932   3.152   1.692 -0.1436 -0.3055 -1.7415
 1974SOL    HW2 7791   1.892   3.275   1.770  0.3452 -1.6897  0.8011
 1975SOL     OW 7792   4.499   4.550   4.717 -0.4298  0.0874  0.0015
 1975SOL    HW1 7793   4.494   4.479   4.654  1.6170 -0.8163  0.7805
 1975SOL    HW2 7794   4.539   4.622   4.668 -1.5327  0.3785 -0.4977
 1976SOL     OW 7795   5.370   8.689   4.599 -0.3509  0.7428 -0.8322
 1976SOL    HW1 7796   5.378   8.595   4.613 -0.3364  0.6057 -1.6743
 1976SOL    HW2 7797   5.310   8.719   4.667 -1.4092 -0.0920 -1.3671
 1977SOL     OW 7798   3.562   4.372   3.242 -0.2590  0.6564  0.6099
 1977SOL    HW1 7799   3.477   4.356   3.202 -0.5489  0.7737  1.1709
 1977SOL    HW2 7800   3.625   4.333   3.181 -0.7338  0.2839  0.3521
 1978SOL     OW 7801   2.536   4.169   7.232 -0.0060 -0.2200  0.5280
 1978SOL    HW1 7802   2.617   4.211   7.261 -0.8498  1.3965  0.6131
 1978SOL    HW2 7803   2.470   4.197   7.295 -1.2744  0.9937 -1.2587
 1979SOL     OW 7804   2.048   2.557   0.902 -0.2212  0.4227 -0.0141
 1979SOL    HW1 7805   2.002   2.478   0.930 -0.3223  0.0029 -1.2758
 1979SOL    HW2 7806   2.138   2.545   0.933  0.9011 -2.2125 -3.5255
 1980SOL     OW 7807   8.074   2.595   8.175  0.0255  0.2041 -0.0307
 1980SOL    HW1 7808   8.169   2.586   8.164  0.0092  1.3988 -1.4814
 1980SOL    HW2 7809   8.063   2.619   8.267  1.4056  2.5583 -0.3693
 1981SOL     OW 7810   1.046   6.132   8.569  0.6715  0.4227  0.3306
 1981SOL    HW1 7811   1.014   6.197   8.631  0.0389 -1.3782  1.9965
 1981SOL    HW2 7812   1.115   6.176   8.521 -0.4062  2.6223  0.6761
 1982SOL     OW 7813   8.082   7.017   6.435 -0.3361  0.3356 -0.1428
 1982SOL    HW1 7814   8.015   7.015   6.367  0.0621 -2.0075 -0.5727
 1982SOL    HW2 7815   8.164   7.031   6.387 -0.4295  3.4379  0.3986
 1983SOL     OW 7816   4.176   7.683   3.916  0.2941  0.2185 -0.1073
 1983SOL    HW1 7817   4.135   7.744   3.854  0.5700 -0.2484 -0.7602
 1983SOL    HW2 7818   4.257   7.728   3.943  0.1712  0.4258 -0.0763
 1984SOL     OW 7819   2.198   3.947   3.825  0.4398  0.9832 -0.2775
 1984SOL    HW1 7820   2.261   3.883   3.790  1.1550  0.9815  0.9425
 1984SOL    HW2 7821   2.222   4.030   3.783  1.9137  1.1832  0.8867
 1985SOL     OW 7822   1.388   1.977   5.464  0.0849  0.4081  0.0283
 1985SOL    HW1 7823   1.303   1.952   5.427  0.8772  1.9327 -3.1106
 1985SOL    HW2 7824   1.365   2.033   5.539 -1.6867  0.5430 -0.5727
 1986SOL     OW 7825   2.335   3.674   3.306  0.2203 -0.2674 -0.2263
 1986SOL    HW1 7826   2.419   3.677   3.350 -0.6564 -1.4370  1.6564
 1986SOL    HW2 7827   2.352   3.627   3.224  1.3965 -0.4729  0.1277
 1987SOL     OW 7828   8.249   0.530   2.221 -0.0111 -0.1784  0.1348
 1987SOL    HW1 7829   8.221   0.479   2.145  0.3270 -1.2010  0.6846
 1987SOL    HW2 7830   8.266   0.465   2.289 -0.1174  0.7127  1.0295
 1988SOL     OW 7831   7.606   7.077   7.690 -0.3118 -0.2543 -0.0894
 1988SOL    HW1 7832   7.685   7.122   7.661 -0.1244 -1.2300 -1.1931
 1988SOL    HW2 7833   7.619   6.986   7.662 -0.4920 -1.1234  2.4284
 1989SOL     OW 7834   1.140   2.973   6.552  0.4700  0.2080 -0.2337
 1989SOL    HW1 7835   1.075   2.910   6.522  0.2097 -0.1557  1.0370
 1989SOL    HW2 7836   1.208   2.971   6.484 -0.1119 -0.5476 -0.8129
 1990SOL     OW 7837   6.467   6.186   2.361 -0.2437 -0.4243  0.0589
 1990SOL    HW1 7838   6.371   6.181   2.361 -0.2487 -0.3992 -0.7456
 1990SOL    HW2 7839   6.492   6.149   2.445 -0.9112 -1.5481 -0.2181
 1991SOL     OW 7840   3.435   1.035   5.581 -0.4148 -0.4383  0.0430
 1991SOL    HW1 7841   3.508   1.094   5.564  0.3940 -1.1233  0.9881
 1991SOL    HW2 7842   3.447   1.007   5.672 -1.5982 -0.9256  0.0786
 1992SOL     OW 7843   5.187   2.232   2.744  0.3430 -0.1380  0.2787
 1992SOL    HW1 7844   5.165   2.163   2.807 -2.3389 -0.7861 -1.1966
 1992SOL    HW2 7845   5.163   2.313   2.789 -1.7660 -0.6022  0.0984
 1993SOL     OW 7846   5.534   8.923   2.152  0.1427  0.3395 -0.3599
 1993SOL    HW1 7847   5.527   9.017   2.166  1.4256  0.3592  0.1838
 1993SOL    HW2 7848   5.626   8.902   2.164 -0.4458 -1.3717  1.9403
 1994SOL     OW 7849   1.283   5.251   4.921  0.0869  0.2275 -0.1627
 1994SOL    HW1 7850   1.313   5.288   4.838  0.2883 -1.3533 -0.8307
 1994SOL    HW2 7851   1.247   5.326   4.968  0.5085  1.2753 -1.4155
 1995SOL     OW 7852   2.824   2.599   1.980  0.0899  0.0347  0.1058
 1995SOL    HW1 7853   2.743   2.627   2.022  0.1846  0.5368 -0.0389
 1995SOL    HW2 7854   2.817   2.504   1.976 -0.5964  0.0909 -0.1170
 1996SOL     OW 7855   0.636   2.212   3.846  0.3806  0.3559 -0.2711
 1996SOL    HW1 7856   0.575   2.177   3.911  1.7125  0.8819  1.3356
 1996SOL    HW2 7857   0.667   2.294   3.884  1.6335  0.3966 -1.3185
 1997SOL     OW 7858   4.713   5.870   1.177  0.2317 -0.0340  0.4161
 1997SOL    HW1 7859   4.703   5.779   1.206  1.4094 -1.0912 -2.2313
 1997SOL    HW2 7860   4.649   5.880   1.106 -0.1415  1.3678  0.9088
 1998SOL     OW 7861   1.903   3.352   0.064  0.2364 -0.0730 -0.3161
 1998SOL    HW1 7862   1.959   3.304   0.003 -0.2485  0.4161 -1.1789
 1998SOL    HW2 7863   1.959   3.372   0.139  1.0333 -0.1393 -0.8829
 1999SOL     OW 7864   6.639   3.151   3.727 -0.9228 -0.2311 -0.2546
 1999SOL    HW1 7865   6.733   3.160   3.744 -1.1038  0.6062  0.4100
 1999SOL    HW2 7866   6.602   3.125   3.812 -1.4445  0.7446 -0.1646
 2000SOL     OW 7867   1.701   2.257   0.899  0.0099 -0.3122 -0.0121
 2000SOL    HW1 7868   1.780   2.286   0.853 -0.4785  2.3591  0.6390
 2000SOL    HW2 7869   1.728   2.248   0.991  0.2205 -2.4356 -0.2355
 2001SOL     OW 7870   4.667   6.701   1.510 -0.2934 -0.4956  0.0234
 2001SOL    HW1 7871   4.711   6.780   1.540 -1.4873  1.3119 -2.5202
 2001SOL    HW2 7872   4.731   6.631   1.519  1.1067  0.9304  1.5547
 2002SOL     OW 7873   5.931   8.104   5.394  0.9087  0.0614  0.0338
 2002SOL    HW1 7874   6.013   8.144   5.422  0.9103  1.4557 -1.7648
 2002SOL    HW2 7875   5.862   8.159   5.431  0.8286 -0.1019  0.1298
 2003SOL     OW 7876   4.421   6.994   8.772  0.2553 -0.1727 -0.4071
 2003SOL    HW1 7877   4.402   7.074   8.820 -1.8976 -0.0077 -1.4232
 2003SOL    HW2 7878   4.419   7.020   8.680 -0.1258 -1.3071 -0.7385
 2004SOL     OW 7879   0.434   1.953   0.927 -0.2519 -0.5617  0.1940
 2004SOL    HW1 7880   0.516   2.001   0.939 -0.8215 -0.0370  2.2842
 2004SOL    HW2 7881   0.457   1.861   0.940 -0.0150 -0.4005  0.9361
 2005SOL     OW 7882   3.611   4.649   0.145 -0.5457 -0.2378  0.1930
 2005SOL    HW1 7883   3.658   4.716   0.096 -2.2980  1.8834  1.2525
 2005SOL    HW2 7884   3.677   4.613   0.205  0.1652  1.3904  0.4346
 2006SOL     OW 7885   6.196   2.196   0.487  0.1751 -0.3741 -0.6060
 2006SOL    HW1 7886   6.210   2.236   0.573 -0.0284  0.1455 -0.8168
 2006SOL    HW2 7887   6.170   2.106   0.508 -2.2537  0.3898 -0.0208
 2007SOL     OW 7888   5.337   4.967   2.596  0.1950  0.4814 -0.0104
 2007SOL    HW1 7889   5.422   4.961   2.552  1.1484  0.7152  1.7024
 2007SOL    HW2 7890   5.291   4.887   2.570  0.5777  0.7785 -1.6632
 2008SOL     OW 7891   0.548   0.031   6.096 -0.8452  0.2730 -0.0702
 2008SOL    HW1 7892   0.599   0.030   6.015 -1.4804  1.3836 -0.5070
 2008SOL    HW2 7893   0.468   0.080   6.073 -0.7721  1.1119  1.3737
 2009SOL     OW 7894   2.859   6.206   8.424  0.1050  0.4083 -0.0029
 2009SOL    HW1 7895   2.828   6.119   8.452 -0.2240 -0.0143 -1.5957
 2009SOL    HW2 7896   2.938   6.221   8.477 -0.2663 -0.5179  0.8474
 2010SOL     OW 7897   0.956   2.143   7.073  0.2360 -0.9225 -0.0018
 2010SOL    HW1 7898   0.962   2.048   7.082  0.8851 -1.1039 -1.8349
 2010SOL    HW2 7899   0.893   2.156   7.002  1.6716 -0.1033 -1.1899
 2011SOL     OW 7900   6.516   7.600   1.518  0.5348  0.3039 -0.5445
 2011SOL    HW1 7901   6.451   7.569   1.580  0.6564  2.2908  0.6649
 2011SOL    HW2 7902   6.596   7.554   1.542  0.3351  0.2873  0.1014
 2012SOL     OW 7903   5.615   5.504   0.729  0.5589 -0.0531 -0.3901
 2012SOL    HW1 7904   5.609   5.434   0.665  0.9589 -0.5479  0.1043
 2012SOL    HW2 7905   5.583   5.582   0.683  0.0431 -0.5722 -0.9187
 2013SOL     OW 7906   1.069   3.928   0.707  0.3024  0.4562 -0.3411
 2013SOL    HW1 7907   1.015   3.972   0.773 -0.8253 -0.3331 -0.7243
 2013SOL    HW2 7908   1.079   3.993   0.637  1.0626  1.1071  0.3373
 2014SOL     OW 7909   1.790   2.331   8.879 -0.1529 -0.0613 -0.3361
 2014SOL    HW1 7910   1.718   2.353   8.938  0.9328 -2.1188  1.9391
 2014SOL    HW2 7911   1.853   2.402   8.892 -0.7611  0.5197 -0.5243
 2015SOL     OW 7912   3.517   8.322   0.118  0.2354  0.1481 -0.0438
 2015SOL    HW1 7913   3.579   8.249   0.122 -0.2913 -0.2745  0.5857
 2015SOL    HW2 7914   3.452   8.302   0.185  0.9092  1.9844  1.2298
 2016SOL     OW 7915   8.128   6.291   2.846  0.4070  0.3000 -0.3595
 2016SOL    HW1 7916   8.036   6.318   2.854  0.8156  1.3536  1.2081
 2016SOL    HW2 7917   8.127   6.198   2.868 -0.5007 -0.1547 -2.1007
 2017SOL     OW 7918   1.755   2.725   8.962 -0.5217  0.0191  0.4337
 2017SOL    HW1 7919   1.687   2.722   9.029 -2.9930 -0.5679 -1.9510
 2017SOL    HW2 7920   1.771   2.819   8.948 -4.6482  0.5384 -2.3990
 2018SOL     OW 7921   0.308   1.826   0.252 -0.1095 -0.2395 -0.1097
 2018SOL    HW1 7922   0.277   1.861   0.169  0.4936  0.0708 -0.2091
 2018SOL    HW2 7923   0.233   1.834   0.311 -0.1850  0.6190 -0.3064
 2019SOL     OW 7924   3.725   8.839   2.467  0.3158 -0.0471  0.2821
 2019SOL    HW1 7925   3.681   8.882   2.541  0.2407  1.2020 -0.4764
 2019SOL    HW2 7926   3.670   8.762   2.449 -0.6494  0.5881  0.4190
 2020SOL     OW 7927   3.572   1.524   0.823 -0.1934  0.0174  0.3526
 2020SOL    HW1 7928   3.535   1.532   0.911  1.1078 -1.7838  1.1535
 2020SOL    HW2 7929   3.637   1.453   0.832 -0.9273 -1.1140 -2.3584
 2021SOL     OW 7930   6.042   8.551   5.648 -0.1152  0.0554  0.6351
 2021SOL    HW1 7931   6.115   8.598   5.688  0.5257 -0.3192 -0.0761
 2021SOL    HW2 7932   5.994   8.514   5.722  0.6341 -0.0242  1.0869
 2022SOL     OW 7933   1.479   6.544   0.120 -0.1136  0.2774  0.1894
 2022SOL    HW1 7934   1.506   6.458   0.152  1.0392  0.6449  0.2731
 2022SOL    HW2 7935   1.395   6.528   0.076  0.2105 -0.9358 -0.0422
 2023SOL     OW 7936   8.371   2.255   7.012  0.2027  0.4404 -0.3999
 2023SOL    HW1 7937   8.334   2.290   7.093 -0.2386  0.3798 -0.5722
 2023SOL    HW2 7938   8.380   2.331   6.955  1.9111  0.7528  0.2043
 2024SOL     OW 7939   0.833   1.361   7.869 -0.3376 -0.4214  0.3941
 2024SOL    HW1 7940   0.879   1.319   7.797  1.6785 -0.5200  1.6673
 2024SOL    HW2 7941   0.768   1.297   7.897 -0.5302 -0.7366 -0.7247
 2025SOL     OW 7942   1.472   8.006   0.475  0.0573 -0.3077  0.3702
 2025SOL    HW1 7943   1.466   7.950   0.397 -0.5178  0.7441 -0.3545
 2025SOL    HW2 7944   1.427   7.956   0.543  1.4374 -1.6975  0.3311
 2026SOL     OW 7945   1.342   7.636   5.032 -0.3312 -0.3208 -0.0994
 2026SOL    HW1 7946   1.404   7.704   5.059 -0.7843 -0.4215  1.2380
 2026SOL    HW2 7947   1.393   7.555   5.034  0.2153 -0.0582 -1.7141
 2027SOL     OW 7948   1.017   1.565   8.979 -0.3969 -0.5441 -0.1841
 2027SOL    HW1 7949   0.938   1.619   8.974  0.5720  0.9343 -0.1896
 2027SOL    HW2 7950   1.008   1.516   9.061  0.0823  1.9609  1.4565
 2028SOL     OW 7951   6.992   2.573   5.846  0.2209  0.5786 -0.1552
 2028SOL    HW1 7952   6.992   2.594   5.939  0.2812  1.6125 -0.3759
 2028SOL    HW2 7953   7.077   2.605   5.814  0.4096 -0.2159 -0.4699
 2029SOL     OW 7954   6.749   2.081   5.241 -0.2088  0.1561 -0.0156
 2029SOL    HW1 7955   6.821   2.143   5.230 -0.4267  0.5048  0.4728
 2029SOL    HW2 7956   6.737   2.075   5.336  2.1361 -3.3281  0.2425
 2030SOL     OW 7957   7.341   0.804   7.435 -0.2390 -0.3493 -0.5083
 2030SOL    HW1 7958   7.391   0.726   7.462 -0.6602 -0.0281  1.3839
 2030SOL    HW2 7959   7.314   0.785   7.345  0.9679 -1.7085 -0.6349
 2031SOL     OW 7960   8.548   1.191   2.726 -0.2334  0.1957  0.0675
 2031SOL    HW1 7961   8.500   1.243   2.661 -1.6103  0.0178  0.9008
 2031SOL    HW2 7962   8.604   1.255   2.770 -2.3645  1.2033  1.5162
 2032SOL     OW 7963   3.356   0.586   7.965  0.3592  0.6380  0.1489
 2032SOL    HW1 7964   3.411   0.519   8.004 -0.2765  0.9727  1.6680
 2032SOL    HW2 7965   3.267   0.551   7.971  0.1869  0.9484 -0.4725
 2033SOL     OW 7966   6.981   3.331   1.920 -0.5478  0.0244 -0.5152
 2033SOL    HW1 7967   7.024   3.410   1.952 -0.4013 -0.4728  0.5706
 2033SOL    HW2 7968   6.888   3.352   1.921 -0.5266  0.0972  0.0262
 2034SOL     OW 7969   1.809   3.048   7.553 -0.2154  0.5112  0.3877
 2034SOL    HW1 7970   1.869   2.974   7.562 -1.3801 -0.5372 -0.1753
 2034SOL    HW2 7971   1.773   3.039   7.465  0.2395  2.2572 -0.0251
 2035SOL     OW 7972   7.984   6.053   6.319  0.3713 -0.5176  0.6764
 2035SOL    HW1 7973   8.054   6.087   6.375  0.2615  1.6440 -0.3931
 2035SOL    HW2 7974   7.922   6.013   6.380  2.1108 -1.7673  1.7169
 2036SOL     OW 7975   7.758   4.666   5.472  0.4210 -0.3186  0.4242
 2036SOL    HW1 7976   7.793   4.660   5.561  1.2888  0.3623  0.1521
 2036SOL    HW2 7977   7.708   4.748   5.472  1.3351  0.2669  0.0134
 2037SOL     OW 7978   4.277   2.507   5.181 -0.0383 -0.6383 -0.3469
 2037SOL    HW1 7979   4.356   2.525   5.131  0.3158 -2.0578 -0.3153
 2037SOL    HW2 7980   4.304   2.445   5.249 -1.0338 -0.6298  0.0873
 2038SOL     OW 7981   8.516   2.393   0.933 -0.4086  0.0436 -0.0249
 2038SOL    HW1 7982   8.464   2.346   0.998  0.3472  1.8443  1.9997
 2038SOL    HW2 7983   8.485   2.483   0.938  2.3126  1.0501  0.7710
 2039SOL     OW 7984   1.284   0.152   8.809 -0.3554  0.5706  0.0917
 2039SOL    HW1 7985   1.302   0.087   8.741  2.2884 -0.0760  1.2810
 2039SOL    HW2 7986   1.340   0.227   8.786  1.3955 -0.0617  2.0293
 2040SOL     OW 7987   1.242   5.424   6.583 -0.0550 -0.1040  0.6651
 2040SOL    HW1 7988   1.282   5.346   6.621  0.9844  0.1786  0.1852
 2040SOL    HW2 7989   1.316   5.482   6.565 -0.7551  0.7230  0.4171
 2041SOL     OW 7990   3.636   2.896   2.837  0.2421 -1.1032 -0.4078
 2041SOL    HW1 7991   3.633   2.933   2.749  0.6855  0.6396  0.2652
 2041SOL    HW2 7992   3.550   2.912   2.874  0.5046 -0.5196 -0.0337
 2042SOL     OW 7993   7.487   6.360   0.745 -0.6881  0.2887  0.1915
 2042SOL    HW1 7994   7.466   6.354   0.838  0.5912  2.9798  0.7626
 2042SOL    HW2 7995   7.546   6.435   0.739 -0.0043 -0.3562 -2.6938
 2043SOL     OW 7996   0.954   8.496   6.104 -0.1493 -0.4109  0.0276
 2043SOL    HW1 7997   1.038   8.525   6.068  0.0636 -0.3681  0.5529
 2043SOL    HW2 7998   0.923   8.570   6.155 -0.9138 -0.1164 -0.8381
 2044SOL     OW 7999   4.109   1.280   1.242 -0.2289 -0.1490  0.3272
 2044SOL    HW1 8000   4.061   1.236   1.312  1.1998  0.0234  1.4604
 2044SOL    HW2 8001   4.115   1.371   1.272  1.2337 -0.2750  0.4823
 2045SOL     OW 8002   4.826   3.809   2.419 -0.4188  0.0121  0.4017
 2045SOL    HW1 8003   4.818   3.838   2.328 -1.1959  2.7921  1.2623
 2045SOL    HW2 8004   4.774   3.729   2.423 -0.7372  0.0754 -1.4790
 2046SOL     OW 8005   4.243   7.981   4.688 -0.2245 -0.2342 -0.3045
 2046SOL    HW1 8006   4.279   7.989   4.776  0.5216  0.8576 -0.6851
 2046SOL    HW2 8007   4.313   8.011   4.630 -1.6788  1.9077 -1.0862
 2047SOL     OW 8008   3.301   3.888   1.182 -0.3098 -0.3443  0.2464
 2047SOL    HW1 8009   3.360   3.857   1.251  0.8679  0.3000 -0.4401
 2047SOL    HW2 8010   3.270   3.973   1.212  0.4351  0.0707 -0.1297
 2048SOL     OW 8011   7.610   3.760   5.497 -0.2751 -0.6427 -0.5466
 2048SOL    HW1 8012   7.689   3.738   5.448  0.0802 -1.2147  0.2692
 2048SOL    HW2 8013   7.608   3.697   5.569 -1.8641 -1.1168 -0.9673
 2049SOL     OW 8014   8.375   4.256   7.581 -0.0254 -0.2041 -0.6875
 2049SOL    HW1 8015   8.387   4.179   7.524  1.4129 -0.2598 -0.3335
 2049SOL    HW2 8016   8.408   4.228   7.666 -0.1131  0.6090 -0.3804
 2050SOL     OW 8017   6.932   4.114   4.746 -0.5266  0.1010  0.4076
 2050SOL    HW1 8018   6.958   4.080   4.660  0.1123 -1.7508  1.2854
 2050SOL    HW2 8019   6.947   4.042   4.806 -1.5355  1.1609  2.0119
 2051SOL     OW 8020   6.947   8.536   6.170  0.7356 -0.0356  0.1477
 2051SOL    HW1 8021   6.980   8.614   6.126  1.8539 -1.4457 -1.6626
 2051SOL    HW2 8022   7.007   8.466   6.144 -1.9542 -2.1647 -0.9591
 2052SOL     OW 8023   1.760   3.496   5.640  0.4675 -0.0513  0.3057
 2052SOL    HW1 8024   1.754   3.580   5.686  0.7894  0.3647 -0.3980
 2052SOL    HW2 8025   1.852   3.489   5.616 -0.0028  0.6760 -1.9706
 2053SOL     OW 8026   8.256   8.417   6.065  0.1222 -0.0999 -0.3724
 2053SOL    HW1 8027   8.346   8.392   6.084  0.3783  1.1507  0.2198
 2053SOL    HW2 8028   8.203   8.345   6.098  0.9383 -1.3383 -1.6871
 2054SOL     OW 8029   8.127   1.694   1.951  0.3357 -0.0189  0.0869
 2054SOL    HW1 8030   8.138   1.609   1.995 -1.2804 -1.1696 -1.5717
 2054SOL    HW2 8031   8.217   1.725   1.937  0.9606 -1.2557  1.1040
 2055SOL     OW 8032   2.721   8.674   7.878 -0.5856  0.2751  0.4126
 2055SOL    HW1 8033   2.676   8.703   7.798  0.3045 -1.3127 -0.7136
 2055SOL    HW2 8034   2.766   8.753   7.910  0.2339  0.6329 -1.4877
 2056SOL     OW 8035   2.009   3.571   4.967 -0.6251  0.4732  0.3857
 2056SOL    HW1 8036   1.995   3.622   4.887  0.7258 -0.2321 -0.3414
 2056SOL    HW2 8037   2.082   3.615   5.010  0.0493 -0.3830  0.1379
 2057SOL     OW 8038   0.139   3.692   6.667  0.6009 -0.6263 -0.4203
 2057SOL    HW1 8039   0.163   3.766   6.611 -0.1581  0.3934  0.5547
 2057SOL    HW2 8040   0.104   3.627   6.607  0.1234  0.3012 -1.1727
 2058SOL     OW 8041   5.401   5.110   3.133 -0.0380 -0.0695 -0.1284
 2058SOL    HW1 8042   5.415   5.035   3.075 -0.9181 -0.7787  0.5455
 2058SOL    HW2 8043   5.487   5.125   3.173 -0.2395 -1.9188  1.1046
 2059SOL     OW 8044   1.904   2.454   6.251 -0.1938  0.5839 -0.0877
 2059SOL    HW1 8045   1.958   2.391   6.204 -1.7532 -0.5742 -0.4342
 2059SOL    HW2 8046   1.868   2.404   6.324 -2.3732  0.6782 -1.0149
 2060SOL     OW 8047   6.670   1.456   6.873  0.3524  0.0685 -0.2727
 2060SOL    HW1 8048   6.607   1.392   6.840 -1.0263 -0.1128  2.4284
 2060SOL    HW2 8049   6.648   1.465   6.966  0.2784  4.6619 -0.5314
 2061SOL     OW 8050   8.640   2.746   2.321 -0.5709  0.1630 -0.4044
 2061SOL    HW1 8051   8.704   2.730   2.251 -0.0889 -1.0521  0.2667
 2061SOL    HW2 8052   8.689   2.727   2.402 -1.1285  1.4950  0.2619
 2062SOL     OW 8053   0.550   4.156   5.644 -0.0661  0.5789 -0.2890
 2062SOL    HW1 8054   0.469   4.125   5.602  0.8814 -0.9386 -1.1144
 2062SOL    HW2 8055   0.601   4.194   5.572  0.5296  0.2277 -0.0613
 2063SOL     OW 8056   8.485   8.241   6.354  0.2124  0.7622 -0.0974
 2063SOL    HW1 8057   8.574   8.238   6.391  0.2242  2.1670  0.0365
 2063SOL    HW2 8058   8.498   8.247   6.260  0.2179 -0.2751 -0.1796
 2064SOL     OW 8059   6.790   2.467   4.831  0.3698  0.1258 -0.1358
 2064SOL    HW1 8060   6.748   2.400   4.885  0.9762 -0.3389 -0.2331
 2064SOL    HW2 8061   6.870   2.425   4.798  1.2150  1.1819  0.5185
 2065SOL     OW 8062   2.220   0.785   3.826  0.1844  0.1883 -0.0502
 2065SOL    HW1 8063   2.167   0.782   3.746  1.1162  0.4201 -0.6884
 2065SOL    HW2 8064   2.180   0.719   3.883 -0.7648  0.3354 -0.5227
 2066SOL     OW 8065   5.166   0.757   0.458  0.7495  0.5037 -0.1741
 2066SOL    HW1 8066   5.120   0.828   0.502  0.1620 -0.2449  0.4566
 2066SOL    HW2 8067   5.242   0.739   0.512 -0.0362 -0.4959  0.6277
 2067SOL     OW 8068   4.929   8.679   1.957 -0.9487  0.1120  0.1548
 2067SOL    HW1 8069   4.969   8.766   1.960 -2.6148  1.1156 -2.5648
 2067SOL    HW2 8070   4.964   8.634   2.033  0.5843  2.8913  1.2563
 2068SOL     OW 8071   4.286   3.558   7.875  0.1723  0.1427 -0.0920
 2068SOL    HW1 8072   4.264   3.542   7.966 -0.2890 -1.8268 -0.5215
 2068SOL    HW2 8073   4.245   3.487   7.826 -0.0926  1.4717 -1.9261
 2069SOL     OW 8074   4.411   2.776   2.689  0.4558 -0.2157  0.0668
 2069SOL    HW1 8075   4.398   2.851   2.630  2.2216 -0.4561 -0.6817
 2069SOL    HW2 8076   4.396   2.699   2.633  1.6209 -0.4388  0.0404
 2070SOL     OW 8077   1.615   4.734   8.482  0.2016  0.1324 -0.0862
 2070SOL    HW1 8078   1.524   4.745   8.509  0.2813 -0.7075  0.5773
 2070SOL    HW2 8079   1.638   4.817   8.439 -0.3520  0.9995  1.2362
 2071SOL     OW 8080   5.413   0.411   6.216 -0.0856  0.1372  0.1562
 2071SOL    HW1 8081   5.360   0.358   6.156 -0.1175 -1.6173  1.6571
 2071SOL    HW2 8082   5.423   0.494   6.171 -1.1118 -0.7006 -1.7507
 2072SOL     OW 8083   2.637   0.736   6.839  0.3519  0.3079 -0.2959
 2072SOL    HW1 8084   2.548   0.711   6.817  0.1599  1.0050 -0.3515
 2072SOL    HW2 8085   2.680   0.749   6.754  0.6833 -0.6212 -0.2737
 2073SOL     OW 8086   6.521   0.099   2.384  0.1127  0.5191  0.4523
 2073SOL    HW1 8087   6.427   0.084   2.397  0.1329  0.5698  0.6571
 2073SOL    HW2 8088   6.561   0.073   2.467  0.3018  0.3033  0.2950
 2074SOL     OW 8089   7.215   8.290   2.392  0.1045 -0.0702  0.1899
 2074SOL    HW1 8090   7.297   8.263   2.434 -0.2022 -0.1878  0.7211
 2074SOL    HW2 8091   7.234   8.289   2.299 -0.0015 -2.5128  0.1305
 2075SOL     OW 8092   3.120   0.735   3.109  0.0170 -0.1168 -0.0799
 2075SOL    HW1 8093   3.142   0.751   3.201  0.0223  0.1601 -0.1283
 2075SOL    HW2 8094   3.035   0.778   3.097 -0.2166 -0.5665 -0.0806
 2076SOL     OW 8095   2.290   1.472   6.459  0.5633  0.3214 -0.2762
 2076SOL    HW1 8096   2.382   1.495   6.457  1.0252 -1.3824 -0.2916
 2076SOL    HW2 8097   2.257   1.499   6.373  0.9962  1.0467 -0.2255
 2077SOL     OW 8098   0.462   4.933   7.794 -0.4279 -0.2060 -0.1214
 2077SOL    HW1 8099   0.508   4.888   7.723  0.0412  0.7324 -0.4374
 2077SOL    HW2 8100   0.431   5.014   7.754 -1.1712 -0.1936  0.4535
 2078SOL     OW 8101   6.222   7.827   6.923  0.0201 -0.1624 -0.3815
 2078SOL    HW1 8102   6.199   7.773   6.848  1.4533  0.0618 -1.0061
 2078SOL    HW2 8103   6.316   7.843   6.914 -0.1414  1.4661  0.4097
 2079SOL     OW 8104   0.792   2.163   4.923  0.2357 -0.0728  0.0936
 2079SOL    HW1 8105   0.734   2.221   4.971 -0.5726 -1.2605  0.6056
 2079SOL    HW2 8106   0.762   2.075   4.945  1.5220 -0.6998 -0.5290
 2080SOL     OW 8107   6.357   7.205   0.924 -0.6325  0.1971  0.1149
 2080SOL    HW1 8108   6.326   7.279   0.976  2.0332  0.0286  2.1997
 2080SOL    HW2 8109   6.309   7.130   0.960  1.8686 -0.0890  3.3910
 2081SOL     OW 8110   0.308   1.447   7.425 -0.1211  0.3322 -0.2000
 2081SOL    HW1 8111   0.355   1.368   7.452  0.5023  1.0300  0.8404
 2081SOL    HW2 8112   0.374   1.516   7.427 -1.0380  1.2211  0.6919
 2082SOL     OW 8113   4.456   5.223   1.933 -0.0863  0.4749 -0.1386
 2082SOL    HW1 8114   4.517   5.265   1.994 -1.6262  1.5638  0.7145
 2082SOL    HW2 8115   4.509   5.155   1.890  0.6908 -1.6209  3.6299
 2083SOL     OW 8116   6.022   2.072   6.836 -0.4376  0.3454 -0.2779
 2083SOL    HW1 8117   5.945   2.042   6.789 -0.9227  0.3549  0.4932
 2083SOL    HW2 8118   6.092   2.072   6.771 -0.9688 -0.1711 -0.8535
 2084SOL     OW 8119   2.170   1.412   3.372 -0.6626 -0.3922 -0.4023
 2084SOL    HW1 8120   2.205   1.323   3.362  0.4442 -0.0264  0.1547
 2084SOL    HW2 8121   2.076   1.399   3.380 -0.3081 -1.7937  2.7191
 2085SOL     OW 8122   8.755   4.791   1.887  0.4572 -0.8912  0.3777
 2085SOL    HW1 8123   8.709   4.859   1.839  1.9455 -2.1070 -3.1482
 2085SOL    HW2 8124   8.713   4.788   1.973 -1.9959  1.9432 -0.5801
 2086SOL     OW 8125   2.597   5.682   5.145 -0.2205 -0.1124  0.3511
 2086SOL    HW1 8126   2.674   5.675   5.088 -0.4070 -2.0807  0.2716
 2086SOL    HW2 8127   2.535   5.735   5.095  0.1516 -0.6302 -0.7027
 2087SOL     OW 8128   6.542   1.493   3.886  1.0105  0.0954 -0.1264
 2087SOL    HW1 8129   6.629   1.474   3.920  1.1600 -0.3974 -0.7693
 2087SOL    HW2 8130   6.489   1.417   3.910  0.8027  0.3079  0.0971
 2088SOL     OW 8131   1.336   3.330   8.822 -0.0392  0.1012  0.0348
 2088SOL    HW1 8132   1.408   3.337   8.758  0.1812 -1.1519  0.1130
 2088SOL    HW2 8133   1.360   3.391   8.892  0.5313  0.3076 -0.3318
 2089SOL     OW 8134   5.529   0.466   6.748 -0.0616 -0.2200 -0.0917
 2089SOL    HW1 8135   5.467   0.427   6.810 -0.8278 -0.2378 -0.8489
 2089SOL    HW2 8136   5.536   0.401   6.678  1.6295 -0.6847  0.4765
 2090SOL     OW 8137   0.524   6.709   6.651  0.2351 -0.3729  0.0088
 2090SOL    HW1 8138   0.591   6.768   6.685  0.9027 -0.2297 -1.4836
 2090SOL    HW2 8139   0.509   6.738   6.561 -2.9482  0.5637  0.6967
 2091SOL     OW 8140   1.916   7.972   7.449 -0.3705 -0.3029 -0.6482
 2091SOL    HW1 8141   1.862   7.944   7.522 -0.8076 -2.7399 -1.7846
 2091SOL    HW2 8142   1.996   8.004   7.489 -0.4065 -2.0071  0.9226
 2092SOL     OW 8143   2.174   8.297   0.270 -0.2272  0.0015 -0.3227
 2092SOL    HW1 8144   2.158   8.249   0.189 -1.7398  1.2411 -0.8170
 2092SOL    HW2 8145   2.262   8.333   0.259  0.0855 -0.8989 -0.8535
 2093SOL     OW 8146   1.591   4.829   2.850 -0.3594 -0.3894 -0.2812
 2093SOL    HW1 8147   1.661   4.893   2.864 -0.5706  0.0532 -1.2080
 2093SOL    HW2 8148   1.514   4.882   2.830 -0.6035 -0.9217 -0.7782
 2094SOL     OW 8149   1.472   8.477   6.178  0.3880  0.1618 -0.5016
 2094SOL    HW1 8150   1.402   8.452   6.238 -1.8101  0.4440 -2.7700
 2094SOL    HW2 8151   1.543   8.415   6.196 -1.2563 -1.5525  0.4381
 2095SOL     OW 8152   0.535   1.261   8.964  0.3470 -0.0057 -0.3464
 2095SOL    HW1 8153   0.560   1.220   9.046  0.5065 -0.5384 -0.6578
 2095SOL    HW2 8154   0.547   1.193   8.898 -0.5789  0.1535 -0.6982
 2096SOL     OW 8155   6.804   4.363   2.006 -0.1207 -0.0457 -0.3041
 2096SOL    HW1 8156   6.874   4.315   2.050  1.1508  2.1273  0.2234
 2096SOL    HW2 8157   6.826   4.356   1.913  0.4576  0.0760 -0.1831
 2097SOL     OW 8158   8.137   3.436   4.529 -0.0877  0.3993  0.2849
 2097SOL    HW1 8159   8.113   3.501   4.595  0.9840 -0.8002  1.9150
 2097SOL    HW2 8160   8.053   3.405   4.495 -0.6388  1.5892  0.4963
 2098SOL     OW 8161   3.222   2.989   8.480 -0.3815  0.1751 -0.3466
 2098SOL    HW1 8162   3.302   3.039   8.495 -0.0716 -1.0875  3.0582
 2098SOL    HW2 8163   3.152   3.054   8.485  0.2430  0.8715 -0.4045
 2099SOL     OW 8164   4.140   4.469   7.113 -0.1470 -0.3585 -0.3808
 2099SOL    HW1 8165   4.138   4.564   7.099  2.1298 -0.2690 -0.3279
 2099SOL    HW2 8166   4.232   4.447   7.120 -0.6848 -2.2534  2.0522
 2100SOL     OW 8167   0.482   4.343   2.539 -0.3017  1.0067 -0.2647
 2100SOL    HW1 8168   0.571   4.376   2.531  0.5199 -0.9055  0.4601
 2100SOL    HW2 8169   0.488   4.250   2.517 -2.0167  0.7089  0.3190
 2101SOL     OW 8170   2.426   4.546   4.373  0.3737  0.3753 -0.1560
 2101SOL    HW1 8171   2.421   4.615   4.439  2.3231  0.7247 -0.2926
 2101SOL    HW2 8172   2.363   4.480   4.401  0.9937  0.6138  1.9548
 2102SOL     OW 8173   4.157   1.740   5.714  0.5896 -0.4143 -0.9413
 2102SOL    HW1 8174   4.092   1.694   5.768 -0.0262  2.4386  0.9338
 2102SOL    HW2 8175   4.241   1.705   5.744  0.1031 -1.6768 -0.9586
 2103SOL     OW 8176   5.423   1.806   5.734 -0.2208  0.1757 -0.1900
 2103SOL    HW1 8177   5.388   1.721   5.763  0.9364 -0.4350 -0.5303
 2103SOL    HW2 8178   5.381   1.820   5.649  0.2149 -0.4771 -0.5254
 2104SOL     OW 8179   4.696   8.599   5.361  0.2032 -0.5758 -0.0851
 2104SOL    HW1 8180   4.650   8.538   5.418 -0.4499 -0.9854 -1.0387
 2104SOL    HW2 8181   4.631   8.627   5.296  0.0006  2.3727  1.2140
 2105SOL     OW 8182   5.367   5.911   3.037 -0.0026  0.0324  0.6065
 2105SOL    HW1 8183   5.316   5.960   3.100  0.1274  0.7875  0.1362
 2105SOL    HW2 8184   5.429   5.974   3.001 -0.6364 -0.1511 -0.8999
 2106SOL     OW 8185   2.663   8.632   0.025 -0.3954 -0.0950 -0.1771
 2106SOL    HW1 8186   2.676   8.722   0.054 -0.2156 -0.2224  0.1462
 2106SOL    HW2 8187   2.619   8.639  -0.059 -0.0407  0.3028 -0.3318
 2107SOL     OW 8188   1.765   7.720   1.010 -0.1991  0.3759  0.0574
 2107SOL    HW1 8189   1.697   7.670   0.966 -0.9636  0.9295  0.5773
 2107SOL    HW2 8190   1.771   7.681   1.098  0.1548  0.3318  0.0153
 2108SOL     OW 8191   3.816   1.892   1.536 -0.2415  0.6882 -0.3835
 2108SOL    HW1 8192   3.858   1.951   1.598  3.0656 -1.9151  0.1024
 2108SOL    HW2 8193   3.862   1.908   1.453 -0.8269  0.2914 -0.7916
 2109SOL     OW 8194   3.622   8.702   0.548 -0.1985  0.4887  0.1672
 2109SOL    HW1 8195   3.555   8.770   0.537 -0.2122  0.9147  2.3014
 2109SOL    HW2 8196   3.699   8.750   0.580  1.5818  0.1666 -3.2112
 2110SOL     OW 8197   8.730   0.562   5.752  0.2592 -0.0206 -0.2174
 2110SOL    HW1 8198   8.722   0.526   5.841  0.1110  0.5018 -0.0140
 2110SOL    HW2 8199   8.751   0.487   5.698  1.7021 -0.1312  0.4634
 2111SOL     OW 8200   3.354   8.120   1.748  0.0653 -0.0466  0.2821
 2111SOL    HW1 8201   3.325   8.031   1.728 -1.3327  0.7523 -1.4758
 2111SOL    HW2 8202   3.449   8.116   1.744 -0.0222 -1.1115 -1.4317
 2112SOL     OW 8203   2.650   7.600   2.995 -0.0415  0.5878 -0.7869
 2112SOL    HW1 8204   2.726   7.564   3.041 -0.5079  0.1182 -0.3727
 2112SOL    HW2 8205   2.646   7.691   3.025 -2.0744 -0.4228  2.5246
 2113SOL     OW 8206   2.340   1.164   7.414  0.0684  0.0117  0.4071
 2113SOL    HW1 8207   2.302   1.082   7.446 -1.6161  0.2346 -0.8619
 2113SOL    HW2 8208   2.375   1.206   7.492 -0.0695 -1.3760  1.2620
 2114SOL     OW 8209   3.427   5.761   4.384  0.5559  0.3567  0.2189
 2114SOL    HW1 8210   3.415   5.736   4.475 -0.7634 -0.0429 -0.0459
 2114SOL    HW2 8211   3.512   5.724   4.360  0.9583  0.5466  1.2946
 2115SOL     OW 8212   2.862   6.418   1.040 -0.1523  0.1765  0.6667
 2115SOL    HW1 8213   2.836   6.505   1.008  0.4723  0.0577 -0.1949
 2115SOL    HW2 8214   2.925   6.386   0.975 -0.8163 -1.1772  0.6594
 2116SOL     OW 8215   2.636   6.203   7.360  0.1927  0.0955  0.4699
 2116SOL    HW1 8216   2.637   6.109   7.343 -3.8552 -0.2866  1.4869
 2116SOL    HW2 8217   2.627   6.211   7.455 -0.2885  1.4920  0.3269
 2117SOL     OW 8218   8.889   8.869   2.173  0.1046  0.4668  0.2423
 2117SOL    HW1 8219   8.930   8.861   2.087 -0.0364 -0.0399  0.2180
 2117SOL    HW2 8220   8.879   8.963   2.187  0.6671  0.5727 -0.0389
 2118SOL     OW 8221   2.262   4.226   6.496  0.7439 -0.0026  0.8591
 2118SOL    HW1 8222   2.275   4.132   6.506  1.2345  0.1701  2.0465
 2118SOL    HW2 8223   2.167   4.238   6.493  0.6665 -0.4657  1.4568
 2119SOL     OW 8224   7.264   3.805   4.906  0.2589  0.1610 -0.4180
 2119SOL    HW1 8225   7.334   3.834   4.964  0.2907 -0.5067 -0.1224
 2119SOL    HW2 8226   7.188   3.857   4.933  0.2446 -0.2165  0.2962
 2120SOL     OW 8227   8.642   6.174   3.228  0.1982 -0.5072 -0.3868
 2120SOL    HW1 8228   8.719   6.192   3.282 -0.2169 -1.5887  0.6039
 2120SOL    HW2 8229   8.671   6.106   3.167 -0.0420 -1.1668  0.2149
 2121SOL     OW 8230   0.280   6.143   8.519  0.2552  0.3928 -0.0876
 2121SOL    HW1 8231   0.212   6.155   8.585  0.4122  1.2011 -0.0605
 2121SOL    HW2 8232   0.294   6.048   8.515 -1.9680  0.0309 -1.1974
 2122SOL     OW 8233   5.082   4.066   1.386 -0.0475 -0.7621 -0.0955
 2122SOL    HW1 8234   5.126   4.149   1.403 -0.2756 -0.8816  1.1706
 2122SOL    HW2 8235   5.038   4.078   1.302 -1.6460  1.0872  0.9306
 2123SOL     OW 8236   7.904   0.832   0.598  0.2732  0.1176 -0.1036
 2123SOL    HW1 8237   7.851   0.912   0.597 -1.9531 -1.2882 -0.5270
 2123SOL    HW2 8238   7.901   0.799   0.509 -0.3097 -1.3533  0.4312
 2124SOL     OW 8239   0.540   7.776   8.427  0.2916  0.5132  0.5966
 2124SOL    HW1 8240   0.571   7.704   8.482  0.8674 -0.0851 -0.4602
 2124SOL    HW2 8241   0.600   7.848   8.446  1.0849  0.0132  0.0938
 2125SOL     OW 8242   1.657   2.493   1.775 -0.8110 -0.5545  0.5042
 2125SOL    HW1 8243   1.598   2.418   1.777 -0.6296 -0.7142  0.0997
 2125SOL    HW2 8244   1.744   2.455   1.792 -0.8012 -0.3429  0.9510
 2126SOL     OW 8245   3.858   1.436   4.472  0.1071  0.9261  0.7341
 2126SOL    HW1 8246   3.817   1.395   4.395 -0.3341 -0.5312  1.7055
 2126SOL    HW2 8247   3.878   1.525   4.444  2.2636 -0.2475 -1.9266
 2127SOL     OW 8248   3.102   7.368   1.392 -0.2890  0.0640  0.0651
 2127SOL    HW1 8249   3.066   7.424   1.461  0.7836  0.0231  0.6820
 2127SOL    HW2 8250   3.152   7.301   1.439  2.1706  1.1932 -0.7255
 2128SOL     OW 8251   8.206   5.742   0.037 -0.0856  0.1420 -0.0189
 2128SOL    HW1 8252   8.242   5.672  -0.017  0.1958 -1.1908  1.8173
 2128SOL    HW2 8253   8.114   5.718   0.050  0.1095 -0.1116  0.9357
 2129SOL     OW 8254   0.094   3.289   0.550 -0.3179 -0.4229  0.3653
 2129SOL    HW1 8255   0.057   3.258   0.468  0.5608 -1.1134  0.2183
 2129SOL    HW2 8256   0.048   3.239   0.618 -0.7650 -0.1329  0.2827
 2130SOL     OW 8257   3.371   4.518   0.099 -0.1708 -0.3573 -0.4247
 2130SOL    HW1 8258   3.453   4.568   0.101 -0.0716 -0.5016  1.8466
 2130SOL    HW2 8259   3.386   4.450   0.032  2.3668 -1.6065  1.2395
 2131SOL     OW 8260   4.317   1.072   1.230  0.2087 -0.0632  0.3098
 2131SOL    HW1 8261   4.284   1.017   1.301 -0.5825 -0.0345 -0.0280
 2131SOL    HW2 8262   4.259   1.148   1.228  0.7718  0.3698  0.2112
 2132SOL     OW 8263   5.831   7.869   3.466  0.0353  0.2839 -0.5115
 2132SOL    HW1 8264   5.832   7.799   3.400  2.0599  1.3771 -1.7466
 2132SOL    HW2 8265   5.753   7.921   3.444 -0.6316 -0.7053 -0.5369
 2133SOL     OW 8266   1.781   2.472   2.423  0.0641  0.1372 -0.9376
 2133SOL    HW1 8267   1.761   2.553   2.471  1.7128  0.9115 -1.4866
 2133SOL    HW2 8268   1.698   2.423   2.423 -1.1360  2.0524 -1.0351
 2134SOL     OW 8269   1.406   7.510   5.335 -0.0061  0.4911  0.1268
 2134SOL    HW1 8270   1.342   7.451   5.296 -1.7152  1.8429  0.7787
 2134SOL    HW2 8271   1.454   7.456   5.397  0.3327 -0.8237 -1.2180
 2135SOL     OW 8272   5.630   0.176   2.241 -0.2867 -0.3014  0.0812
 2135SOL    HW1 8273   5.566   0.247   2.247  0.3507  0.2631  0.3312
 2135SOL    HW2 8274   5.654   0.158   2.332 -0.3663 -0.7753  0.0132
 2136SOL     OW 8275   4.639   2.149   7.777 -0.4033 -0.5774  0.1455
 2136SOL    HW1 8276   4.680   2.064   7.768 -1.1836 -1.0397  0.8184
 2136SOL    HW2 8277   4.546   2.134   7.757 -0.6873 -0.0464  1.0071
 2137SOL     OW 8278   6.268   1.457   2.038  0.6202  0.2704  0.1590
 2137SOL    HW1 8279   6.292   1.445   2.130 -1.4464  0.4063  0.7626
 2137SOL    HW2 8280   6.326   1.398   1.990 -0.0217 -1.8268  1.8035
 2138SOL     OW 8281   2.194   4.394   4.471 -0.1093  0.7557 -0.0063
 2138SOL    HW1 8282   2.100   4.407   4.457 -0.4108 -0.6165  0.5592
 2138SOL    HW2 8283   2.206   4.406   4.565  0.1068 -0.0059  0.0706
 2139SOL     OW 8284   8.850   8.890   6.035  0.7171  0.0714  0.2795
 2139SOL    HW1 8285   8.826   8.863   6.124  0.6208 -2.6088 -0.4631
 2139SOL    HW2 8286   8.881   8.809   5.994  0.6064  1.2125 -2.1675
 2140SOL     OW 8287   4.584   7.205   2.176  0.1711  0.3487 -0.2317
 2140SOL    HW1 8288   4.667   7.249   2.157  0.8200 -0.7523  0.0382
 2140SOL    HW2 8289   4.545   7.190   2.090  1.4785 -1.4599 -0.5617
 2141SOL     OW 8290   4.175   6.551   2.260 -0.2405 -0.2736  0.4281
 2141SOL    HW1 8291   4.231   6.582   2.189  0.8011  1.3478  1.8895
 2141SOL    HW2 8292   4.217   6.471   2.290 -1.2773 -1.5834 -1.4038
 2142SOL     OW 8293   1.396   7.124   7.690 -0.5118  0.4349  0.2126
 2142SOL    HW1 8294   1.329   7.055   7.691 -0.9463  0.8343 -0.2523
 2142SOL    HW2 8295   1.375   7.178   7.766 -0.0064 -0.0947  0.7313
 2143SOL     OW 8296   8.483   3.497   7.202 -0.6279 -0.4102  0.5717
 2143SOL    HW1 8297   8.555   3.436   7.188 -0.9674 -0.8641  0.8148
 2143SOL    HW2 8298   8.482   3.551   7.123  0.4950  0.1403  0.9091
 2144SOL     OW 8299   5.872   3.995   2.417  0.2069 -0.1191 -0.4842
 2144SOL    HW1 8300   5.919   3.923   2.458  1.8482  0.4108 -1.3668
 2144SOL    HW2 8301   5.863   3.969   2.325 -1.5242 -0.3349 -0.2963
 2145SOL     OW 8302   5.952   2.420   7.738 -0.7414 -0.2601 -0.1185
 2145SOL    HW1 8303   5.925   2.495   7.791 -1.0892 -0.7562  0.4214
 2145SOL    HW2 8304   6.040   2.399   7.770 -0.7334 -0.2203 -0.1145
 2146SOL     OW 8305   1.089   7.832   6.898 -0.4280  0.4579  0.0281
 2146SOL    HW1 8306   1.078   7.868   6.986  2.2593  1.0323  0.2166
 2146SOL    HW2 8307   1.099   7.908   6.841 -0.5928  0.0707 -0.5326
 2147SOL     OW 8308   5.600   1.914   5.433  0.0780  0.3037 -0.0951
 2147SOL    HW1 8309   5.557   1.971   5.496  0.2693 -2.2114  2.5242
 2147SOL    HW2 8310   5.532   1.853   5.405  0.6007 -0.1765 -0.3513
 2148SOL     OW 8311   5.678   1.593   4.344 -0.3890  0.5916  0.7969
 2148SOL    HW1 8312   5.626   1.659   4.389 -1.6343  0.3172 -0.1898
 2148SOL    HW2 8313   5.757   1.641   4.316 -0.1165  1.0310  2.2082
 2149SOL     OW 8314   0.758   7.599   6.619  0.0683 -0.1716  0.1934
 2149SOL    HW1 8315   0.767   7.652   6.698  2.2470 -2.3889  1.6002
 2149SOL    HW2 8316   0.845   7.600   6.579 -0.3351 -1.1412 -0.7551
 2150SOL     OW 8317   8.092   0.733   2.645 -0.1634 -0.5772  0.3751
 2150SOL    HW1 8318   8.179   0.772   2.638 -0.8340  0.9097  0.0584
 2150SOL    HW2 8319   8.097   0.678   2.723  0.3039  1.5975  1.9740
 2151SOL     OW 8320   0.203   7.040   0.241  0.3967 -0.1727 -0.2178
 2151SOL    HW1 8321   0.112   7.021   0.263  0.0363  1.3823 -0.2202
 2151SOL    HW2 8322   0.247   7.045   0.326  0.2518  0.0656 -0.1532
 2152SOL     OW 8323   5.698   0.449   5.546 -0.3591 -0.1163 -0.3955
 2152SOL    HW1 8324   5.743   0.441   5.462 -2.0477 -1.9795 -1.1989
 2152SOL    HW2 8325   5.692   0.543   5.562 -0.0593  0.2798 -2.3781
 2153SOL     OW 8326   6.011   7.393   7.251 -0.2762  0.2069  0.0549
 2153SOL    HW1 8327   5.988   7.473   7.202 -2.0421 -1.0095 -1.2440
 2153SOL    HW2 8328   5.994   7.322   7.190  2.9864 -1.1711  0.5578
 2154SOL     OW 8329   2.449   3.997   5.354 -0.7375 -0.6050  0.6666
 2154SOL    HW1 8330   2.526   3.958   5.313  0.1311 -0.2489  1.9142
 2154SOL    HW2 8331   2.471   4.090   5.363 -0.3336 -0.8638  3.0769
 2155SOL     OW 8332   4.335   6.724   8.780 -0.1825 -0.2063 -0.1538
 2155SOL    HW1 8333   4.248   6.731   8.818  0.4188  0.2511  1.2057
 2155SOL    HW2 8334   4.369   6.814   8.780  0.9037 -0.5840  0.9040
 2156SOL     OW 8335   7.684   5.677   5.833 -0.3314  0.5328  0.0483
 2156SOL    HW1 8336   7.690   5.751   5.773 -2.0746  0.9529  0.3220
 2156SOL    HW2 8337   7.698   5.716   5.920 -3.1188  0.9741  0.3863
 2157SOL     OW 8338   4.426   5.609   5.454 -0.2260 -0.6925  0.4228
 2157SOL    HW1 8339   4.485   5.546   5.414 -0.2288  0.3842 -1.4224
 2157SOL    HW2 8340   4.342   5.594   5.411 -0.5216 -0.1983  0.8141
 2158SOL     OW 8341   6.771   4.674   3.878  0.4421  0.1212  0.2187
 2158SOL    HW1 8342   6.732   4.588   3.864  0.1264  0.4064 -0.7234
 2158SOL    HW2 8343   6.862   4.664   3.851  0.8121 -0.3072  1.5652
 2159SOL     OW 8344   3.052   6.442   5.880 -0.3942  0.2398  0.3817
 2159SOL    HW1 8345   3.126   6.395   5.920 -0.8713 -0.3701  0.5775
 2159SOL    HW2 8346   3.089   6.482   5.802 -0.4017 -2.3017 -1.0421
 2160SOL     OW 8347   7.797   4.679   1.178  0.2880 -0.2391 -0.0055
 2160SOL    HW1 8348   7.709   4.716   1.187  0.7985  0.8999  0.5090
 2160SOL    HW2 8349   7.852   4.734   1.234  1.4434 -0.5700 -0.7800
 2161SOL     OW 8350   8.830   4.388   4.880  0.1579 -0.1812  0.8001
 2161SOL    HW1 8351   8.882   4.365   4.803 -0.2081  2.3012 -0.3049
 2161SOL    HW2 8352   8.740   4.366   4.855 -0.2723  2.6192 -0.4870
 2162SOL     OW 8353   4.088   2.234   7.200  0.0845 -0.6543  0.2864
 2162SOL    HW1 8354   4.090   2.299   7.270 -1.5394  1.0094 -1.1217
 2162SOL    HW2 8355   4.028   2.167   7.232 -1.9435  0.8960 -0.0909
 2163SOL     OW 8356   6.036   4.595   6.869  0.0950 -0.4799  0.3527
 2163SOL    HW1 8357   5.980   4.591   6.791 -0.4550  0.5755  0.6820
 2163SOL    HW2 8358   6.109   4.537   6.848  0.2226  0.1862 -1.1626
 2164SOL     OW 8359   4.418   7.720   3.233  0.6115  0.0847  0.0467
 2164SOL    HW1 8360   4.473   7.790   3.199  1.8329 -0.1131  1.4643
 2164SOL    HW2 8361   4.478   7.646   3.245 -0.1511 -0.4442  0.7813
 2165SOL     OW 8362   7.127   7.483   1.454  0.4935  0.3582 -0.7226
 2165SOL    HW1 8363   7.078   7.463   1.374  0.4708 -1.0336 -0.3986
 2165SOL    HW2 8364   7.061   7.506   1.518  0.2757 -1.0298 -0.4229
 2166SOL     OW 8365   3.641   1.556   7.380  0.0026  0.1256 -0.2179
 2166SOL    HW1 8366   3.622   1.625   7.316 -1.2777  0.9220  0.9562
 2166SOL    HW2 8367   3.607   1.476   7.338  2.3155 -0.0277 -1.9783
 2167SOL     OW 8368   8.753   4.835   2.871  0.1759  0.2194 -0.5931
 2167SOL    HW1 8369   8.660   4.839   2.850 -0.4339  1.2434  1.9225
 2167SOL    HW2 8370   8.793   4.903   2.817 -0.8530  1.0314 -0.3583
 2168SOL     OW 8371   0.705   8.457   1.794  0.1768  0.3049 -0.5173
 2168SOL    HW1 8372   0.638   8.394   1.820 -0.6292 -0.0480 -3.2241
 2168SOL    HW2 8373   0.774   8.447   1.861 -1.2671 -1.2207  0.8272
 2169SOL     OW 8374   6.372   0.351   0.010 -0.3231 -0.3316  0.8149
 2169SOL    HW1 8375   6.377   0.406   0.088 -0.0637 -1.0632  1.3274
 2169SOL    HW2 8376   6.461   0.318  -0.002 -0.1074  0.6185 -0.4355
 2170SOL     OW 8377   5.520   0.937   0.417 -0.9066 -0.1441  0.0720
 2170SOL    HW1 8378   5.583   0.994   0.461  0.3212 -0.2063 -1.5074
 2170SOL    HW2 8379   5.447   0.996   0.394  0.2575  0.8173 -1.3589
 2171SOL     OW 8380   7.535   3.633   6.615  0.3535  0.3561  0.3477
 2171SOL    HW1 8381   7.554   3.695   6.686  0.7499 -0.0617  0.6138
 2171SOL    HW2 8382   7.609   3.642   6.555  0.9322 -0.5740  0.8936
 2172SOL     OW 8383   1.683   0.140   6.648 -0.0870  0.1780  0.1753
 2172SOL    HW1 8384   1.653   0.225   6.614  1.4008  0.6582  0.0021
 2172SOL    HW2 8385   1.619   0.077   6.614 -0.5953  1.0855 -0.6141
 2173SOL     OW 8386   1.878   1.129   3.206  0.0970  0.1327  0.2647
 2173SOL    HW1 8387   1.940   1.071   3.251 -0.8015 -0.8682  0.2699
 2173SOL    HW2 8388   1.869   1.204   3.264  0.9724  0.0951  0.4655
 2174SOL     OW 8389   6.607   7.505   3.650 -0.1471  0.6880 -0.2608
 2174SOL    HW1 8390   6.610   7.463   3.564  0.4432  0.4813 -0.1403
 2174SOL    HW2 8391   6.543   7.454   3.699  0.3197  0.1296 -0.2237
 2175SOL     OW 8392   3.082   8.225   0.608  0.4071 -0.2363  0.1173
 2175SOL    HW1 8393   3.167   8.228   0.563 -0.5065  1.8703 -1.6360
 2175SOL    HW2 8394   3.040   8.146   0.574  1.8077 -1.6010  1.4096
 2176SOL     OW 8395   5.104   4.760   7.203 -0.3622 -0.1841  0.3001
 2176SOL    HW1 8396   5.112   4.816   7.281  0.5934  1.5117 -0.9500
 2176SOL    HW2 8397   5.143   4.677   7.230  2.5020  1.2222  0.8868
 2177SOL     OW 8398   6.634   7.180   1.185 -0.5569  0.2193  0.0700
 2177SOL    HW1 8399   6.670   7.094   1.205 -1.9109 -0.4067 -0.0679
 2177SOL    HW2 8400   6.705   7.226   1.140  0.4803 -0.4921  0.9431
 2178SOL     OW 8401   5.171   0.284   6.074  0.4841 -0.5813 -0.1910
 2178SOL    HW1 8402   5.193   0.191   6.082 -0.9475 -0.9113  0.2085
 2178SOL    HW2 8403   5.184   0.303   5.981  1.2886 -1.0435 -0.1810
 2179SOL     OW 8404   3.251   0.021   8.874 -0.1930 -0.0475  0.4828
 2179SOL    HW1 8405   3.304   0.013   8.795  0.8449 -2.7617  1.3457
 2179SOL    HW2 8406   3.255   0.114   8.897  2.7236  0.1437 -0.4806
 2180SOL     OW 8407   7.100   3.537   0.411 -0.1802  0.4002 -0.6948
 2180SOL    HW1 8408   7.025   3.479   0.399  0.8621 -1.0439 -0.5390
 2180SOL    HW2 8409   7.154   3.523   0.333  0.3535  0.7626 -0.3954
 2181SOL     OW 8410   5.215   5.121   1.423  0.1456  0.3776 -0.0006
 2181SOL    HW1 8411   5.274   5.190   1.394 -1.2063  2.7975  2.4850
 2181SOL    HW2 8412   5.266   5.071   1.486  0.9453 -0.5790 -1.3653
 2182SOL     OW 8413   0.893   2.940   8.911  0.1396  0.1230  0.0563
 2182SOL    HW1 8414   0.958   2.875   8.938  0.1351 -0.3023 -0.9146
 2182SOL    HW2 8415   0.847   2.963   8.991  0.2489 -0.9603  0.4442
 2183SOL     OW 8416   4.351   1.258   7.816 -0.2036  0.1511  0.3166
 2183SOL    HW1 8417   4.386   1.302   7.893  0.3936 -0.9332  0.6813
 2183SOL    HW2 8418   4.398   1.299   7.743  1.9765 -1.3340  0.7980
 2184SOL     OW 8419   8.147   8.975   0.200 -0.2672 -0.2795  0.7564
 2184SOL    HW1 8420   8.065   9.013   0.168 -0.5674 -0.5169  1.2346
 2184SOL    HW2 8421   8.161   8.898   0.146 -1.0487 -0.9815  1.5104
 2185SOL     OW 8422   6.093   1.884   1.902  0.0576 -0.0763  0.4498
 2185SOL    HW1 8423   6.021   1.933   1.941  0.3487  2.0557 -1.4785
 2185SOL    HW2 8424   6.059   1.857   1.816  1.0551 -0.3164  0.1181
 2186SOL     OW 8425   2.576   1.330   7.961  0.1209  0.3128 -0.7775
 2186SOL    HW1 8426   2.655   1.279   7.978 -0.4497 -0.8104 -1.3134
 2186SOL    HW2 8427   2.606   1.420   7.951  1.6639 -0.3868 -3.2700
 2187SOL     OW 8428   5.126   0.506   6.756  0.5279  0.3085  0.2418
 2187SOL    HW1 8429   5.069   0.539   6.687  0.0405 -2.1437 -0.6575
 2187SOL    HW2 8430   5.152   0.583   6.805 -0.6664  1.9267 -1.5142
 2188SOL     OW 8431   1.312   7.739   5.827 -0.8997  0.5518  0.1810
 2188SOL    HW1 8432   1.360   7.742   5.910 -0.7265  0.7704  0.0731
 2188SOL    HW2 8433   1.378   7.713   5.762 -1.0215  0.4406  0.1014
 2189SOL     OW 8434   8.997   1.542   5.137  0.0777 -0.0342  0.6676
 2189SOL    HW1 8435   9.079   1.514   5.177 -0.2855 -1.3657  0.5350
 2189SOL    HW2 8436   8.932   1.533   5.207 -0.4328 -1.6995  0.0302
 2190SOL     OW 8437   5.430   2.960   1.733  0.5914 -0.2968 -0.1393
 2190SOL    HW1 8438   5.346   2.914   1.730  1.1056 -1.2538 -0.3665
 2190SOL    HW2 8439   5.425   3.016   1.810 -1.0914  1.3364 -1.3495
 2191SOL     OW 8440   2.452   3.341   1.490 -0.5051 -0.1874  0.5327
 2191SOL    HW1 8441   2.536   3.380   1.466 -0.9157  0.5628  0.2705
 2191SOL    HW2 8442   2.394   3.363   1.417 -0.4893 -2.2426 -0.1747
 2192SOL     OW 8443   3.201   5.168   2.701 -0.1385 -0.1819 -0.1844
 2192SOL    HW1 8444   3.120   5.182   2.653 -0.7348  1.1991  1.1526
 2192SOL    HW2 8445   3.270   5.189   2.638 -0.8545  0.0761 -0.9020
 2193SOL     OW 8446   4.840   6.724   8.695 -0.2193  0.3660 -0.2979
 2193SOL    HW1 8447   4.826   6.796   8.757  0.1882  0.5561 -0.4270
 2193SOL    HW2 8448   4.752   6.695   8.672 -0.4770  2.3438 -2.0425
 2194SOL     OW 8449   2.144   7.196   6.624 -0.0673 -0.2202  0.2614
 2194SOL    HW1 8450   2.171   7.136   6.555 -0.1430 -0.1389  0.1603
 2194SOL    HW2 8451   2.179   7.281   6.598  2.7894 -0.7542  1.9792
 2195SOL     OW 8452   5.489   5.463   6.559  0.2332 -0.0274 -0.4698
 2195SOL    HW1 8453   5.562   5.519   6.535 -0.6535 -0.0314 -3.6505
 2195SOL    HW2 8454   5.529   5.391   6.608  2.0349  0.9567 -0.4173
 2196SOL     OW 8455   0.628   7.048   1.186  0.4032  0.0291  0.1685
 2196SOL    HW1 8456   0.630   6.966   1.138  1.2773  1.0022 -1.5542
 2196SOL    HW2 8457   0.603   7.023   1.275  1.2451 -2.1574 -0.1441
 2197SOL     OW 8458   6.028   3.840   0.709 -0.2059 -0.4598 -0.0883
 2197SOL    HW1 8459   6.082   3.790   0.770 -0.0681 -0.1004  0.0893
 2197SOL    HW2 8460   6.049   3.805   0.623  2.5242  1.6012 -0.3858
 2198SOL     OW 8461   8.668   3.009   6.424 -0.6908 -0.0248  0.6112
 2198SOL    HW1 8462   8.592   3.016   6.482 -0.5596  0.8523  0.6776
 2198SOL    HW2 8463   8.720   3.086   6.442  0.5416 -0.9220  0.9913
 2199SOL     OW 8464   3.355   7.071   0.939 -0.2523  0.5665 -0.1910
 2199SOL    HW1 8465   3.340   7.034   1.025 -1.8728 -0.8329 -1.0143
 2199SOL    HW2 8466   3.444   7.046   0.917  0.2958  1.2170  1.1793
 2200SOL     OW 8467   2.723   3.236   4.964  0.4056 -0.2375 -0.2381
 2200SOL    HW1 8468   2.631   3.243   4.939  0.7582 -1.1011 -1.8637
 2200SOL    HW2 8469   2.726   3.164   5.027 -0.0802  0.1511  0.2476
 2201SOL     OW 8470   2.462   7.934   6.770 -0.3196 -0.0661 -0.5850
 2201SOL    HW1 8471   2.510   7.906   6.693 -1.6066 -2.6328 -0.5685
 2201SOL    HW2 8472   2.372   7.905   6.754 -1.4003  2.4039  0.4291
 2202SOL     OW 8473   3.904   6.821   7.448 -0.9801  0.1278  0.1634
 2202SOL    HW1 8474   3.811   6.829   7.469 -0.7774  1.1785  0.7229
 2202SOL    HW2 8475   3.948   6.824   7.532 -0.2622  2.6378 -0.2155
 2203SOL     OW 8476   3.160   1.394   3.230 -0.2067 -0.1996  0.3294
 2203SOL    HW1 8477   3.242   1.345   3.232 -0.9060 -1.4089  2.2470
 2203SOL    HW2 8478   3.184   1.483   3.253  0.4778 -0.7602  1.9491
 2204SOL     OW 8479   4.016   5.159   3.258  0.2693 -0.4154  0.3020
 2204SOL    HW1 8480   4.060   5.101   3.321 -0.2998  0.1879  1.2806
 2204SOL    HW2 8481   3.948   5.203   3.309 -1.0900 -0.8711 -1.0393
 2205SOL     OW 8482   5.343   3.636   3.280  0.3713  0.7175  0.0562
 2205SOL    HW1 8483   5.341   3.682   3.196  0.0961  0.4386 -0.0944
 2205SOL    HW2 8484   5.270   3.574   3.275 -0.6973  1.8472  1.1622
 2206SOL     OW 8485   1.303   4.834   7.840  0.0423  0.2165 -0.4790
 2206SOL    HW1 8486   1.365   4.765   7.866  0.3749  1.4241  2.2720
 2206SOL    HW2 8487   1.220   4.788   7.832  0.8544 -1.0675 -2.1055
 2207SOL     OW 8488   7.031   1.051   4.439  0.0522 -0.1373  0.1329
 2207SOL    HW1 8489   7.119   1.053   4.477  0.4482  1.5150 -0.7740
 2207SOL    HW2 8490   7.013   0.958   4.425  0.8912 -0.6356  2.0053
 2208SOL     OW 8491   6.100   6.501   4.514 -0.0641  0.0204  0.6206
 2208SOL    HW1 8492   6.101   6.405   4.514 -0.4097 -0.0070  1.7482
 2208SOL    HW2 8493   6.191   6.526   4.504  0.0173 -0.4255  0.1990
 2209SOL     OW 8494   5.571   0.977   3.635  0.1398 -0.4242  0.4382
 2209SOL    HW1 8495   5.501   0.937   3.584  2.2177 -2.6243 -0.9007
 2209SOL    HW2 8496   5.564   0.937   3.722 -1.5066  1.0052  1.0186
 2210SOL     OW 8497   2.266   3.385   7.871 -0.1625 -0.6477 -0.8725
 2210SOL    HW1 8498   2.252   3.293   7.896 -0.1785 -0.4700 -0.2137
 2210SOL    HW2 8499   2.279   3.382   7.776  0.3363 -1.3930 -0.7936
 2211SOL     OW 8500   8.070   5.823   1.285 -0.3254 -0.3254 -0.0772
 2211SOL    HW1 8501   7.991   5.774   1.310 -2.6246  2.2531 -1.6628
 2211SOL    HW2 8502   8.059   5.909   1.327  2.0073 -0.0760  0.1475
 2212SOL     OW 8503   2.843   6.145   1.696 -0.0138  0.0371  0.6954
 2212SOL    HW1 8504   2.847   6.073   1.759  0.2532 -0.1388  0.4761
 2212SOL    HW2 8505   2.900   6.118   1.624  0.6579  0.7749  0.9299
 2213SOL     OW 8506   5.836   7.344   1.658  0.1762 -0.6300 -0.0509
 2213SOL    HW1 8507   5.823   7.262   1.706 -0.9173  0.6909  2.0590
 2213SOL    HW2 8508   5.931   7.356   1.656  0.3109 -1.5692  0.2651
 2214SOL     OW 8509   0.959   2.545   6.658  0.1925  0.8689  0.1051
 2214SOL    HW1 8510   1.012   2.564   6.736  2.8932  1.1530 -1.6434
 2214SOL    HW2 8511   1.008   2.476   6.612 -1.4778  0.4738 -1.1757
 2215SOL     OW 8512   0.775   4.860   3.510  0.2014 -0.1024  0.5338
 2215SOL    HW1 8513   0.745   4.900   3.591  0.5606 -0.5369  0.8844
 2215SOL    HW2 8514   0.710   4.791   3.492  2.0474 -2.5407  2.4654
 2216SOL     OW 8515   2.591   3.864   1.262  0.6643 -0.3307 -0.5658
 2216SOL    HW1 8516   2.553   3.777   1.266 -0.5461  0.2018  0.1626
 2216SOL    HW2 8517   2.631   3.877   1.348  0.4388  0.0005 -0.5095
 2217SOL     OW 8518   6.572   7.695   3.341 -0.0640 -0.1107 -0.2457
 2217SOL    HW1 8519   6.609   7.734   3.421  0.0934 -0.9145  0.0805
 2217SOL    HW2 8520   6.478   7.689   3.359 -0.0569 -0.1034 -0.2049
 2218SOL     OW 8521   8.897   4.319   2.802 -0.1170  0.1625 -0.1067
 2218SOL    HW1 8522   8.890   4.379   2.876 -0.3943  0.2052 -0.1677
 2218SOL    HW2 8523   8.831   4.348   2.740 -1.0362 -0.8808  0.3527
 2219SOL     OW 8524   7.159   4.115   0.930 -0.1444 -0.6987 -0.0182
 2219SOL    HW1 8525   7.133   4.051   0.996  0.1532  1.1281  1.9819
 2219SOL    HW2 8526   7.245   4.085   0.900  0.3733 -0.8404  1.5075
 2220SOL     OW 8527   7.377   7.053   3.499  0.1133 -0.1516 -0.0888
 2220SOL    HW1 8528   7.367   7.139   3.459  1.9960  0.3534  0.3750
 2220SOL    HW2 8529   7.342   7.064   3.587 -1.1213 -0.3380 -0.5493
 2221SOL     OW 8530   0.929   0.112   7.238 -0.4584 -0.1512  0.7585
 2221SOL    HW1 8531   0.931   0.205   7.260 -2.5230  0.0371  0.3831
 2221SOL    HW2 8532   0.890   0.110   7.150  2.1428 -1.2386 -0.5032
 2222SOL     OW 8533   1.190   3.070   8.587 -0.3003 -0.0077 -1.2740
 2222SOL    HW1 8534   1.144   2.989   8.609 -0.6576  0.7336  0.8957
 2222SOL    HW2 8535   1.282   3.044   8.579 -0.1091 -0.3676  1.3376
 2223SOL     OW 8536   0.045   5.299   4.841  0.2779 -0.3194 -0.3484
 2223SOL    HW1 8537   0.075   5.360   4.774  1.9420  0.2347  0.8275
 2223SOL    HW2 8538   0.009   5.354   4.910  0.3936 -0.7433  0.0624
 2224SOL     OW 8539   1.807   5.009   2.914 -0.4203  0.6425 -0.1852
 2224SOL    HW1 8540   1.776   5.098   2.899  2.2113  1.5837 -0.5772
 2224SOL    HW2 8541   1.872   5.018   2.985  0.8238 -0.7158 -1.0934
 2225SOL     OW 8542   6.079   7.683   1.790  0.0928  0.3291 -0.3990
 2225SOL    HW1 8543   6.117   7.749   1.731  1.5102 -1.4839 -1.6629
 2225SOL    HW2 8544   5.986   7.684   1.770  0.0773  1.8641 -0.4242
 2226SOL     OW 8545   5.025   2.452   8.304 -0.6249 -0.3938 -0.4358
 2226SOL    HW1 8546   5.036   2.431   8.397  0.2185 -1.6990 -0.7957
 2226SOL    HW2 8547   4.997   2.369   8.264 -3.3739  0.7049 -1.0147
 2227SOL     OW 8548   8.283   2.912   6.846  0.0686  0.0478 -0.2518
 2227SOL    HW1 8549   8.312   2.993   6.887  1.3059 -0.4497 -0.0932
 2227SOL    HW2 8550   8.277   2.849   6.918  0.7238 -0.4181 -0.5867
 2228SOL     OW 8551   2.439   6.167   2.502  0.0565  0.5704 -0.0025
 2228SOL    HW1 8552   2.368   6.105   2.485  0.8838 -0.4138  0.0383
 2228SOL    HW2 8553   2.439   6.225   2.426  0.3374 -0.5281 -0.8652
 2229SOL     OW 8554   0.093   1.808   4.289  0.5517  0.1676 -0.1149
 2229SOL    HW1 8555   0.107   1.817   4.384  0.6093  1.1782 -0.2089
 2229SOL    HW2 8556   0.028   1.739   4.281  0.8347 -0.2037  0.6424
 2230SOL     OW 8557   3.770   8.937   5.427 -0.1136 -0.9104 -0.4862
 2230SOL    HW1 8558   3.755   9.023   5.465  1.4733 -0.3234 -1.1243
 2230SOL    HW2 8559   3.683   8.902   5.411 -0.9156  1.9359 -3.2946
 2231SOL     OW 8560   6.114   7.116   6.041  0.5969 -0.5210 -0.0005
 2231SOL    HW1 8561   6.157   7.155   5.965 -0.2908 -0.5768 -0.5418
 2231SOL    HW2 8562   6.053   7.052   6.004 -1.0055  0.5772  0.6645
 2232SOL     OW 8563   8.588   8.435   7.301  0.1244 -0.1053  0.3051
 2232SOL    HW1 8564   8.642   8.509   7.274 -0.4911  0.3599  0.3173
 2232SOL    HW2 8565   8.614   8.418   7.392 -0.5846  0.9016  0.7189
 2233SOL     OW 8566   1.415   3.128   6.695  0.4286 -0.2266  0.5674
 2233SOL    HW1 8567   1.470   3.066   6.744 -0.3446 -0.0216  1.7199
 2233SOL    HW2 8568   1.337   3.077   6.671  0.1293  0.0858  0.8661
 2234SOL     OW 8569   0.865   3.608   2.496 -0.4161  0.4741  0.7279
 2234SOL    HW1 8570   0.811   3.684   2.473 -0.1538  0.4163 -0.1180
 2234SOL    HW2 8571   0.919   3.593   2.419 -0.4090 -0.5297  0.9131
 2235SOL     OW 8572   7.189   6.261   1.999  0.0232 -0.2947 -0.0645
 2235SOL    HW1 8573   7.274   6.263   2.044  0.5261 -0.5528 -0.9783
 2235SOL    HW2 8574   7.147   6.344   2.023 -0.1836 -0.8770  1.7202
 2236SOL     OW 8575   5.806   2.280   2.083 -0.3241 -0.5636 -0.0571
 2236SOL    HW1 8576   5.778   2.236   2.163 -0.4216 -0.5467 -0.0816
 2236SOL    HW2 8577   5.757   2.362   2.083 -1.1782 -1.0551 -0.7042
 2237SOL     OW 8578   3.301   7.635   5.083 -0.1473 -0.2242 -0.3299
 2237SOL    HW1 8579   3.378   7.586   5.112  0.2762  0.7338  0.1959
 2237SOL    HW2 8580   3.227   7.583   5.116  0.2985 -0.3448  0.5169
 2238SOL     OW 8581   7.139   3.676   8.492 -0.9078 -0.0333  0.3094
 2238SOL    HW1 8582   7.090   3.722   8.424 -0.3461  0.6130  0.3295
 2238SOL    HW2 8583   7.214   3.638   8.447 -0.2652  0.8146  0.6313
 2239SOL     OW 8584   3.913   6.654   3.269 -0.0614  0.1471  0.5177
 2239SOL    HW1 8585   3.950   6.737   3.300 -1.4242  0.6469  0.8842
 2239SOL    HW2 8586   3.823   6.675   3.244 -0.0881 -0.9959 -0.4658
 2240SOL     OW 8587   2.599   6.101   4.287 -0.1221 -0.0089 -0.2896
 2240SOL    HW1 8588   2.657   6.120   4.361 -0.8967 -0.6433  0.5065
 2240SOL    HW2 8589   2.579   6.186   4.249  1.1319  0.2421 -0.4425
 2241SOL     OW 8590   1.359   6.657   1.210  0.2011 -0.0108 -0.0049
 2241SOL    HW1 8591   1.289   6.604   1.248  0.8043 -1.4254 -0.7807
 2241SOL    HW2 8592   1.414   6.683   1.284 -1.0552  1.0145  0.5904
 2242SOL     OW 8593   1.244   4.180   6.821  0.5464 -0.7876  0.2549
 2242SOL    HW1 8594   1.224   4.273   6.810 -1.1161 -1.0518  0.8431
 2242SOL    HW2 8595   1.168   4.134   6.785  1.2998 -1.9303  0.0649
 2243SOL     OW 8596   0.586   4.413   0.732 -0.2103 -0.0678 -0.3741
 2243SOL    HW1 8597   0.527   4.456   0.670 -1.4226 -2.6423 -1.1492
 2243SOL    HW2 8598   0.554   4.440   0.818 -1.3843  0.0122 -0.8205
 2244SOL     OW 8599   0.546   6.787   8.164 -0.1353 -0.4317 -0.5954
 2244SOL    HW1 8600   0.528   6.710   8.219 -2.1279 -1.5430 -2.6303
 2244SOL    HW2 8601   0.485   6.778   8.090 -0.7678  3.3615 -0.7147
 2245SOL     OW 8602   5.126   3.504   1.207  0.3177  0.0752 -0.0538
 2245SOL    HW1 8603   5.208   3.487   1.253  1.6106  4.2503 -0.3828
 2245SOL    HW2 8604   5.072   3.553   1.270  0.2003  1.7475 -1.3789
 2246SOL     OW 8605   4.944   7.015   5.469 -0.3643 -0.1945  0.0487
 2246SOL    HW1 8606   4.977   7.046   5.554 -0.1667  1.7055 -0.6849
 2246SOL    HW2 8607   4.850   7.032   5.473 -0.2766  0.3765 -0.3070
 2247SOL     OW 8608   0.457   7.644   5.698 -0.2092  0.0937 -0.0258
 2247SOL    HW1 8609   0.529   7.702   5.675 -0.3860  0.4365  0.2813
 2247SOL    HW2 8610   0.378   7.698   5.688 -0.4134 -0.2346 -0.2200
 2248SOL     OW 8611   7.575   8.807   8.182 -0.2907 -0.3861  0.0617
 2248SOL    HW1 8612   7.604   8.789   8.092  0.1110 -0.2224  0.1605
 2248SOL    HW2 8613   7.620   8.887   8.207 -0.5154 -0.3515  0.3588
 2249SOL     OW 8614   6.367   6.262   6.937 -0.1897  0.9538 -0.2801
 2249SOL    HW1 8615   6.288   6.229   6.978 -1.0285  1.9787 -1.0231
 2249SOL    HW2 8616   6.390   6.196   6.871 -2.1809  2.0077 -2.1566
 2250SOL     OW 8617   6.683   4.473   8.079  0.0291  0.4260 -0.2455
 2250SOL    HW1 8618   6.659   4.420   8.003  0.8485  0.1619 -0.3302
 2250SOL    HW2 8619   6.774   4.497   8.063  0.1339  0.5618  0.5463
 2251SOL     OW 8620   8.286   2.928   0.071 -0.1125 -0.2462  0.4381
 2251SOL    HW1 8621   8.282   2.958  -0.020 -0.5784 -2.5949 -0.3793
 2251SOL    HW2 8622   8.195   2.921   0.097  0.0083 -0.2852  0.8510
 2252SOL     OW 8623   7.728   1.202   7.883 -0.5230  0.1791 -0.0153
 2252SOL    HW1 8624   7.750   1.188   7.791  2.6626 -0.1024  0.6827
 2252SOL    HW2 8625   7.682   1.122   7.909 -1.5722  0.3198 -1.3659
 2253SOL     OW 8626   5.240   8.794   0.935  0.7084 -0.0026  0.6154
 2253SOL    HW1 8627   5.303   8.852   0.980  2.3949 -1.8068  0.7148
 2253SOL    HW2 8628   5.278   8.707   0.942 -1.0817 -0.9631 -0.7014
 2254SOL     OW 8629   2.992   3.429   2.533  0.4472  0.7549  0.3367
 2254SOL    HW1 8630   2.931   3.403   2.465  1.2794  1.0081 -0.5278
 2254SOL    HW2 8631   2.937   3.469   2.601 -0.3827  0.5447 -0.1979
 2255SOL     OW 8632   1.946   8.803   4.096  0.2662  0.1253  0.2229
 2255SOL    HW1 8633   1.940   8.709   4.112 -1.2305  0.0218 -0.7909
 2255SOL    HW2 8634   1.879   8.821   4.029  0.3652  1.9426  0.5561
 2256SOL     OW 8635   2.444   0.362   7.484 -0.4880  0.6626 -0.2324
 2256SOL    HW1 8636   2.445   0.284   7.540 -1.8318  0.5906 -0.2783
 2256SOL    HW2 8637   2.457   0.328   7.395  1.5068  0.7652 -0.0458
 2257SOL     OW 8638   5.403   5.503   7.266 -0.2863  0.1833  0.1942
 2257SOL    HW1 8639   5.386   5.418   7.306 -1.8008  1.0320  1.4713
 2257SOL    HW2 8640   5.395   5.487   7.171 -3.1390 -0.6225  0.4862
 2258SOL     OW 8641   3.983   1.004   4.800  0.4346 -0.8730 -0.0663
 2258SOL    HW1 8642   3.977   1.090   4.841 -0.1234 -0.8854 -0.1083
 2258SOL    HW2 8643   3.892   0.981   4.781  0.6451 -1.1017 -0.8158
 2259SOL     OW 8644   1.218   4.388   6.355  0.2802  0.1058  0.0654
 2259SOL    HW1 8645   1.197   4.310   6.406  1.1096 -0.6428 -0.7083
 2259SOL    HW2 8646   1.276   4.439   6.412  2.8941 -1.7031 -0.8137
 2260SOL     OW 8647   8.661   1.060   3.484  0.0924  0.6365  0.1606
 2260SOL    HW1 8648   8.688   1.007   3.559 -1.4240  0.1043  0.3658
 2260SOL    HW2 8649   8.566   1.065   3.492  0.1437  3.0992 -0.0682
 2261SOL     OW 8650   7.283   2.194   1.644  0.3230  0.0663  0.4550
 2261SOL    HW1 8651   7.207   2.243   1.615 -0.5143 -0.9661  0.8449
 2261SOL    HW2 8652   7.313   2.239   1.723 -1.6340 -1.1366  1.9694
 2262SOL     OW 8653   5.211   4.013   1.044 -0.2750 -0.3933 -0.7350
 2262SOL    HW1 8654   5.187   4.083   0.983 -0.1716  1.1230  0.8802
 2262SOL    HW2 8655   5.129   3.991   1.089 -0.2890 -1.2836 -1.1623
 2263SOL     OW 8656   8.181   6.534   1.918  0.1350 -0.3054  0.0992
 2263SOL    HW1 8657   8.182   6.612   1.973 -0.9030 -0.2488  0.0604
 2263SOL    HW2 8658   8.239   6.556   1.845  0.2321  0.2475  0.3348
 2264SOL     OW 8659   5.649   7.329   8.465  0.4795  0.2179 -0.6431
 2264SOL    HW1 8660   5.695   7.246   8.448  3.3023  1.4741  0.2356
 2264SOL    HW2 8661   5.557   7.306   8.458  1.1388 -2.8524 -1.1386
 2265SOL     OW 8662   3.378   2.285   3.883  0.0836 -0.2269 -0.1753
 2265SOL    HW1 8663   3.337   2.264   3.967  0.8064 -0.0468  0.2300
 2265SOL    HW2 8664   3.411   2.201   3.851 -1.5864 -0.5923 -1.0707
 2266SOL     OW 8665   6.626   8.268   7.385 -0.0546  0.7387 -0.0039
 2266SOL    HW1 8666   6.631   8.363   7.387 -0.2806  1.0998 -4.8592
 2266SOL    HW2 8667   6.707   8.239   7.427  0.7928  3.1115  0.1474
 2267SOL     OW 8668   2.388   0.172   6.838  0.3088 -0.3852 -0.4586
 2267SOL    HW1 8669   2.470   0.193   6.883 -0.4186 -0.3513  0.9183
 2267SOL    HW2 8670   2.348   0.103   6.892 -1.0713  0.3663 -0.4822
 2268SOL     OW 8671   8.965   5.101   4.374  0.2454 -0.2951 -0.4533
 2268SOL    HW1 8672   8.871   5.082   4.376  0.0292  0.6342 -1.0000
 2268SOL    HW2 8673   8.970   5.196   4.387  1.1206 -0.3505 -0.3248
 2269SOL     OW 8674   1.380   6.628   5.911  0.0142  0.3609 -0.6757
 2269SOL    HW1 8675   1.308   6.613   5.849 -1.1072  1.6852  0.2610
 2269SOL    HW2 8676   1.359   6.711   5.953  1.9182  0.5880 -0.0923
 2270SOL     OW 8677   4.164   0.974   1.997 -0.2037  0.6123 -0.2946
 2270SOL    HW1 8678   4.228   1.044   1.985  0.1552  0.1004 -1.5311
 2270SOL    HW2 8679   4.083   1.020   2.021  0.1538  1.4120 -0.5871
 2271SOL     OW 8680   7.043   5.151   5.517 -0.2865  0.0579 -0.1714
 2271SOL    HW1 8681   7.003   5.177   5.435  0.5046  0.0137 -0.5772
 2271SOL    HW2 8682   6.991   5.195   5.585  1.0639  2.8292 -0.8051
 2272SOL     OW 8683   1.234   3.609   2.361  0.4129  0.4753  0.0135
 2272SOL    HW1 8684   1.269   3.554   2.291 -0.0495 -1.5548  1.2807
 2272SOL    HW2 8685   1.308   3.623   2.420 -0.2166 -1.9185  1.5275
 2273SOL     OW 8686   8.682   7.132   0.578 -0.4674 -0.1431  0.0187
 2273SOL    HW1 8687   8.660   7.132   0.671 -0.3169 -0.2229  0.0544
 2273SOL    HW2 8688   8.764   7.181   0.573 -1.5218  1.6958 -0.3248
 2274SOL     OW 8689   1.520   7.753   7.965 -0.2650 -0.9185  0.0929
 2274SOL    HW1 8690   1.605   7.710   7.969 -0.0636 -0.5411 -0.0770
 2274SOL    HW2 8691   1.460   7.684   7.939 -0.0248 -1.2072  0.2995
 2275SOL     OW 8692   8.533   2.129   4.242  0.3603 -0.2533 -0.0696
 2275SOL    HW1 8693   8.486   2.063   4.191  1.1343 -0.2796 -0.7681
 2275SOL    HW2 8694   8.582   2.178   4.177 -2.7480  3.2948 -0.0831
 2276SOL     OW 8695   6.119   8.656   4.769  0.2529 -0.2490  0.6169
 2276SOL    HW1 8696   6.195   8.613   4.732  0.1085 -0.1755  0.2298
 2276SOL    HW2 8697   6.135   8.750   4.755 -0.3462 -0.2758 -0.3389
 2277SOL     OW 8698   1.651   6.436   8.911  0.3085  0.3400  0.7458
 2277SOL    HW1 8699   1.628   6.521   8.949  1.4121 -0.3668  3.2059
 2277SOL    HW2 8700   1.727   6.407   8.961  0.7509 -1.5580 -0.8758
 2278SOL     OW 8701   0.075   1.756   4.892  0.3000  0.7804  0.3457
 2278SOL    HW1 8702  -0.005   1.769   4.842 -0.0280  1.4349  1.0211
 2278SOL    HW2 8703   0.056   1.795   4.978  1.2156  0.6180  0.6303
 2279SOL     OW 8704   4.045   1.498   6.944 -0.0530 -0.0283 -0.3679
 2279SOL    HW1 8705   4.091   1.551   7.009 -0.2979  0.4248 -0.5587
 2279SOL    HW2 8706   3.953   1.525   6.951 -0.4560 -1.4985  0.5713
 2280SOL     OW 8707   2.786   6.549   4.191  0.4352  0.3977  0.0166
 2280SOL    HW1 8708   2.744   6.469   4.161  0.6133  0.2148  0.2519
 2280SOL    HW2 8709   2.746   6.566   4.276  2.1785 -0.8314  1.1385
 2281SOL     OW 8710   7.198   8.474   4.698  0.4962 -0.0039  0.0017
 2281SOL    HW1 8711   7.236   8.409   4.639 -1.6006 -0.4338 -0.9438
 2281SOL    HW2 8712   7.143   8.423   4.758 -1.1653  0.8324 -0.7466
 2282SOL     OW 8713   6.531   7.429   4.731  0.1842  0.1716 -0.1150
 2282SOL    HW1 8714   6.464   7.367   4.758  0.9130 -1.3406 -1.6144
 2282SOL    HW2 8715   6.587   7.439   4.807 -0.0311 -0.8915  0.1885
 2283SOL     OW 8716   8.644   6.331   6.671  0.1471 -0.2528 -0.0521
 2283SOL    HW1 8717   8.630   6.392   6.743  0.7980 -0.7092  0.4735
 2283SOL    HW2 8718   8.620   6.380   6.593  1.4674  0.9874  0.2750
 2284SOL     OW 8719   1.989   6.348   1.564 -0.3436 -0.2776 -0.1081
 2284SOL    HW1 8720   2.038   6.413   1.514  0.5441 -1.3769 -0.7323
 2284SOL    HW2 8721   2.038   6.339   1.646  0.9096 -1.7465 -0.9346
 2285SOL     OW 8722   4.758   7.402   1.861 -0.0744 -0.3349 -0.1534
 2285SOL    HW1 8723   4.768   7.369   1.950 -1.0997 -2.0172 -0.6157
 2285SOL    HW2 8724   4.700   7.478   1.870  2.1578  1.3389  0.9054
 2286SOL     OW 8725   1.968   4.041   6.859 -0.4762  0.4661 -0.2293
 2286SOL    HW1 8726   1.900   3.978   6.835 -0.9382  0.1893  1.6390
 2286SOL    HW2 8727   1.925   4.101   6.920  0.8837  0.4272  0.8168
 2287SOL     OW 8728   8.809   5.092   3.528 -0.1545  0.0421  0.0516
 2287SOL    HW1 8729   8.883   5.151   3.544  0.3784 -0.9856  1.5994
 2287SOL    HW2 8730   8.836   5.040   3.452  0.3395  0.2597  0.0727
 2288SOL     OW 8731   6.940   6.992   8.149  0.7363 -0.1109 -0.2038
 2288SOL    HW1 8732   7.004   7.007   8.079  1.4208  0.3273  0.4957
 2288SOL    HW2 8733   6.905   7.079   8.168 -1.0576 -0.4975 -1.4564
 2289SOL     OW 8734   4.214   5.208   3.555  0.2756  0.0279 -0.2107
 2289SOL    HW1 8735   4.245   5.292   3.590  2.6492 -0.0436 -1.8888
 2289SOL    HW2 8736   4.135   5.188   3.606  1.7695  1.3840  2.9443
 2290SOL     OW 8737   1.936   4.430   5.366  0.2124 -0.1815 -0.1542
 2290SOL    HW1 8738   1.983   4.428   5.283  0.2867 -1.4886 -0.1032
 2290SOL    HW2 8739   1.986   4.373   5.425 -0.5013 -0.2608  0.4053
 2291SOL     OW 8740   7.437   1.937   2.956 -0.6244 -0.0029  0.5152
 2291SOL    HW1 8741   7.365   1.896   3.004 -1.1920  1.3197  0.8430
 2291SOL    HW2 8742   7.426   2.031   2.972  1.6144  0.1990  1.1913
 2292SOL     OW 8743   2.300   5.692   4.533  0.0382 -0.1228  0.0688
 2292SOL    HW1 8744   2.291   5.753   4.461  0.2870  0.6856  0.7098
 2292SOL    HW2 8745   2.237   5.723   4.599 -0.2144 -0.8712  0.1955
 2293SOL     OW 8746   6.837   1.226   0.181 -0.0194  0.1653  0.2076
 2293SOL    HW1 8747   6.779   1.154   0.157 -0.4303  1.0077 -1.4770
 2293SOL    HW2 8748   6.920   1.184   0.201 -0.1015 -0.7694 -1.2341
 2294SOL     OW 8749   0.378   5.592   4.958  0.5492  0.0208  0.6725
 2294SOL    HW1 8750   0.464   5.603   4.998  0.0453  2.0783  1.3054
 2294SOL    HW2 8751   0.387   5.630   4.870  0.3992 -0.1349  0.5893
 2295SOL     OW 8752   1.713   5.263   8.239  0.2635  0.0530 -0.1620
 2295SOL    HW1 8753   1.717   5.185   8.184 -0.7449 -1.2010  1.4532
 2295SOL    HW2 8754   1.714   5.230   8.328  1.2239  1.9943  0.6107
 2296SOL     OW 8755   7.436   7.757   0.180 -0.0534  0.3314  0.0024
 2296SOL    HW1 8756   7.512   7.794   0.135 -0.8169  0.6492 -1.0423
 2296SOL    HW2 8757   7.474   7.713   0.256  1.0769  1.4116  0.1062
 2297SOL     OW 8758   7.896   5.959   1.846 -0.5418  0.3390 -0.0226
 2297SOL    HW1 8759   7.819   5.928   1.799 -1.2534  1.6032  0.2510
 2297SOL    HW2 8760   7.969   5.912   1.807 -1.0004  1.7660 -2.8765
 2298SOL     OW 8761   3.101   2.703   6.886 -0.7008  0.2996  0.0729
 2298SOL    HW1 8762   3.012   2.738   6.881 -0.6794  0.3470  0.0225
 2298SOL    HW2 8763   3.158   2.780   6.885 -0.6358  0.2481 -0.4324
 2299SOL     OW 8764   2.350   2.305   3.766 -0.4954 -0.1514 -0.7791
 2299SOL    HW1 8765   2.344   2.211   3.784 -0.3485  0.0811  0.6604
 2299SOL    HW2 8766   2.395   2.341   3.843 -1.4634  1.2324 -0.8162
 2300SOL     OW 8767   7.790   1.785   6.801  0.5458 -0.1660 -0.1378
 2300SOL    HW1 8768   7.831   1.798   6.715  0.0670 -0.6371 -0.4477
 2300SOL    HW2 8769   7.856   1.813   6.864 -0.7874  5.1986 -0.6425
 2301SOL     OW 8770   4.017   7.343   1.240 -0.2105  0.2953 -0.0287
 2301SOL    HW1 8771   4.007   7.288   1.318 -0.0941  0.7978  0.3446
 2301SOL    HW2 8772   3.930   7.379   1.224 -0.2632  0.0911 -0.2118
 2302SOL     OW 8773   1.503   0.051   8.041 -0.3522 -0.6579 -0.1991
 2302SOL    HW1 8774   1.581  -0.003   8.050 -0.1692 -0.5428 -0.9830
 2302SOL    HW2 8775   1.514   0.122   8.105 -0.6302 -1.5690  0.8917
 2303SOL     OW 8776   2.877   0.943   8.182  0.4299  0.2952  0.0576
 2303SOL    HW1 8777   2.958   0.909   8.145 -0.1897 -0.2706 -0.8259
 2303SOL    HW2 8778   2.808   0.896   8.135 -0.4119  0.9660  0.5956
 2304SOL     OW 8779   1.539   8.961   6.502  0.0638 -0.3986 -0.1836
 2304SOL    HW1 8780   1.463   9.014   6.526 -0.3324 -0.9918 -0.1035
 2304SOL    HW2 8781   1.504   8.893   6.445  0.2697 -1.5593  1.0290
 2305SOL     OW 8782   5.651   1.289   8.873  0.4328 -0.1966 -0.4751
 2305SOL    HW1 8783   5.739   1.266   8.904  0.9070  2.4605  0.3461
 2305SOL    HW2 8784   5.664   1.364   8.815 -1.2390 -0.2563 -0.9802
 2306SOL     OW 8785   8.387   6.309   2.316 -0.0828 -0.0040  1.0794
 2306SOL    HW1 8786   8.469   6.285   2.273  0.1064 -0.6896  1.8070
 2306SOL    HW2 8787   8.411   6.381   2.374 -0.0748  0.0513  1.0078
 2307SOL     OW 8788   5.437   0.092   5.024 -0.1047 -0.1679 -0.3727
 2307SOL    HW1 8789   5.400   0.032   5.090  0.6439 -1.6893 -1.2738
 2307SOL    HW2 8790   5.518   0.124   5.064 -1.6142  2.1363  1.0620
 2308SOL     OW 8791   5.054   7.573   3.427  0.0447 -0.9039 -0.0867
 2308SOL    HW1 8792   5.097   7.640   3.375 -1.8033  0.2240 -0.2732
 2308SOL    HW2 8793   5.040   7.500   3.366  2.7276 -1.8604  0.3076
 2309SOL     OW 8794   6.647   5.781   4.228  0.5138 -0.2087  0.7155
 2309SOL    HW1 8795   6.609   5.863   4.258  0.4423 -0.5424  1.5547
 2309SOL    HW2 8796   6.583   5.714   4.252  1.5873 -0.7832  2.1367
 2310SOL     OW 8797   0.876   0.677   0.170  0.2439 -0.5750 -0.7875
 2310SOL    HW1 8798   0.942   0.702   0.236  0.6000  2.0311 -2.0288
 2310SOL    HW2 8799   0.890   0.583   0.158  1.7540 -0.6667  1.1266
 2311SOL     OW 8800   6.117   8.836   0.015 -0.4788 -0.0173  0.3058
 2311SOL    HW1 8801   6.193   8.846  -0.043 -0.4088  0.8704  0.5318
 2311SOL    HW2 8802   6.155   8.817   0.101 -0.5721 -1.0606  0.1212
 2312SOL     OW 8803   6.249   7.912   7.547  0.2576  0.5387  0.0063
 2312SOL    HW1 8804   6.170   7.962   7.567  1.3117  1.8412  1.0873
 2312SOL    HW2 8805   6.313   7.978   7.521  1.1734 -0.4387 -0.2772
 2313SOL     OW 8806   7.495   3.296   4.624 -0.8787 -0.3778  0.1148
 2313SOL    HW1 8807   7.568   3.332   4.675  0.8751 -1.1757 -1.7004
 2313SOL    HW2 8808   7.446   3.374   4.595  0.4853  0.3384 -0.3632
 2314SOL     OW 8809   5.952   7.386   4.404 -0.0828  0.6589  0.1026
 2314SOL    HW1 8810   6.048   7.391   4.411  0.4160 -2.5710 -2.0680
 2314SOL    HW2 8811   5.935   7.296   4.378 -3.7299  1.3090 -0.2999
 2315SOL     OW 8812   8.181   3.238   0.698  0.2512  0.1279  0.0083
 2315SOL    HW1 8813   8.265   3.193   0.708  0.0589 -0.5845 -1.3124
 2315SOL    HW2 8814   8.134   3.186   0.633 -2.3933 -1.1760  2.7239
 2316SOL     OW 8815   3.882   4.658   6.927 -0.2175 -0.0531 -0.1181
 2316SOL    HW1 8816   3.852   4.587   6.870 -0.6698  0.0564 -0.0183
 2316SOL    HW2 8817   3.826   4.732   6.904 -0.1076  0.1155  0.1576
 2317SOL     OW 8818   5.246   1.279   8.271  0.0571 -0.3821  0.8556
 2317SOL    HW1 8819   5.268   1.214   8.205 -2.3632  0.6191 -1.0648
 2317SOL    HW2 8820   5.314   1.346   8.263  1.6189 -1.7624  1.7255
 2318SOL     OW 8821   0.286   2.546   1.311 -0.0199  0.3790 -0.2298
 2318SOL    HW1 8822   0.250   2.551   1.399 -0.4307 -1.0555 -0.2863
 2318SOL    HW2 8823   0.221   2.496   1.261  0.2755  1.0347 -1.3090
 2319SOL     OW 8824   7.109   1.863   0.690 -0.3955  0.3624  0.3072
 2319SOL    HW1 8825   7.147   1.910   0.764 -0.9105 -0.5085  1.1488
 2319SOL    HW2 8826   7.170   1.792   0.673 -0.6902  0.0789  0.4296
 2320SOL     OW 8827   3.842   2.666   8.709  0.4220 -0.1414  0.5110
 2320SOL    HW1 8828   3.838   2.679   8.804  0.3663 -0.0513  0.4964
 2320SOL    HW2 8829   3.925   2.621   8.695  1.3445  1.4973  0.4193
 2321SOL     OW 8830   3.013   6.566   6.475 -0.0868  0.1407  0.1992
 2321SOL    HW1 8831   2.922   6.560   6.446  0.1139  0.0597 -0.4207
 2321SOL    HW2 8832   3.055   6.627   6.414  0.7645 -1.3645 -0.7804
 2322SOL     OW 8833   7.655   3.403   7.894  0.4181  0.0830  0.7987
 2322SOL    HW1 8834   7.748   3.390   7.912  0.0060 -1.3197  2.1457
 2322SOL    HW2 8835   7.631   3.478   7.949  1.1218  1.7761 -1.0651
 2323SOL     OW 8836   3.629   8.145   1.319 -0.1220 -0.1461 -0.4499
 2323SOL    HW1 8837   3.626   8.100   1.403 -0.3829 -0.6727 -0.7407
 2323SOL    HW2 8838   3.722   8.148   1.296 -0.0926 -0.4067 -0.3617
 2324SOL     OW 8839   7.333   4.002   3.310  0.3755  0.0998  0.0434
 2324SOL    HW1 8840   7.332   3.914   3.273  0.4837 -1.1639  2.7851
 2324SOL    HW2 8841   7.377   3.992   3.395  0.1277  2.7553  0.5863
 2325SOL     OW 8842   3.774   1.859   6.494 -0.1915  0.2599 -0.1433
 2325SOL    HW1 8843   3.707   1.868   6.561 -1.7086 -0.0825 -1.5369
 2325SOL    HW2 8844   3.798   1.949   6.473 -0.8185  0.4229 -0.1909
 2326SOL     OW 8845   8.103   0.738   0.988 -0.1581  0.4070  0.0818
 2326SOL    HW1 8846   8.100   0.719   0.894 -0.9243 -0.0928  0.1921
 2326SOL    HW2 8847   8.090   0.652   1.030  0.7988  0.5319  0.6480
 2327SOL     OW 8848   4.081   6.687   5.969  0.0327 -0.5882  0.5258
 2327SOL    HW1 8849   4.143   6.672   6.039  1.5902 -1.3310 -0.9452
 2327SOL    HW2 8850   4.119   6.759   5.918 -0.9566 -0.2085  0.2967
 2328SOL     OW 8851   0.930   6.374   2.830  0.2677  0.1503 -0.5411
 2328SOL    HW1 8852   0.951   6.325   2.909 -0.5701 -1.4960 -1.2906
 2328SOL    HW2 8853   0.840   6.350   2.811  0.4666  0.5046 -2.0105
 2329SOL     OW 8854   7.692   8.083   8.603 -0.3515  0.2680 -0.1715
 2329SOL    HW1 8855   7.623   8.148   8.614 -0.7601 -0.3478  1.1245
 2329SOL    HW2 8856   7.650   7.999   8.621  0.9348 -0.0292  1.8505
 2330SOL     OW 8857   1.725   8.693   0.438 -0.8875 -0.4257  0.8919
 2330SOL    HW1 8858   1.721   8.712   0.531 -2.9421 -2.2246  1.2673
 2330SOL    HW2 8859   1.642   8.650   0.419 -0.9459  0.7134 -1.9937
 2331SOL     OW 8860   1.684   4.846   7.734 -0.0128  0.3969  0.0944
 2331SOL    HW1 8861   1.590   4.842   7.747 -0.3384 -1.0914 -2.2138
 2331SOL    HW2 8862   1.695   4.861   7.640  2.0424  0.5125  0.3073
 2332SOL     OW 8863   2.469   3.808   8.218 -0.1985 -0.4038  0.3435
 2332SOL    HW1 8864   2.484   3.856   8.137  2.5866 -0.4250  0.7765
 2332SOL    HW2 8865   2.469   3.716   8.191 -0.3090 -0.3767  0.2468
 2333SOL     OW 8866   0.813   0.788   6.893  0.2892 -0.0715  0.0281
 2333SOL    HW1 8867   0.747   0.727   6.924  0.8892 -1.2488 -0.9209
 2333SOL    HW2 8868   0.876   0.794   6.965  1.0595 -1.8545 -0.4570
 2334SOL     OW 8869   1.970   2.702   2.547  0.6725  0.2033  0.1127
 2334SOL    HW1 8870   2.004   2.698   2.636  0.2426  0.1488  0.2796
 2334SOL    HW2 8871   2.047   2.706   2.491  1.0027 -1.4720  0.3920
 2335SOL     OW 8872   0.314   0.191   6.082 -0.4381  0.3945 -0.4699
 2335SOL    HW1 8873   0.221   0.171   6.078 -0.4035 -0.0396  0.5968
 2335SOL    HW2 8874   0.332   0.207   6.175  0.9232 -1.4408 -0.3470
 2336SOL     OW 8875   7.384   3.283   5.285 -0.4715 -0.0928  0.7151
 2336SOL    HW1 8876   7.384   3.219   5.214  1.3657 -0.5584  1.0936
 2336SOL    HW2 8877   7.361   3.233   5.363 -0.8432  0.0907  0.7280
 2337SOL     OW 8878   5.380   4.079   4.620 -0.6103  0.3739 -0.3612
 2337SOL    HW1 8879   5.292   4.116   4.615 -1.1512 -0.8872 -0.4130
 2337SOL    HW2 8880   5.375   3.996   4.572  0.9780  0.9439 -1.6110
 2338SOL     OW 8881   0.977   5.587   3.324 -0.0355 -0.4807  0.0117
 2338SOL    HW1 8882   1.037   5.512   3.325 -1.5335 -1.7656  2.4268
 2338SOL    HW2 8883   0.985   5.625   3.412 -2.0750 -0.1600  0.1094
 2339SOL     OW 8884   1.542   2.208   7.549 -0.2051  0.5531  0.5108
 2339SOL    HW1 8885   1.496   2.276   7.499  0.0648  1.5310  1.5684
 2339SOL    HW2 8886   1.548   2.243   7.637 -0.1502 -0.9077  1.1069
 2340SOL     OW 8887   8.409   5.132   5.003 -0.5558 -0.2474  0.1653
 2340SOL    HW1 8888   8.325   5.089   5.020 -1.6023  0.5701 -2.4746
 2340SOL    HW2 8889   8.391   5.193   4.932  2.3871 -0.3576 -0.8062
 2341SOL     OW 8890   5.775   0.121   2.457  0.1982 -0.0579 -0.3307
 2341SOL    HW1 8891   5.761   0.044   2.402 -0.1038 -0.2729  0.0475
 2341SOL    HW2 8892   5.870   0.124   2.470  0.0431 -1.8296  1.7283
 2342SOL     OW 8893   3.954   8.540   0.429  0.0315  0.1216  0.6524
 2342SOL    HW1 8894   3.886   8.594   0.468 -0.3803  0.0783  0.0219
 2342SOL    HW2 8895   4.030   8.552   0.485 -1.3688 -2.3664  3.3010
 2343SOL     OW 8896   5.641   4.059   0.686  0.2976  0.8230  0.4525
 2343SOL    HW1 8897   5.714   4.002   0.662 -0.5936  0.4559 -1.5559
 2343SOL    HW2 8898   5.585   4.003   0.740 -0.9767 -0.5958 -2.1476
 2344SOL     OW 8899   0.614   1.482   4.754  0.1010 -0.0344 -0.0818
 2344SOL    HW1 8900   0.686   1.423   4.730 -0.4015  0.4719 -3.4372
 2344SOL    HW2 8901   0.557   1.429   4.809  0.2046 -2.4568 -2.0984
 2345SOL     OW 8902   1.988   6.846   7.120 -0.6739  0.4148  0.3966
 2345SOL    HW1 8903   1.981   6.828   7.214  2.3434 -0.0042  0.6318
 2345SOL    HW2 8904   1.949   6.769   7.079 -0.6858 -0.1005  1.3312
 2346SOL     OW 8905   6.398   7.181   7.915 -0.2306  0.8170  0.0752
 2346SOL    HW1 8906   6.355   7.259   7.950  0.1094  1.2556 -0.4705
 2346SOL    HW2 8907   6.375   7.111   7.976 -0.1056  1.4537  0.8642
 2347SOL     OW 8908   7.066   8.863   3.650  0.6135 -0.0170 -0.0808
 2347SOL    HW1 8909   7.130   8.929   3.623 -1.3838  1.5852 -1.2290
 2347SOL    HW2 8910   6.991   8.877   3.591  0.1625 -3.5200 -0.5788
 2348SOL     OW 8911   8.942   7.172   6.787  0.3044 -0.0631  0.4653
 2348SOL    HW1 8912   9.036   7.185   6.772  0.1176  0.8963  0.0724
 2348SOL    HW2 8913   8.934   7.168   6.882  1.2314 -4.1204  0.5444
 2349SOL     OW 8914   3.093   7.574   3.929  0.8464  0.1768  0.5553
 2349SOL    HW1 8915   3.094   7.480   3.909  0.8188  0.1317  0.7678
 2349SOL    HW2 8916   3.077   7.579   4.023 -1.0158  0.4271  0.2694
 2350SOL     OW 8917   6.145   3.249   1.340  0.0672 -0.5074  0.1633
 2350SOL    HW1 8918   6.074   3.311   1.353  0.3190 -0.5067  1.7226
 2350SOL    HW2 8919   6.172   3.224   1.428  1.2418 -1.3834 -0.4085
 2351SOL     OW 8920   1.165   4.892   8.256 -0.1558  0.0578  0.2759
 2351SOL    HW1 8921   1.167   4.801   8.286  1.2863  0.6719  2.3251
 2351SOL    HW2 8922   1.255   4.911   8.230 -0.4019  0.9386  0.0208
 2352SOL     OW 8923   0.337   8.598   6.549 -0.4546  0.0412  0.7608
 2352SOL    HW1 8924   0.363   8.580   6.459  0.7693  0.3721  1.0237
 2352SOL    HW2 8925   0.382   8.531   6.601  0.7422  1.2084  1.3228
 2353SOL     OW 8926   6.861   1.488   2.263  0.3152 -0.0600 -0.0101
 2353SOL    HW1 8927   6.836   1.580   2.256  2.3745  0.5341 -0.4487
 2353SOL    HW2 8928   6.862   1.471   2.357 -1.8948 -0.2394  0.0332
 2354SOL     OW 8929   3.418   6.734   0.192  0.1650  0.1120 -0.4634
 2354SOL    HW1 8930   3.353   6.801   0.170 -0.3521 -0.1638  0.1995
 2354SOL    HW2 8931   3.393   6.659   0.137 -0.6879 -0.3279  0.4886
 2355SOL     OW 8932   2.351   8.579   3.769 -0.2852 -0.4368 -0.0923
 2355SOL    HW1 8933   2.411   8.506   3.753 -1.3081 -1.3387  0.0864
 2355SOL    HW2 8934   2.408   8.655   3.779  0.8164 -1.2499 -0.0399
 2356SOL     OW 8935   1.024   7.323   2.111 -0.1542  0.4833  0.5175
 2356SOL    HW1 8936   1.113   7.357   2.113 -0.1694  0.5031  2.8851
 2356SOL    HW2 8937   1.008   7.291   2.199 -1.8451 -1.2801 -0.3531
 2357SOL     OW 8938   2.408   3.530   3.094  0.3974  0.4531  0.2367
 2357SOL    HW1 8939   2.332   3.472   3.093  2.0218 -1.8322  0.9742
 2357SOL    HW2 8940   2.415   3.561   3.003 -1.8658  1.4842  0.3267
 2358SOL     OW 8941   5.437   7.739   7.531 -0.0155  0.3248  0.3079
 2358SOL    HW1 8942   5.526   7.759   7.559  1.4896 -2.0451 -2.2857
 2358SOL    HW2 8943   5.400   7.689   7.605  1.5985 -0.5096  0.6072
 2359SOL     OW 8944   0.104   8.212   0.430 -0.5147 -0.5997 -0.3213
 2359SOL    HW1 8945   0.131   8.252   0.513  0.1514 -1.3307 -0.1727
 2359SOL    HW2 8946   0.015   8.181   0.447 -1.2391  1.2230 -0.5960
 2360SOL     OW 8947   5.754   0.070   4.415  0.0673  0.6508  0.0234
 2360SOL    HW1 8948   5.848   0.076   4.396  0.1089  1.0803  0.3701
 2360SOL    HW2 8949   5.731  -0.020   4.391  0.2916  0.9213 -1.2822
 2361SOL     OW 8950   8.958   5.161   6.339 -0.2800 -0.1215  0.6094
 2361SOL    HW1 8951   8.971   5.217   6.415  0.0807 -0.0891  0.5264
 2361SOL    HW2 8952   8.871   5.184   6.306  0.1615  0.9147  0.1349
 2362SOL     OW 8953   4.014   5.868   2.346  0.0144  0.0961  0.3025
 2362SOL    HW1 8954   4.027   5.907   2.260 -0.0318 -0.9554 -0.1932
 2362SOL    HW2 8955   3.945   5.921   2.387  0.4551  0.9659 -0.0604
 2363SOL     OW 8956   8.049   5.695   7.861 -0.3549 -0.5295 -0.2509
 2363SOL    HW1 8957   8.069   5.655   7.776  0.0552  1.9713 -1.4311
 2363SOL    HW2 8958   8.128   5.746   7.883 -1.1897  0.4417  0.6396
 2364SOL     OW 8959   3.801   6.328   8.929 -0.0054 -0.4803 -0.1115
 2364SOL    HW1 8960   3.873   6.267   8.913  0.3433  0.3721 -2.1999
 2364SOL    HW2 8961   3.754   6.331   8.845 -0.7758  1.1106  0.3415
 2365SOL     OW 8962   3.574   3.290   3.644 -0.3926 -0.2813  0.0435
 2365SOL    HW1 8963   3.496   3.329   3.606 -0.1637  0.6184  0.4701
 2365SOL    HW2 8964   3.633   3.277   3.569 -0.5200  0.0848 -0.1225
 2366SOL     OW 8965   2.114   6.941   7.826  0.1448 -0.8327 -0.2670
 2366SOL    HW1 8966   2.190   6.938   7.769  0.2744 -1.0583 -0.0829
 2366SOL    HW2 8967   2.131   7.014   7.885 -1.0440  0.9561 -1.9818
 2367SOL     OW 8968   4.456   1.095   3.247 -0.3435 -0.2178 -0.1996
 2367SOL    HW1 8969   4.461   1.017   3.302 -0.8664 -0.4587 -0.4841
 2367SOL    HW2 8970   4.379   1.081   3.192  0.0147  0.1380 -0.8101
 2368SOL     OW 8971   5.879   2.624   7.909  0.3935 -0.4031 -0.1562
 2368SOL    HW1 8972   5.919   2.699   7.866 -0.0253  0.1948  0.4854
 2368SOL    HW2 8973   5.889   2.641   8.002  2.1605 -2.1491  0.0281
 2369SOL     OW 8974   6.237   7.228   2.101  0.1292  0.2975  0.5045
 2369SOL    HW1 8975   6.165   7.207   2.162 -0.3198 -0.9655 -0.4268
 2369SOL    HW2 8976   6.251   7.322   2.113 -0.8117  0.3219  1.6368
 2370SOL     OW 8977   2.577   4.120   8.634 -0.0826 -0.4246 -0.2924
 2370SOL    HW1 8978   2.580   4.041   8.581  1.4965 -1.3326  1.0658
 2370SOL    HW2 8979   2.485   4.146   8.634 -0.1807 -0.3878 -3.3725
 2371SOL     OW 8980   2.670   7.349   4.442 -0.1068 -0.1475 -0.5741
 2371SOL    HW1 8981   2.718   7.283   4.492 -0.3205  0.7321  0.8154
 2371SOL    HW2 8982   2.699   7.335   4.351 -0.2292 -2.2215 -0.3499
 2372SOL     OW 8983   4.774   5.472   0.276 -0.2175  0.1707  0.3715
 2372SOL    HW1 8984   4.738   5.559   0.260  0.1317  0.2703  0.1115
 2372SOL    HW2 8985   4.757   5.424   0.195 -2.3155 -0.6788  1.2485
 2373SOL     OW 8986   0.749   3.419   0.339  0.4746  0.1556  0.1548
 2373SOL    HW1 8987   0.774   3.364   0.265  0.5847 -0.8596  0.9298
 2373SOL    HW2 8988   0.716   3.358   0.405  1.4486  0.9162  1.3920
 2374SOL     OW 8989   5.216   7.454   7.928 -0.2327  0.1139 -1.1515
 2374SOL    HW1 8990   5.197   7.439   8.020  3.0459  0.8083 -0.2337
 2374SOL    HW2 8991   5.193   7.372   7.885 -1.4518 -0.3497  0.3126
 2375SOL     OW 8992   3.878   4.833   2.251 -0.4169  1.3237  0.2041
 2375SOL    HW1 8993   3.884   4.860   2.343 -2.9189  0.8709  0.5735
 2375SOL    HW2 8994   3.930   4.897   2.204  0.5037  1.8781  1.8635
 2376SOL     OW 8995   8.363   3.828   5.855 -0.1824  0.2014 -0.0516
 2376SOL    HW1 8996   8.273   3.806   5.880  0.1165  2.7153  4.2194
 2376SOL    HW2 8997   8.414   3.754   5.886 -0.4689  0.3604  0.8226
 2377SOL     OW 8998   7.930   8.841   4.564 -0.3578 -0.3680 -0.3046
 2377SOL    HW1 8999   7.970   8.764   4.604 -2.4263 -0.8995  0.8587
 2377SOL    HW2 9000   8.000   8.878   4.509  1.5860 -1.3898  1.3497
 2378SOL     OW 9001   3.564   7.571   5.156  0.0366 -0.1769 -0.1355
 2378SOL    HW1 9002   3.597   7.525   5.233  0.1276  0.7873  0.4295
 2378SOL    HW2 9003   3.603   7.525   5.082  2.9336  1.0310  0.4935
 2379SOL     OW 9004   2.902   6.809   4.179  0.1366 -0.1243  0.1368
 2379SOL    HW1 9005   2.944   6.829   4.262 -1.7488 -0.7291  1.2868
 2379SOL    HW2 9006   2.894   6.714   4.178 -0.4208 -0.0787 -0.4463
 2380SOL     OW 9007   7.733   5.390   4.096  0.9928 -0.0197  0.5591
 2380SOL    HW1 9008   7.749   5.373   4.003  2.0784  0.6422  0.6079
 2380SOL    HW2 9009   7.662   5.455   4.097 -1.3877 -2.4346  0.3154
 2381SOL     OW 9010   3.465   0.447   2.756  0.6161 -0.5073 -0.2901
 2381SOL    HW1 9011   3.557   0.429   2.778  0.7461 -0.6959 -0.9526
 2381SOL    HW2 9012   3.450   0.396   2.676  0.2475  0.3558 -0.7894
 2382SOL     OW 9013   3.684   3.466   6.102  0.3537  0.9190 -0.1019
 2382SOL    HW1 9014   3.665   3.528   6.172  1.8995  0.3348  0.8947
 2382SOL    HW2 9015   3.700   3.521   6.025 -0.2787  1.6278  0.2552
 2383SOL     OW 9016   7.652   2.778   2.379  0.7309  0.0369 -0.4072
 2383SOL    HW1 9017   7.724   2.768   2.442  0.3612 -2.0483 -0.2456
 2383SOL    HW2 9018   7.669   2.712   2.312 -0.9274 -0.3932 -0.4472
 2384SOL     OW 9019   5.278   6.046   6.982 -0.6252  0.0839 -0.1911
 2384SOL    HW1 9020   5.187   6.020   6.971 -0.4886 -1.0928  1.1319
 2384SOL    HW2 9021   5.310   6.060   6.893 -1.9681  0.1076 -0.6913
 2385SOL     OW 9022   5.354   1.003   2.168 -0.4149  0.0294 -0.4454
 2385SOL    HW1 9023   5.288   1.022   2.101 -0.3336  0.1992 -0.4774
 2385SOL    HW2 9024   5.358   0.907   2.170 -1.4268 -0.0210  0.2971
 2386SOL     OW 9025   4.146   2.656   5.600 -0.2826  0.1453  0.1171
 2386SOL    HW1 9026   4.220   2.597   5.583 -0.7856 -0.2003 -1.0030
 2386SOL    HW2 9027   4.185   2.744   5.599  0.2007 -0.0648  0.0583
 2387SOL     OW 9028   4.851   1.330   0.064  0.0388 -0.2106 -0.1939
 2387SOL    HW1 9029   4.877   1.239   0.054  2.7718  0.4681  0.0058
 2387SOL    HW2 9030   4.913   1.366   0.128 -0.0564  2.1354 -1.3229
 2388SOL     OW 9031   7.198   3.505   3.439 -0.0603 -0.2348 -0.0293
 2388SOL    HW1 9032   7.233   3.444   3.504 -0.0780  0.5089  0.7028
 2388SOL    HW2 9033   7.111   3.527   3.472 -0.5272 -0.7286 -0.9159
 2389SOL     OW 9034   2.984   6.723   0.006 -0.3006  0.3463 -0.1178
 2389SOL    HW1 9035   3.030   6.672   0.073 -0.9178 -0.7656 -0.5141
 2389SOL    HW2 9036   2.911   6.764   0.052 -2.6006 -2.8634 -0.5448
 2390SOL     OW 9037   8.276   2.867   1.526 -0.3050 -0.0906 -0.9943
 2390SOL    HW1 9038   8.280   2.790   1.583  1.7506  0.9019  0.3375
 2390SOL    HW2 9039   8.183   2.881   1.511 -0.9140 -0.8541  1.5540
 2391SOL     OW 9040   5.645   7.768   2.535  0.2911 -0.3054 -0.4644
 2391SOL    HW1 9041   5.694   7.849   2.524 -0.0029 -0.2470 -1.5099
 2391SOL    HW2 9042   5.671   7.714   2.460  1.3808 -1.6727  0.8318
 2392SOL     OW 9043   6.153   1.710   5.179  0.3324 -0.0121  0.0729
 2392SOL    HW1 9044   6.110   1.795   5.188  0.6420  0.2377 -0.6998
 2392SOL    HW2 9045   6.244   1.726   5.206  0.6986  0.2101 -1.2124
 2393SOL     OW 9046   1.516   3.768   5.758 -0.0446 -0.2693 -0.1844
 2393SOL    HW1 9047   1.453   3.714   5.710 -0.2982 -1.2755  1.2368
 2393SOL    HW2 9048   1.463   3.816   5.822  0.4642 -0.0873  0.1055
 2394SOL     OW 9049   8.990   4.407   6.261  0.1276  0.5825 -0.0837
 2394SOL    HW1 9050   8.987   4.405   6.357 -1.5601  2.6312 -0.0051
 2394SOL    HW2 9051   8.898   4.411   6.235  0.5532 -0.3729 -1.8338
 2395SOL     OW 9052   7.582   0.201   2.099  0.4438 -0.1904 -0.2016
 2395SOL    HW1 9053   7.595   0.215   2.193  1.6181 -0.7282 -0.2590
 2395SOL    HW2 9054   7.488   0.210   2.086  0.4024  1.2249  0.7961
 2396SOL     OW 9055   7.978   1.698   0.617  0.2723 -0.3758  0.8361
 2396SOL    HW1 9056   8.038   1.727   0.685 -0.3696  0.6762  0.9655
 2396SOL    HW2 9057   7.901   1.667   0.664  0.3339 -0.8465  0.6351
 2397SOL     OW 9058   3.333   1.240   4.592 -0.0554 -0.2048 -0.4515
 2397SOL    HW1 9059   3.417   1.196   4.579  0.5734  0.6219  0.6782
 2397SOL    HW2 9060   3.306   1.216   4.680 -0.9210 -0.3020 -0.7304
 2398SOL     OW 9061   0.343   3.034   1.407  1.0241 -0.6171 -0.1027
 2398SOL    HW1 9062   0.344   2.950   1.361  0.0971 -1.3164  1.1035
 2398SOL    HW2 9063   0.324   3.012   1.498 -0.0684  0.9617  0.0968
 2399SOL     OW 9064   5.867   5.564   5.949  0.0361 -0.2045 -0.5041
 2399SOL    HW1 9065   5.885   5.549   6.042  0.2123  0.2401 -0.4636
 2399SOL    HW2 9066   5.798   5.630   5.948 -0.0123 -0.2570 -0.6856
 2400SOL     OW 9067   6.901   7.987   8.399  0.0943 -0.5652  0.2073
 2400SOL    HW1 9068   6.974   7.930   8.421  0.0673 -0.6213  0.1518
 2400SOL    HW2 9069   6.827   7.950   8.447  0.4817  0.5377  1.7231
 2401SOL     OW 9070   7.264   4.482   1.211 -0.3256 -0.5300  0.1098
 2401SOL    HW1 9071   7.248   4.575   1.224  1.1215 -0.0257 -1.3360
 2401SOL    HW2 9072   7.348   4.466   1.254  0.0217 -0.8771 -0.6792
 2402SOL     OW 9073   4.877   3.968   6.538  0.5247 -0.0308  0.3213
 2402SOL    HW1 9074   4.928   3.888   6.533  0.1078 -0.4003  1.6564
 2402SOL    HW2 9075   4.899   4.015   6.458  1.6864 -0.9270  0.0836
 2403SOL     OW 9076   4.893   3.589   2.185  0.4356  0.4104 -0.0049
 2403SOL    HW1 9077   4.856   3.602   2.097  3.5021  0.1189 -1.4772
 2403SOL    HW2 9078   4.968   3.647   2.188 -0.1236  1.1173  2.8831
 2404SOL     OW 9079   5.705   6.882   0.913 -0.3398  0.1798  0.5023
 2404SOL    HW1 9080   5.640   6.840   0.970 -2.2608  0.8965 -1.0139
 2404SOL    HW2 9081   5.654   6.944   0.861  1.5561  0.6115 -0.9561
 2405SOL     OW 9082   4.526   4.775   7.187 -0.4003  0.7236  0.3351
 2405SOL    HW1 9083   4.619   4.770   7.210 -0.0172  1.7848 -0.8503
 2405SOL    HW2 9084   4.492   4.845   7.244 -0.1605  1.2225 -0.1203
 2406SOL     OW 9085   0.267   5.208   8.725 -0.0345 -0.8760  0.2997
 2406SOL    HW1 9086   0.354   5.178   8.751 -0.2599 -1.1122  0.7874
 2406SOL    HW2 9087   0.253   5.169   8.639  0.7637 -0.0012 -0.2515
 2407SOL     OW 9088   2.021   8.802   7.130  0.4263 -0.2486  0.1403
 2407SOL    HW1 9089   1.991   8.837   7.046  0.1632 -0.6435  0.0679
 2407SOL    HW2 9090   1.981   8.859   7.196 -1.4741 -1.4580  0.0992
 2408SOL     OW 9091   2.581   0.721   8.417 -0.4980 -0.0455 -0.0656
 2408SOL    HW1 9092   2.537   0.804   8.398 -1.6883 -0.5550  0.3372
 2408SOL    HW2 9093   2.535   0.657   8.363 -0.4351 -0.6418  0.5658
 2409SOL     OW 9094   7.877   0.702   1.385 -0.3937 -0.4284  0.0178
 2409SOL    HW1 9095   7.805   0.713   1.448  0.0563  0.0596  0.4548
 2409SOL    HW2 9096   7.898   0.791   1.357  1.8006 -0.2546  1.9041
 2410SOL     OW 9097   5.408   0.145   1.450  0.7045 -0.4966  0.0148
 2410SOL    HW1 9098   5.444   0.111   1.369 -1.3033 -0.6282 -0.8952
 2410SOL    HW2 9099   5.417   0.240   1.443 -1.5972 -0.2895 -1.5763
 2411SOL     OW 9100   4.626   1.846   4.107 -0.0262 -0.2160  0.2363
 2411SOL    HW1 9101   4.678   1.913   4.062 -0.2885 -0.1180  0.0778
 2411SOL    HW2 9102   4.651   1.764   4.065 -2.9626  0.1811 -2.7850
 2412SOL     OW 9103   4.231   1.925   8.403  0.3374  0.5058 -0.3097
 2412SOL    HW1 9104   4.143   1.892   8.421  0.0808  1.1529 -0.3368
 2412SOL    HW2 9105   4.224   2.019   8.419  0.8346  0.6701 -1.0300
 2413SOL     OW 9106   3.115   6.780   5.839 -0.8564  0.2180  0.4989
 2413SOL    HW1 9107   3.072   6.865   5.851  0.0090  0.9207 -1.0560
 2413SOL    HW2 9108   3.117   6.742   5.927  1.0793  2.9714  1.8187
 2414SOL     OW 9109   1.806   7.769   5.141  0.3064 -0.2406 -0.2486
 2414SOL    HW1 9110   1.748   7.693   5.138  1.4866 -1.2386  1.0576
 2414SOL    HW2 9111   1.758   7.834   5.193 -0.5609 -0.1818 -1.0871
 2415SOL     OW 9112   3.512   6.235   5.418 -0.3022 -0.4951 -0.0310
 2415SOL    HW1 9113   3.440   6.183   5.454 -0.3488 -1.2279 -1.1388
 2415SOL    HW2 9114   3.512   6.315   5.471 -3.4198  0.5671 -1.3550
 2416SOL     OW 9115   3.854   1.574   1.177  0.3836  0.7684  0.0613
 2416SOL    HW1 9116   3.937   1.618   1.197  0.2319  0.6166  1.0865
 2416SOL    HW2 9117   3.787   1.633   1.211  0.1246  0.3144  0.3505
 2417SOL     OW 9118   1.650   2.860   6.227  0.0988  0.2066 -0.1041
 2417SOL    HW1 9119   1.717   2.796   6.203  0.3018  0.1360  0.6385
 2417SOL    HW2 9120   1.664   2.933   6.166  0.8869  0.2170  0.0809
 2418SOL     OW 9121   8.089   5.392   7.472  0.1244 -0.1895 -0.0327
 2418SOL    HW1 9122   8.117   5.300   7.461 -1.3913 -0.7503  0.5494
 2418SOL    HW2 9123   8.112   5.433   7.389  0.3765 -1.2231 -0.4966
 2419SOL     OW 9124   0.159   6.361   6.793 -0.1666  0.2042  0.0812
 2419SOL    HW1 9125   0.212   6.384   6.717  0.1298 -0.6190  0.0328
 2419SOL    HW2 9126   0.069   6.383   6.767  0.0698  1.0034 -0.0754
 2420SOL     OW 9127   5.140   0.857   5.359 -0.4456  0.0401  0.0079
 2420SOL    HW1 9128   5.066   0.887   5.412 -0.7830 -0.1981 -0.3195
 2420SOL    HW2 9129   5.171   0.778   5.404 -0.2547  0.2578  0.2617
 2421SOL     OW 9130   0.583   2.810   5.267  0.2035 -0.3059  0.0591
 2421SOL    HW1 9131   0.655   2.801   5.329  0.4392 -1.4522 -0.3509
 2421SOL    HW2 9132   0.507   2.773   5.313 -0.5820  2.4328  1.1519
 2422SOL     OW 9133   4.062   4.578   8.655 -0.2386 -0.1145 -0.2914
 2422SOL    HW1 9134   4.150   4.546   8.672  0.0920  1.6879  1.9650
 2422SOL    HW2 9135   4.062   4.668   8.689 -3.2780 -0.4443  0.9321
 2423SOL     OW 9136   6.217   3.700   2.368 -0.5239 -0.2519 -0.5012
 2423SOL    HW1 9137   6.288   3.764   2.367 -0.7368 -0.0031 -2.3357
 2423SOL    HW2 9138   6.259   3.619   2.396  0.3040  0.0740 -0.7672
 2424SOL     OW 9139   2.994   7.222   7.782  0.5006  0.2124 -0.1460
 2424SOL    HW1 9140   3.064   7.272   7.740  0.9677  0.0630  0.4420
 2424SOL    HW2 9141   2.950   7.285   7.839 -1.4228  0.9443 -2.2917
 2425SOL     OW 9142   1.513   5.954   5.096  0.0533 -0.1925 -0.7960
 2425SOL    HW1 9143   1.447   5.978   5.032 -1.2338  1.0174  0.9005
 2425SOL    HW2 9144   1.552   6.037   5.123  1.6205 -0.8005 -1.0274
 2426SOL     OW 9145   0.877   8.043   1.260 -0.5554  0.4877  0.0775
 2426SOL    HW1 9146   0.911   8.112   1.203  2.8936 -1.9782 -1.2040
 2426SOL    HW2 9147   0.825   7.988   1.202  1.6343 -1.1312 -0.4995
 2427SOL     OW 9148   1.649   8.252   3.168  0.2954  0.6455  0.1735
 2427SOL    HW1 9149   1.723   8.199   3.198  0.0495 -0.2774 -0.7548
 2427SOL    HW2 9150   1.573   8.193   3.176 -0.2512  1.4015  0.6260
 2428SOL     OW 9151   4.472   7.012   7.209 -0.3626 -0.3725 -0.3089
 2428SOL    HW1 9152   4.483   7.104   7.233  0.8258 -0.4146 -0.6057
 2428SOL    HW2 9153   4.550   6.969   7.246  0.8521 -0.6740 -3.0090
 2429SOL     OW 9154   8.983   3.984   8.278 -0.5320 -0.6241 -0.1336
 2429SOL    HW1 9155   8.993   3.905   8.330 -1.5450  0.0606  1.1785
 2429SOL    HW2 9156   8.895   4.016   8.299 -0.2660  0.6880 -0.8529
 2430SOL     OW 9157   4.223   6.792   3.283  0.1333  0.2359  0.4794
 2430SOL    HW1 9158   4.268   6.860   3.334 -0.2680  0.0529  1.0888
 2430SOL    HW2 9159   4.284   6.718   3.283  0.6736  0.6584 -0.3860
 2431SOL     OW 9160   0.638   7.245   8.786 -0.1419  0.5868 -0.1076
 2431SOL    HW1 9161   0.696   7.288   8.724  1.5727 -0.2951  0.8070
 2431SOL    HW2 9162   0.583   7.315   8.821  0.1332  1.3875 -1.2269
 2432SOL     OW 9163   0.540   0.681   4.223  0.1538 -0.1613 -0.1652
 2432SOL    HW1 9164   0.527   0.593   4.258  0.7454 -0.2245 -0.1041
 2432SOL    HW2 9165   0.566   0.667   4.132  0.1746 -0.0474 -0.1767
 2433SOL     OW 9166   5.433   5.504   7.815  0.1229 -0.0184 -0.3299
 2433SOL    HW1 9167   5.358   5.448   7.837 -1.5546  1.9720 -0.7210
 2433SOL    HW2 9168   5.420   5.583   7.866  1.7027  0.5807 -0.8037
 2434SOL     OW 9169   3.367   6.232   3.194 -0.0743  0.0513  0.1221
 2434SOL    HW1 9170   3.385   6.277   3.276 -1.2543  0.7533  0.0051
 2434SOL    HW2 9171   3.324   6.151   3.219 -1.8743  0.9825  0.1515
 2435SOL     OW 9172   0.959   4.206   5.896  0.4783 -0.1284 -0.0689
 2435SOL    HW1 9173   0.965   4.138   5.828  1.4201  0.0678 -0.1968
 2435SOL    HW2 9174   0.867   4.204   5.924  0.2972 -0.8625 -0.6785
 2436SOL     OW 9175   1.208   2.625   5.417 -0.2131 -0.1350 -0.6323
 2436SOL    HW1 9176   1.239   2.633   5.327  1.6259 -0.0421 -0.0288
 2436SOL    HW2 9177   1.242   2.702   5.461  0.2743 -0.9815  0.5060
 2437SOL     OW 9178   3.094   1.915   7.769 -0.1102  0.3910 -0.0846
 2437SOL    HW1 9179   3.110   1.872   7.685  0.0724 -2.7155  1.4150
 2437SOL    HW2 9180   3.178   1.911   7.814 -0.0989  2.4050  0.1653
 2438SOL     OW 9181   5.201   4.549   7.891 -0.1161 -0.3911 -0.1922
 2438SOL    HW1 9182   5.243   4.542   7.977  1.9955  0.1066 -1.1076
 2438SOL    HW2 9183   5.237   4.630   7.854 -1.8291 -0.0246 -1.1197
 2439SOL     OW 9184   5.332   7.195   8.115 -0.2371 -0.0900 -0.1047
 2439SOL    HW1 9185   5.314   7.279   8.157  1.0977 -0.2021  0.7551
 2439SOL    HW2 9186   5.377   7.218   8.034 -2.2051  0.0961 -1.2098
 2440SOL     OW 9187   1.747   2.959   5.797 -0.5649 -0.0979 -0.0879
 2440SOL    HW1 9188   1.773   2.866   5.797  0.3683  0.1319 -1.4281
 2440SOL    HW2 9189   1.755   2.986   5.705  1.8429  1.9949  0.6086
 2441SOL     OW 9190   6.942   5.895   7.752  0.4293  0.0967  0.0569
 2441SOL    HW1 9191   7.004   5.948   7.701 -0.5812  1.6010  0.3227
 2441SOL    HW2 9192   6.856   5.925   7.724 -0.1592  0.2977  1.9423
 2442SOL     OW 9193   3.916   0.267   0.254 -0.6173 -0.3247  0.2016
 2442SOL    HW1 9194   3.995   0.232   0.295  0.2897 -0.8957 -1.8724
 2442SOL    HW2 9195   3.851   0.197   0.264  0.1744 -1.2736 -0.9549
 2443SOL     OW 9196   3.548   6.733   3.343  0.1448 -0.2722  0.0388
 2443SOL    HW1 9197   3.582   6.807   3.293 -1.4089 -0.9453 -2.1792
 2443SOL    HW2 9198   3.457   6.756   3.362  0.4125 -0.4724  1.8019
 2444SOL     OW 9199   2.074   8.161   5.541  0.2641  0.5316 -0.3991
 2444SOL    HW1 9200   2.073   8.227   5.472  0.2321  0.6683 -0.2683
 2444SOL    HW2 9201   2.152   8.181   5.593  0.3651  0.3445 -0.4775
 2445SOL     OW 9202   5.607   6.533   4.034  0.0656 -0.5549 -0.2846
 2445SOL    HW1 9203   5.632   6.515   4.124 -3.4963  0.4218  1.0460
 2445SOL    HW2 9204   5.681   6.500   3.982  2.6475 -0.4125  2.9416
 2446SOL     OW 9205   0.974   4.971   1.093 -0.0136 -0.3013 -0.0080
 2446SOL    HW1 9206   0.951   4.958   1.001  0.1655 -2.4733  0.2011
 2446SOL    HW2 9207   1.055   4.920   1.105 -0.1437 -0.2100  1.3777
 2447SOL     OW 9208   7.210   8.401   3.088 -0.3187  0.0431  0.3055
 2447SOL    HW1 9209   7.286   8.358   3.128 -0.4008 -1.5320 -1.1093
 2447SOL    HW2 9210   7.135   8.366   3.136 -0.2989 -0.4021  0.0185
 2448SOL     OW 9211   4.403   2.448   6.020 -0.2285  0.1310  0.0848
 2448SOL    HW1 9212   4.353   2.527   6.042  0.0214  0.5671 -0.8696
 2448SOL    HW2 9213   4.337   2.386   5.989 -0.1832  0.7539 -1.3071
 2449SOL     OW 9214   0.065   8.059   2.641 -0.1349  0.4305 -0.2579
 2449SOL    HW1 9215  -0.022   8.019   2.632 -0.7013  1.6721 -0.4501
 2449SOL    HW2 9216   0.050   8.135   2.697  0.9688  0.2758  0.2771
 2450SOL     OW 9217   1.511   3.865   8.445  0.4058  0.1214  0.6318
 2450SOL    HW1 9218   1.470   3.852   8.531  1.3345 -3.2151  0.6994
 2450SOL    HW2 9219   1.571   3.792   8.436 -1.1720 -0.9031 -3.7749
 2451SOL     OW 9220   3.386   3.936   7.184  0.2903 -0.3784 -0.1751
 2451SOL    HW1 9221   3.401   3.913   7.092  0.8734  0.9797 -0.4538
 2451SOL    HW2 9222   3.301   3.980   7.184  1.6713  2.5678 -0.7107
 2452SOL     OW 9223   0.627   3.787   8.501  0.1497 -0.0073  0.0601
 2452SOL    HW1 9224   0.538   3.761   8.524  0.4240 -0.7173  0.3664
 2452SOL    HW2 9225   0.683   3.734   8.558  0.8944 -1.8965 -2.2664
 2453SOL     OW 9226   6.544   7.468   6.155 -0.4785  0.0337 -0.3003
 2453SOL    HW1 9227   6.605   7.465   6.081 -0.7712  0.6056 -0.5657
 2453SOL    HW2 9228   6.484   7.395   6.140 -0.9007  0.5017 -0.9477
 2454SOL     OW 9229   3.993   8.928   4.620  1.1162  0.0053 -0.2057
 2454SOL    HW1 9230   3.899   8.945   4.628  0.8075 -1.9491  1.1396
 2454SOL    HW2 9231   4.033   8.983   4.688  0.5593 -1.5411  1.4444
 2455SOL     OW 9232   6.458   4.654   2.691 -0.1431 -0.2309 -0.2781
 2455SOL    HW1 9233   6.457   4.634   2.598 -3.4955 -0.4427 -0.3250
 2455SOL    HW2 9234   6.432   4.746   2.696  1.8720  0.3546  0.4496
 2456SOL     OW 9235   4.062   4.139   6.370  0.0371  0.3790 -0.6741
 2456SOL    HW1 9236   4.155   4.154   6.381 -0.2098  1.6013 -0.1588
 2456SOL    HW2 9237   4.034   4.098   6.452  0.1603 -0.2137 -0.9250
 2457SOL     OW 9238   8.443   6.366   4.326 -0.7825  0.0085 -0.0207
 2457SOL    HW1 9239   8.375   6.317   4.279  1.1761 -1.2577 -1.6870
 2457SOL    HW2 9240   8.417   6.458   4.315 -1.5845 -0.3691 -1.6888
 2458SOL     OW 9241   5.684   5.373   6.801 -0.5456 -0.3160 -0.3033
 2458SOL    HW1 9242   5.642   5.297   6.761 -0.8744 -0.1780 -0.2225
 2458SOL    HW2 9243   5.681   5.356   6.895  0.3381 -0.6970 -0.3367
 2459SOL     OW 9244   4.260   3.903   8.102  0.2373  0.0301 -0.1231
 2459SOL    HW1 9245   4.290   3.970   8.163  1.6603  0.0569 -0.8113
 2459SOL    HW2 9246   4.255   3.823   8.155 -0.4705  0.4500  0.4616
 2460SOL     OW 9247   5.818   6.983   6.607 -0.4140  0.4152 -0.3132
 2460SOL    HW1 9248   5.891   6.924   6.586 -1.0874 -0.3489 -0.5408
 2460SOL    HW2 9249   5.772   6.940   6.678 -1.8903 -0.1856 -1.5828
 2461SOL     OW 9250   6.000   4.525   1.080  0.1141 -0.2323 -0.0632
 2461SOL    HW1 9251   6.083   4.574   1.078 -0.2122  0.3084 -0.7601
 2461SOL    HW2 9252   6.026   4.434   1.064  0.8660 -0.5542  2.4102
 2462SOL     OW 9253   1.512   7.531   5.896  0.2253  0.2107 -0.5543
 2462SOL    HW1 9254   1.553   7.497   5.976 -1.1005  0.6520  0.3361
 2462SOL    HW2 9255   1.585   7.570   5.847  1.1396 -0.4876  0.2018
 2463SOL     OW 9256   4.204   3.264   7.215 -0.2125  0.0118 -0.1094
 2463SOL    HW1 9257   4.205   3.344   7.267 -2.9445 -0.0473  0.1482
 2463SOL    HW2 9258   4.173   3.292   7.129  2.3087 -0.2433 -1.2007
 2464SOL     OW 9259   8.348   1.605   3.193  0.1854  0.1077  0.4876
 2464SOL    HW1 9260   8.430   1.561   3.171  1.1582  1.3736  1.4317
 2464SOL    HW2 9261   8.302   1.615   3.110  0.4403 -1.6300  0.0966
 2465SOL     OW 9262   1.481   2.674   5.807  0.1343  0.1053  0.1892
 2465SOL    HW1 9263   1.426   2.609   5.850  1.6331 -1.2238  0.1893
 2465SOL    HW2 9264   1.454   2.757   5.845 -0.5097 -0.7249  1.6447
 2466SOL     OW 9265   7.477   6.905   8.387 -0.9254  0.7029 -0.0566
 2466SOL    HW1 9266   7.555   6.921   8.440 -0.6188  0.8082 -0.5344
 2466SOL    HW2 9267   7.461   6.988   8.342 -0.9223  0.4860 -0.4675
 2467SOL     OW 9268   2.307   7.578   1.278  0.1406  0.1312  0.7329
 2467SOL    HW1 9269   2.248   7.575   1.203  1.4194 -1.0877 -0.2720
 2467SOL    HW2 9270   2.315   7.672   1.298 -0.4317  0.4595 -0.4650
 2468SOL     OW 9271   0.432   6.399   5.065  0.2699  0.0111  0.1956
 2468SOL    HW1 9272   0.436   6.485   5.107 -1.1239 -0.6072  1.7190
 2468SOL    HW2 9273   0.351   6.400   5.015 -0.4304 -0.7999  1.2527
 2469SOL     OW 9274   6.338   1.141   7.594 -0.4286 -0.3568 -0.8119
 2469SOL    HW1 9275   6.404   1.144   7.524  1.2659  2.5710  0.7135
 2469SOL    HW2 9276   6.267   1.197   7.563  0.8147  1.8599  0.1244
 2470SOL     OW 9277   2.710   2.786   0.958 -0.1767  0.1170 -0.0490
 2470SOL    HW1 9278   2.803   2.789   0.936 -0.2148 -0.9175 -0.4067
 2470SOL    HW2 9279   2.669   2.845   0.894  0.0160 -0.9119 -1.1614
 2471SOL     OW 9280   1.863   3.960   8.185  0.5659  0.6817 -0.1881
 2471SOL    HW1 9281   1.951   3.946   8.150  0.8187  0.4537  0.5270
 2471SOL    HW2 9282   1.857   4.055   8.196  0.3957  0.7832 -1.0558
 2472SOL     OW 9283   4.777   4.006   3.356  0.2740 -0.6973 -0.1036
 2472SOL    HW1 9284   4.779   4.100   3.376  0.4393 -0.9900  1.3627
 2472SOL    HW2 9285   4.858   3.990   3.306  1.4024 -0.4395  1.5707
 2473SOL     OW 9286   4.868   0.513   2.297  0.4033 -0.7638  0.5346
 2473SOL    HW1 9287   4.933   0.579   2.274  0.2314 -0.1339  1.7839
 2473SOL    HW2 9288   4.786   0.548   2.263  0.4471 -0.7513  0.4409
 2474SOL     OW 9289   4.094   4.717   1.104  0.3468  0.1611  0.6674
 2474SOL    HW1 9290   4.090   4.646   1.040  1.2543 -1.4840  2.3200
 2474SOL    HW2 9291   4.005   4.721   1.141  0.1776  0.1873  0.2568
 2475SOL     OW 9292   5.238   3.276   2.677  0.9230  0.0413  0.3107
 2475SOL    HW1 9293   5.226   3.308   2.767 -0.7153  0.2612  0.0482
 2475SOL    HW2 9294   5.213   3.184   2.681  2.1781 -0.3216  0.3312
 2476SOL     OW 9295   1.334   6.308   1.998 -0.3663  0.2502  0.5079
 2476SOL    HW1 9296   1.244   6.312   2.033 -0.6022  0.0185 -0.0600
 2476SOL    HW2 9297   1.390   6.319   2.075 -0.8854  0.6299  0.8376
 2477SOL     OW 9298   8.945   1.702   5.482  0.1008 -0.5636 -0.0420
 2477SOL    HW1 9299   8.902   1.783   5.508  1.9741  0.5155 -0.1145
 2477SOL    HW2 9300   8.885   1.661   5.420 -1.2012  0.3846  0.5450
 2478SOL     OW 9301   8.030   1.213   2.151 -0.1269  0.4551 -0.1555
 2478SOL    HW1 9302   8.055   1.305   2.142  0.8743  0.3407  1.0961
 2478SOL    HW2 9303   8.113   1.167   2.157 -0.6134 -0.5955 -1.1188
 2479SOL     OW 9304   8.938   3.187   5.449  0.0115 -0.0922 -0.0433
 2479SOL    HW1 9305   8.988   3.115   5.488  0.1730  0.4058  0.6818
 2479SOL    HW2 9306   8.848   3.171   5.476  0.0698  0.0610  0.2419
 2480SOL     OW 9307   5.673   1.976   8.921  0.1374  0.5087  0.1356
 2480SOL    HW1 9308   5.673   2.003   8.829 -0.9625 -0.6754 -0.2447
 2480SOL    HW2 9309   5.585   1.997   8.952  0.2581  0.1914  0.6998
 2481SOL     OW 9310   0.923   3.489   2.730 -0.1721  0.0953 -0.0353
 2481SOL    HW1 9311   0.894   3.531   2.649  1.0480 -0.3277 -0.7266
 2481SOL    HW2 9312   1.018   3.482   2.720 -0.1902 -1.6204  0.6213
 2482SOL     OW 9313   2.846   7.578   4.816 -0.2070  0.2066 -0.6488
 2482SOL    HW1 9314   2.853   7.515   4.744  0.7735  0.1517 -0.5091
 2482SOL    HW2 9315   2.754   7.573   4.842 -0.2054 -1.0085 -0.7898
 2483SOL     OW 9316   4.993   6.930   6.696 -0.1627  0.2261 -0.1942
 2483SOL    HW1 9317   4.902   6.950   6.673 -0.5484  1.6348  2.2481
 2483SOL    HW2 9318   4.987   6.858   6.759  0.4649 -0.0067 -0.3921
 2484SOL     OW 9319   0.306   0.547   5.960  0.8483 -0.1256 -0.0867
 2484SOL    HW1 9320   0.210   0.552   5.953  0.8209 -0.6597 -0.0880
 2484SOL    HW2 9321   0.324   0.546   6.054  0.8814  0.4514 -0.0814
 2485SOL     OW 9322   5.423   3.381   5.615 -0.3205  0.0616 -0.1334
 2485SOL    HW1 9323   5.456   3.291   5.615 -1.0490 -0.2260 -1.0823
 2485SOL    HW2 9324   5.443   3.415   5.702  1.4304 -0.4744 -0.2967
 2486SOL     OW 9325   1.916   6.030   1.929 -0.3384 -0.7944  0.7544
 2486SOL    HW1 9326   1.847   5.967   1.947 -1.3422  0.3452  1.0950
 2486SOL    HW2 9327   1.951   6.005   1.843 -1.3392 -1.2677  0.4764
 2487SOL     OW 9328   1.762   8.004   1.039  0.0592  0.3475 -0.3680
 2487SOL    HW1 9329   1.751   7.909   1.042 -0.1830  0.3302 -1.3421
 2487SOL    HW2 9330   1.780   8.023   0.946  0.9707  1.1611 -0.0391
 2488SOL     OW 9331   7.343   0.471   5.914  0.0562  0.6236 -0.3851
 2488SOL    HW1 9332   7.378   0.530   5.980 -0.7980  1.4683 -0.6635
 2488SOL    HW2 9333   7.300   0.402   5.964  2.4820 -0.7480 -0.0180
 2489SOL     OW 9334   7.190   8.585   2.438  0.2886  0.4904 -0.2677
 2489SOL    HW1 9335   7.113   8.631   2.405 -1.0465 -1.7777 -0.5211
 2489SOL    HW2 9336   7.201   8.511   2.378  0.9272 -0.8295  1.4169
 2490SOL     OW 9337   8.862   3.739   6.439  0.0586  0.1760  0.0193
 2490SOL    HW1 9338   8.888   3.756   6.348 -1.0074 -0.4056 -0.4069
 2490SOL    HW2 9339   8.872   3.644   6.449 -1.3283  0.0108  0.0064
 2491SOL     OW 9340   2.271   4.784   4.762 -1.1411  0.2639  0.3732
 2491SOL    HW1 9341   2.319   4.865   4.746  0.1636 -0.5391  0.0916
 2491SOL    HW2 9342   2.234   4.761   4.677  0.6919 -0.7830 -0.1982
 2492SOL     OW 9343   3.283   3.627   3.750  0.5200  0.1873  0.5559
 2492SOL    HW1 9344   3.263   3.546   3.703  1.2588  0.1696  0.2567
 2492SOL    HW2 9345   3.375   3.645   3.728  0.4637  0.9165  0.8999
 2493SOL     OW 9346   5.341   5.240   8.847 -0.5466 -0.8212  0.1244
 2493SOL    HW1 9347   5.276   5.302   8.882  1.3443  1.8836 -0.7716
 2493SOL    HW2 9348   5.358   5.180   8.919 -1.1357  0.9075  1.8041
 2494SOL     OW 9349   5.873   1.790   8.097 -0.4528  0.0977 -0.1254
 2494SOL    HW1 9350   5.844   1.714   8.047 -1.1766  0.3016 -0.0241
 2494SOL    HW2 9351   5.832   1.865   8.053  0.3563  0.4486 -0.2995
 2495SOL     OW 9352   5.111   1.877   0.193  0.6423  0.0800 -0.2925
 2495SOL    HW1 9353   5.047   1.840   0.133  0.1530  2.1949 -1.1463
 2495SOL    HW2 9354   5.196   1.855   0.154  0.3314  1.7413 -2.0368
 2496SOL     OW 9355   4.044   2.118   6.683 -0.1854 -0.7232  0.1096
 2496SOL    HW1 9356   3.958   2.160   6.688 -0.0255 -0.4615  0.7470
 2496SOL    HW2 9357   4.077   2.120   6.773  1.0005  0.2308 -0.3254
 2497SOL     OW 9358   3.634   0.549   6.902 -0.2550  0.7173 -0.0473
 2497SOL    HW1 9359   3.601   0.473   6.854  1.6759 -0.6563  0.6433
 2497SOL    HW2 9360   3.722   0.562   6.867  0.1491  1.4090  1.1788
 2498SOL     OW 9361   7.618   7.351   3.421  0.1040 -0.8422  0.0137
 2498SOL    HW1 9362   7.574   7.334   3.504  1.1736 -0.3395  0.6976
 2498SOL    HW2 9363   7.561   7.414   3.376  0.0931 -0.2077  0.8859
 2499SOL     OW 9364   5.584   0.748   2.718  0.6028 -0.6188 -0.1453
 2499SOL    HW1 9365   5.539   0.748   2.634  1.7810 -0.3822 -0.8039
 2499SOL    HW2 9366   5.514   0.742   2.783 -0.4280  0.6431 -1.0858
 2500SOL     OW 9367   2.209   8.236   1.563  0.2995 -0.0679  0.0814
 2500SOL    HW1 9368   2.238   8.300   1.499  0.6952 -1.7014 -1.4402
 2500SOL    HW2 9369   2.140   8.281   1.613  1.1391  1.7799 -0.3649
 2501SOL     OW 9370   6.039   0.142   2.539 -0.1401  0.3316 -0.7715
 2501SOL    HW1 9371   6.120   0.110   2.497 -0.7423 -2.4626  0.0120
 2501SOL    HW2 9372   6.062   0.230   2.569  2.4214 -0.1158 -1.1225
 2502SOL     OW 9373   6.920   0.500   6.096 -0.0847  0.0209  0.3282
 2502SOL    HW1 9374   6.932   0.405   6.096 -0.5710 -0.0487 -0.6381
 2502SOL    HW2 9375   6.859   0.516   6.168 -0.4065 -0.4617  0.1684
 2503SOL     OW 9376   3.535   4.981   8.415  0.4045 -0.0359 -0.0076
 2503SOL    HW1 9377   3.586   5.062   8.417  4.1845 -2.1395  2.6400
 2503SOL    HW2 9378   3.551   4.944   8.328 -0.3755  1.4205 -0.7987
 2504SOL     OW 9379   0.183   2.050   3.639 -0.1115 -0.4064 -0.2105
 2504SOL    HW1 9380   0.099   2.094   3.653  0.4018  0.4926  0.1282
 2504SOL    HW2 9381   0.206   2.071   3.548  1.2748  2.1270  0.6247
 2505SOL     OW 9382   6.841   4.802   8.840  0.1894  0.1570  0.1311
 2505SOL    HW1 9383   6.856   4.894   8.819 -0.3479 -0.0156 -1.1679
 2505SOL    HW2 9384   6.745   4.794   8.845  0.1585 -0.5792 -1.1580
 2506SOL     OW 9385   6.860   0.689   1.122 -0.3153  0.0641 -0.5269
 2506SOL    HW1 9386   6.861   0.623   1.053  0.3945  0.2500 -0.6946
 2506SOL    HW2 9387   6.891   0.769   1.080 -0.6028  0.3678 -0.1770
 2507SOL     OW 9388   5.137   6.885   7.750 -0.3015  0.3733 -0.0053
 2507SOL    HW1 9389   5.097   6.926   7.827 -0.3609  0.5323 -0.1224
 2507SOL    HW2 9390   5.200   6.949   7.719  0.5831 -0.1598  0.6126
 2508SOL     OW 9391   4.320   3.770   5.919 -0.3347  0.9919  0.0265
 2508SOL    HW1 9392   4.236   3.745   5.955 -1.0778  0.6902 -1.8098
 2508SOL    HW2 9393   4.355   3.835   5.981 -2.0462  1.3568  0.6526
 2509SOL     OW 9394   0.438   6.090   5.575  0.1679 -0.0397  0.3768
 2509SOL    HW1 9395   0.435   5.995   5.560 -0.7699  0.3067 -1.9519
 2509SOL    HW2 9396   0.499   6.123   5.510 -0.8980  1.1278 -0.0654
 2510SOL     OW 9397   2.568   1.325   6.138  0.1501 -0.1727  0.1010
 2510SOL    HW1 9398   2.558   1.375   6.219  1.2125  2.0210 -1.0166
 2510SOL    HW2 9399   2.601   1.240   6.166 -0.9178 -0.0063  2.0534
 2511SOL     OW 9400   1.819   0.474   7.101  0.4437  0.1663 -0.0548
 2511SOL    HW1 9401   1.824   0.430   7.186  1.0516 -1.7118 -0.9922
 2511SOL    HW2 9402   1.910   0.478   7.071  0.2698  1.0744 -0.4883
 2512SOL     OW 9403   3.337   3.442   5.017  0.9291 -0.1022 -0.0069
 2512SOL    HW1 9404   3.431   3.429   5.000  0.6861 -1.4227 -0.4999
 2512SOL    HW2 9405   3.327   3.537   5.023  2.1869  0.1054 -0.6630
 2513SOL     OW 9406   7.003   3.053   6.454  0.1822  0.2052 -0.3115
 2513SOL    HW1 9407   6.918   3.019   6.426  0.8161 -2.1136  0.2805
 2513SOL    HW2 9408   6.985   3.140   6.488 -1.9882 -0.2772 -0.1108
 2514SOL     OW 9409   6.727   2.588   2.367 -0.4679 -0.1880 -0.2044
 2514SOL    HW1 9410   6.775   2.506   2.354  0.3660  0.3713 -0.7436
 2514SOL    HW2 9411   6.685   2.578   2.452  0.6167 -0.6940  0.2898
 2515SOL     OW 9412   3.732   6.807   4.136  0.7735  0.1552 -0.6263
 2515SOL    HW1 9413   3.698   6.799   4.047 -0.3294  2.1120 -0.4487
 2515SOL    HW2 9414   3.668   6.762   4.190  0.9993 -0.3121 -0.7492
 2516SOL     OW 9415   7.907   3.283   0.343  0.1646 -0.0275 -0.0386
 2516SOL    HW1 9416   7.963   3.218   0.386  0.8950  0.1985 -0.6270
 2516SOL    HW2 9417   7.933   3.280   0.251 -0.6302  0.2590 -0.2864
 2517SOL     OW 9418   8.724   0.207   2.734  0.5459 -0.1047  0.1687
 2517SOL    HW1 9419   8.682   0.293   2.724  2.0577  0.4593 -2.1023
 2517SOL    HW2 9420   8.651   0.145   2.739 -0.5623  1.2077  0.7167
 2518SOL     OW 9421   6.605   0.429   5.212 -0.3887  0.3284  0.2552
 2518SOL    HW1 9422   6.668   0.362   5.236  0.4985  1.0816  0.1113
 2518SOL    HW2 9423   6.552   0.441   5.291  1.4158  1.5930  1.3890
 2519SOL     OW 9424   5.370   8.231   7.163  0.6013  0.1744 -0.6665
 2519SOL    HW1 9425   5.354   8.198   7.075 -0.6088  0.5000 -0.5810
 2519SOL    HW2 9426   5.289   8.276   7.187  1.3641  1.1787  0.1256
 2520SOL     OW 9427   1.816   0.792   8.236 -0.6367  0.0250 -0.3131
 2520SOL    HW1 9428   1.836   0.708   8.195  2.3219  1.6903 -2.7505
 2520SOL    HW2 9429   1.871   0.794   8.315  0.9132  0.3514 -1.3376
 2521SOL     OW 9430   1.848   1.977   3.957 -0.2188  0.8530 -0.2851
 2521SOL    HW1 9431   1.919   1.978   3.892  0.0819 -1.2827 -0.0563
 2521SOL    HW2 9432   1.791   1.905   3.930 -0.3925  0.2805  1.4742
 2522SOL     OW 9433   6.872   1.991   0.665 -0.6225 -0.0687  0.2891
 2522SOL    HW1 9434   6.965   1.987   0.640 -0.8648  1.4924 -1.0685
 2522SOL    HW2 9435   6.834   1.911   0.631 -0.4549  0.9309 -2.4992
 2523SOL     OW 9436   8.720   5.877   0.940 -0.3579  0.4804  0.3327
 2523SOL    HW1 9437   8.639   5.838   0.973 -0.4490  0.5372  0.1771
 2523SOL    HW2 9438   8.790   5.829   0.985 -0.4251 -0.8458 -0.9270
 2524SOL     OW 9439   7.153   7.984   1.279 -0.2834  0.1499 -0.3491
 2524SOL    HW1 9440   7.176   8.068   1.238 -1.4081  0.8761  0.4780
 2524SOL    HW2 9441   7.068   7.999   1.320 -0.4945 -1.3968 -0.1593
 2525SOL     OW 9442   4.647   8.634   2.725 -0.2647 -0.7215  0.1978
 2525SOL    HW1 9443   4.567   8.640   2.673 -1.0698 -1.9379  1.2356
 2525SOL    HW2 9444   4.651   8.542   2.752  2.2328 -1.0373 -0.9711
 2526SOL     OW 9445   3.852   7.461   6.441 -0.0726 -0.2734  0.7100
 2526SOL    HW1 9446   3.905   7.535   6.413  1.1866 -0.4050  2.5780
 2526SOL    HW2 9447   3.849   7.467   6.536 -1.0551 -1.8838  0.8312
 2527SOL     OW 9448   1.237   8.478   2.164 -0.2109  0.2153 -0.3877
 2527SOL    HW1 9449   1.198   8.435   2.240  0.2861  0.1930 -0.1491
 2527SOL    HW2 9450   1.263   8.406   2.106 -1.3630  0.2449 -0.9743
 2528SOL     OW 9451   8.414   1.373   8.238 -0.3006  0.2559  0.3282
 2528SOL    HW1 9452   8.323   1.364   8.267 -0.0080 -1.3211  0.8429
 2528SOL    HW2 9453   8.463   1.313   8.294  1.1140  1.3039  0.2550
 2529SOL     OW 9454   0.980   0.205   1.267  0.3552 -0.0406  0.0650
 2529SOL    HW1 9455   0.895   0.200   1.312 -0.6827  2.1516 -1.4774
 2529SOL    HW2 9456   1.006   0.114   1.255 -1.7780 -0.7807  0.5867
 2530SOL     OW 9457   5.148   8.346   1.456 -0.2088 -0.3642  0.6552
 2530SOL    HW1 9458   5.163   8.399   1.534  0.7544 -0.9851  0.9156
 2530SOL    HW2 9459   5.153   8.407   1.383  0.9012 -0.0902  0.9479
 2531SOL     OW 9460   8.198   8.187   7.680 -0.3244  0.0822 -0.3257
 2531SOL    HW1 9461   8.200   8.277   7.646 -1.3991  0.5434  0.7589
 2531SOL    HW2 9462   8.289   8.157   7.673 -0.3668  0.3113 -3.0444
 2532SOL     OW 9463   7.294   2.200   1.131  0.1458  0.1610 -0.3867
 2532SOL    HW1 9464   7.383   2.176   1.106  0.0844  0.3742 -0.8149
 2532SOL    HW2 9465   7.297   2.209   1.227  0.7454  0.8301 -0.4615
 2533SOL     OW 9466   5.474   1.870   2.128  0.2028 -0.0709 -0.1770
 2533SOL    HW1 9467   5.381   1.854   2.114  0.0167  0.0024  0.8987
 2533SOL    HW2 9468   5.488   1.961   2.102  0.3360 -0.5552 -1.9442
 2534SOL     OW 9469   2.419   3.099   7.766  0.7905 -0.2478  0.3027
 2534SOL    HW1 9470   2.459   3.016   7.793  0.0069 -0.2381  1.6004
 2534SOL    HW2 9471   2.334   3.100   7.810  1.0236  1.4922  0.7997
 2535SOL     OW 9472   1.801   7.882   5.514  0.1093 -0.8509 -0.1414
 2535SOL    HW1 9473   1.769   7.818   5.449 -0.2836  0.4471 -1.2627
 2535SOL    HW2 9474   1.877   7.839   5.553  0.1603 -1.8129 -1.2198
 2536SOL     OW 9475   3.880   1.658   2.429  0.0291 -0.3013  0.0644
 2536SOL    HW1 9476   3.931   1.644   2.349  0.2071  1.0217 -0.0744
 2536SOL    HW2 9477   3.909   1.743   2.462 -1.2177 -0.0700  0.6439
 2537SOL     OW 9478   0.328   8.596   5.228  0.3753 -0.2279  0.2099
 2537SOL    HW1 9479   0.414   8.604   5.185 -0.4276  0.1498 -1.4225
 2537SOL    HW2 9480   0.298   8.509   5.204 -0.0796 -0.0152 -0.0048
 2538SOL     OW 9481   6.539   2.662   2.169  0.4695  0.7934 -0.1739
 2538SOL    HW1 9482   6.615   2.654   2.227 -0.6834  1.5698  1.5423
 2538SOL    HW2 9483   6.499   2.575   2.169  1.2886  0.4040 -1.0212
 2539SOL     OW 9484   8.557   6.294   7.176  0.3958 -0.5257 -0.2631
 2539SOL    HW1 9485   8.518   6.299   7.264  0.3190  2.8454 -0.3706
 2539SOL    HW2 9486   8.650   6.281   7.193  0.4186  0.3574  0.3372
 2540SOL     OW 9487   8.938   7.180   5.233 -0.2622 -0.5723 -0.4999
 2540SOL    HW1 9488   8.985   7.216   5.158  0.3047  0.9951  0.5729
 2540SOL    HW2 9489   8.846   7.203   5.216 -0.2046 -0.6232 -0.9063
 2541SOL     OW 9490   6.188   0.361   5.802 -0.1325 -0.3251 -0.2144
 2541SOL    HW1 9491   6.108   0.362   5.751  0.5411 -0.6618 -1.3173
 2541SOL    HW2 9492   6.258   0.352   5.737  0.8761  1.0584  0.6194
 2542SOL     OW 9493   6.986   6.089   8.306  0.5090 -0.7611  0.2564
 2542SOL    HW1 9494   6.961   6.116   8.395  0.8669  1.4185 -0.2360
 2542SOL    HW2 9495   6.970   6.167   8.253  1.7833 -1.5202 -1.3188
 2543SOL     OW 9496   6.517   5.181   5.547 -0.0599 -0.0745  0.2698
 2543SOL    HW1 9497   6.582   5.160   5.614  0.3376 -1.7234 -0.5972
 2543SOL    HW2 9498   6.449   5.114   5.557  0.3863 -0.8274 -1.4465
 2544SOL     OW 9499   3.744   7.823   2.097 -0.9711 -0.3959  0.5152
 2544SOL    HW1 9500   3.807   7.759   2.130 -0.3047  0.3517  0.7537
 2544SOL    HW2 9501   3.770   7.838   2.006  0.7852  1.6731  1.2471
 2545SOL     OW 9502   1.734   2.663   7.759 -0.3201  0.2241  0.0545
 2545SOL    HW1 9503   1.813   2.713   7.778 -0.1002 -0.5763  1.3128
 2545SOL    HW2 9504   1.735   2.591   7.821 -0.9934 -0.9733 -1.2707
 2546SOL     OW 9505   4.876   5.464   2.740 -0.1280 -0.3681  0.2309
 2546SOL    HW1 9506   4.942   5.456   2.672 -1.1245 -0.7427 -0.7043
 2546SOL    HW2 9507   4.808   5.400   2.717 -1.4470  0.9032  0.4298
 2547SOL     OW 9508   0.950   4.903   1.653  0.2892  0.6136  0.4869
 2547SOL    HW1 9509   0.998   4.843   1.710  0.5087  0.4775  0.1588
 2547SOL    HW2 9510   1.016   4.964   1.620  0.3785 -0.0108 -0.5383
 2548SOL     OW 9511   1.768   3.577   1.329  0.1987 -0.1995 -0.1408
 2548SOL    HW1 9512   1.780   3.489   1.366 -0.0431  0.7709  2.4420
 2548SOL    HW2 9513   1.673   3.588   1.325  0.1998  0.5195  1.1709
 2549SOL     OW 9514   5.107   6.641   3.701 -0.0260  0.6409  0.3958
 2549SOL    HW1 9515   5.085   6.729   3.732  0.2257  0.9210 -0.2123
 2549SOL    HW2 9516   5.064   6.633   3.616  0.8172  0.5769 -0.0361
 2550SOL     OW 9517   5.963   1.966   6.202  0.3046 -0.0870 -0.1214
 2550SOL    HW1 9518   6.040   2.021   6.184  0.5457 -0.7074 -1.0515
 2550SOL    HW2 9519   5.957   1.908   6.126 -1.6609  0.5981 -0.5316
 2551SOL     OW 9520   8.637   2.358   6.219 -0.2408  0.3842 -0.2757
 2551SOL    HW1 9521   8.724   2.319   6.206 -0.4880 -0.1633 -0.3075
 2551SOL    HW2 9522   8.593   2.348   6.135 -0.3719  0.5794 -0.2318
 2552SOL     OW 9523   8.970   1.421   4.051  0.0248 -0.3113 -0.4116
 2552SOL    HW1 9524   8.912   1.423   3.975  0.2508 -1.5670 -0.6425
 2552SOL    HW2 9525   8.976   1.328   4.074 -2.2642  0.1767  2.8754
 2553SOL     OW 9526   3.517   0.072   1.509  0.3254  0.2949  0.0733
 2553SOL    HW1 9527   3.538   0.074   1.602  1.6213 -0.4934 -0.1765
 2553SOL    HW2 9528   3.601   0.058   1.466 -0.5147 -1.6128 -1.0674
 2554SOL     OW 9529   0.629   1.011   8.160  0.7572 -0.0383 -0.3667
 2554SOL    HW1 9530   0.638   0.921   8.193 -1.0190  0.9295  3.3982
 2554SOL    HW2 9531   0.700   1.059   8.202  0.9070  0.5654 -1.3005
 2555SOL     OW 9532   2.132   1.556   1.111 -0.0181 -0.1451  0.0870
 2555SOL    HW1 9533   2.143   1.581   1.203 -0.8547  0.1228  0.1195
 2555SOL    HW2 9534   2.132   1.461   1.111  0.8280 -0.1546  0.2531
 2556SOL     OW 9535   6.911   2.222   2.073 -0.1130  0.1696  0.2156
 2556SOL    HW1 9536   6.969   2.171   2.016  0.9111 -0.0895  1.4438
 2556SOL    HW2 9537   6.899   2.167   2.151 -0.7929  0.8791  0.6295
 2557SOL     OW 9538   1.121   6.426   6.503 -0.1076  0.5879 -0.5338
 2557SOL    HW1 9539   1.083   6.363   6.564 -4.0692  2.7463 -0.4701
 2557SOL    HW2 9540   1.186   6.473   6.556  2.4810 -2.7121 -0.4140
 2558SOL     OW 9541   4.540   0.916   0.617  0.4353  0.2162 -0.4479
 2558SOL    HW1 9542   4.611   0.973   0.647  1.4918 -1.7789  1.2087
 2558SOL    HW2 9543   4.460   0.959   0.646  1.2413  0.4011  1.6850
 2559SOL     OW 9544   2.959   0.510   5.890 -0.0793  0.8735 -0.1376
 2559SOL    HW1 9545   2.876   0.545   5.858  0.3908  2.2632  0.0809
 2559SOL    HW2 9546   3.021   0.583   5.881  0.9547  0.0861  0.3465
 2560SOL     OW 9547   3.576   1.919   8.615 -0.2029  0.1327 -0.1739
 2560SOL    HW1 9548   3.644   1.932   8.681  1.1371  0.2567 -1.5256
 2560SOL    HW2 9549   3.593   1.831   8.581 -0.3148  0.4070 -0.9574
 2561SOL     OW 9550   5.490   8.818   2.693  0.1764  0.5027  0.0819
 2561SOL    HW1 9551   5.466   8.739   2.743 -1.7459  1.2289  0.4016
 2561SOL    HW2 9552   5.536   8.784   2.616 -0.6571 -0.9571  0.1749
 2562SOL     OW 9553   4.617   6.574   8.670  0.3118 -0.3632  0.0344
 2562SOL    HW1 9554   4.610   6.496   8.615  1.3163 -0.6770  0.3284
 2562SOL    HW2 9555   4.659   6.543   8.751 -1.1379  0.0860  0.9998
 2563SOL     OW 9556   1.599   8.157   1.627 -0.0658  0.3859  0.2990
 2563SOL    HW1 9557   1.643   8.240   1.613 -1.7155  1.3529  0.6350
 2563SOL    HW2 9558   1.520   8.162   1.573 -0.0238 -1.1157  0.0524
 2564SOL     OW 9559   1.229   8.409   1.813  0.4113  0.2590  0.4803
 2564SOL    HW1 9560   1.163   8.449   1.869  1.2843  1.2633  0.8184
 2564SOL    HW2 9561   1.277   8.349   1.871  0.0513 -0.1799  0.3279
 2565SOL     OW 9562   4.897   0.886   6.342  0.1564  0.2881 -0.8893
 2565SOL    HW1 9563   4.944   0.952   6.392 -1.1421  0.6102 -0.0500
 2565SOL    HW2 9564   4.957   0.811   6.339  0.9062  0.8491 -0.2639
 2566SOL     OW 9565   8.495   6.860   0.183 -0.2296 -0.0036 -0.6056
 2566SOL    HW1 9566   8.422   6.832   0.127  0.8085  0.5862 -2.3132
 2566SOL    HW2 9567   8.553   6.783   0.187 -0.6704 -0.3121  0.3653
 2567SOL     OW 9568   3.684   4.448   2.598  0.0107  0.3331 -0.2364
 2567SOL    HW1 9569   3.685   4.461   2.503  1.3554  0.6558 -0.2025
 2567SOL    HW2 9570   3.603   4.489   2.627  0.5253  2.0566 -1.0428
 2568SOL     OW 9571   5.987   3.413   6.543 -0.3527 -0.2772  0.3570
 2568SOL    HW1 9572   6.023   3.493   6.579  2.3479 -1.0299 -0.4841
 2568SOL    HW2 9573   6.011   3.345   6.605 -0.8144 -0.7492  0.0381
 2569SOL     OW 9574   8.544   5.227   7.446 -0.2875 -0.1479 -0.3920
 2569SOL    HW1 9575   8.515   5.260   7.361  0.5287 -1.7890 -1.3481
 2569SOL    HW2 9576   8.485   5.153   7.464 -1.5200  1.1750  1.2891
 2570SOL     OW 9577   1.394   3.199   6.285  0.3418  0.1494  0.0757
 2570SOL    HW1 9578   1.363   3.112   6.311 -1.1665  0.4788 -0.5034
 2570SOL    HW2 9579   1.378   3.203   6.191  1.4277  0.6737 -0.1103
 2571SOL     OW 9580   4.720   4.865   7.759 -0.5433  0.8616  0.1196
 2571SOL    HW1 9581   4.686   4.940   7.808 -3.0037  1.3971 -2.2215
 2571SOL    HW2 9582   4.693   4.880   7.669  1.5313 -1.3978 -1.0040
 2572SOL     OW 9583   8.449   4.595   4.300 -0.4410  0.4501  0.2810
 2572SOL    HW1 9584   8.457   4.614   4.394  3.0784 -0.6418  0.3405
 2572SOL    HW2 9585   8.447   4.499   4.295  2.2214  0.3745 -0.7872
 2573SOL     OW 9586   6.623   6.825   6.672 -0.3207  0.0139  1.0634
 2573SOL    HW1 9587   6.625   6.828   6.768 -0.8378 -1.2648  1.1239
 2573SOL    HW2 9588   6.690   6.761   6.648 -0.6235 -0.1320  0.5958
 2574SOL     OW 9589   1.457   3.434   5.421 -0.1798 -0.2492 -0.1790
 2574SOL    HW1 9590   1.549   3.451   5.398 -0.5427  1.4130 -0.5356
 2574SOL    HW2 9591   1.440   3.346   5.388  1.5593 -1.0227  0.8066
 2575SOL     OW 9592   1.697   4.488   5.889 -0.2746 -0.2994 -0.5851
 2575SOL    HW1 9593   1.644   4.513   5.814  1.1265  0.5893 -1.3156
 2575SOL    HW2 9594   1.635   4.487   5.963 -1.4680 -0.2113 -1.5536
 2576SOL     OW 9595   3.074   0.709   5.033  0.0946 -0.1409  0.0640
 2576SOL    HW1 9596   3.100   0.731   5.122  1.3811 -0.0033 -0.3263
 2576SOL    HW2 9597   2.986   0.673   5.042 -0.4358  1.3275  1.1939
 2577SOL     OW 9598   7.288   7.893   6.068 -0.6593 -0.7302 -0.1450
 2577SOL    HW1 9599   7.281   7.873   5.974  0.4845 -0.0279 -0.4017
 2577SOL    HW2 9600   7.271   7.810   6.112  2.2304 -1.9581 -1.1018
 2578SOL     OW 9601   1.374   8.764   5.256 -0.1986  0.4428 -0.3231
 2578SOL    HW1 9602   1.356   8.683   5.303  1.3292  1.6400  2.6135
 2578SOL    HW2 9603   1.419   8.737   5.177  0.6283 -1.5794  0.7606
 2579SOL     OW 9604   6.004   6.603   7.392 -0.1751 -0.0242 -0.1500
 2579SOL    HW1 9605   5.946   6.532   7.420  0.3836 -0.9237 -1.1748
 2579SOL    HW2 9606   6.021   6.653   7.472 -2.2671  0.2109  0.1875
 2580SOL     OW 9607   1.399   1.225   4.930  0.0051 -0.0604  0.3295
 2580SOL    HW1 9608   1.347   1.145   4.924  1.7501 -1.1479 -1.7325
 2580SOL    HW2 9609   1.481   1.197   4.972  0.5589  0.6640 -0.2335
 2581SOL     OW 9610   3.072   7.020   2.807  0.1095 -0.1364  0.2655
 2581SOL    HW1 9611   3.144   7.074   2.775 -0.4456 -0.1581 -1.0997
 2581SOL    HW2 9612   3.058   6.956   2.738 -1.2406 -0.1062  0.4864
 2582SOL     OW 9613   8.737   1.716   1.955  0.4213  0.0605  0.3851
 2582SOL    HW1 9614   8.663   1.676   2.001 -2.0246  1.8397 -1.7045
 2582SOL    HW2 9615   8.740   1.670   1.871  1.5519  0.1846  0.3468
 2583SOL     OW 9616   7.580   8.887   0.459  0.1465 -0.5610 -0.2989
 2583SOL    HW1 9617   7.640   8.961   0.462  0.0845 -0.5377  0.6902
 2583SOL    HW2 9618   7.596   8.847   0.373  1.5318 -0.5202 -0.0916
 2584SOL     OW 9619   3.967   2.788   1.692  0.1800 -0.5528 -0.0465
 2584SOL    HW1 9620   3.930   2.766   1.778 -0.2280 -0.5330 -0.2131
 2584SOL    HW2 9621   3.959   2.883   1.686  3.1884 -0.0874  1.2475
 2585SOL     OW 9622   7.881   0.464   0.666  0.2609  0.9362  0.1417
 2585SOL    HW1 9623   7.960   0.518   0.668 -0.3944  1.9626  3.0246
 2585SOL    HW2 9624   7.816   0.519   0.621  0.2326  1.6106  0.9807
 2586SOL     OW 9625   1.820   2.676   6.108 -0.7410 -0.0517 -0.0966
 2586SOL    HW1 9626   1.847   2.607   6.168  0.0506  0.4449  0.1272
 2586SOL    HW2 9627   1.788   2.630   6.031  0.9796 -0.6644 -0.4737
 2587SOL     OW 9628   6.529   1.760   1.513 -0.2819  0.7222 -0.1235
 2587SOL    HW1 9629   6.445   1.758   1.468  0.2166  3.1105 -1.2809
 2587SOL    HW2 9630   6.575   1.681   1.483 -0.8523  1.0822 -2.0056
 2588SOL     OW 9631   3.153   1.865   7.495 -0.5083 -0.3250  0.3007
 2588SOL    HW1 9632   3.178   1.775   7.477 -1.8123 -0.3072 -1.9163
 2588SOL    HW2 9633   3.083   1.884   7.433 -1.5415  1.6525  1.9338
 2589SOL     OW 9634   6.203   4.761   6.695  0.3362  0.0609 -0.2961
 2589SOL    HW1 9635   6.145   4.739   6.622 -0.2299  0.9301 -0.1276
 2589SOL    HW2 9636   6.157   4.728   6.773  1.1001 -1.1702 -0.3583
 2590SOL     OW 9637   4.287   7.930   1.487  0.3693 -0.4301  0.3793
 2590SOL    HW1 9638   4.367   7.972   1.519 -0.2687  0.4545  0.8463
 2590SOL    HW2 9639   4.231   7.922   1.564 -1.3700  2.1008 -0.4739
 2591SOL     OW 9640   4.024   1.867   4.989  0.3282 -0.5586 -0.2876
 2591SOL    HW1 9641   4.003   1.887   5.081 -1.4291 -1.3057 -0.4893
 2591SOL    HW2 9642   3.996   1.945   4.941 -0.2966 -0.8185 -0.3541
 2592SOL     OW 9643   3.299   5.804   6.512 -0.3459 -0.5490 -0.1989
 2592SOL    HW1 9644   3.214   5.806   6.470  0.2522  1.9759 -1.5044
 2592SOL    HW2 9645   3.310   5.892   6.548  2.5822  0.0183 -2.0937
 2593SOL     OW 9646   3.893   0.418   4.965 -0.7676  0.1502 -0.5609
 2593SOL    HW1 9647   3.974   0.417   5.015  0.0817  0.6928 -1.8669
 2593SOL    HW2 9648   3.852   0.502   4.987 -1.4246 -0.4794  0.7363
 2594SOL     OW 9649   2.008   3.610   0.679 -0.3598  0.7666 -0.0407
 2594SOL    HW1 9650   2.010   3.642   0.770  2.4457  1.3032 -0.1968
 2594SOL    HW2 9651   2.056   3.676   0.629  0.2641 -0.7005 -1.4721
 2595SOL     OW 9652   7.036   5.494   8.389 -0.6147 -0.1867 -1.1351
 2595SOL    HW1 9653   7.048   5.580   8.349 -1.9863 -0.0602 -1.3247
 2595SOL    HW2 9654   7.113   5.444   8.364 -0.0819  0.8093 -1.5019
 2596SOL     OW 9655   3.595   4.222   2.000 -0.1687  0.1260 -0.4992
 2596SOL    HW1 9656   3.552   4.209   2.084  1.6633  0.0398  0.4689
 2596SOL    HW2 9657   3.593   4.136   1.958  2.3068 -0.8447  1.1776
 2597SOL     OW 9658   6.623   7.318   6.715  0.4347  0.5524  0.4681
 2597SOL    HW1 9659   6.697   7.372   6.743  1.8971 -0.9484 -0.3762
 2597SOL    HW2 9660   6.648   7.229   6.739 -0.9643 -0.0363 -0.1638
 2598SOL     OW 9661   2.788   5.051   3.878 -0.3658 -0.0030  0.1724
 2598SOL    HW1 9662   2.713   5.089   3.923  1.2164  2.6591  0.7709
 2598SOL    HW2 9663   2.771   5.067   3.785 -0.0626  1.6602  0.3697
 2599SOL     OW 9664   7.627   4.289   8.071 -0.5614  0.2676  0.2720
 2599SOL    HW1 9665   7.701   4.301   8.130 -0.4480  0.3848  0.1043
 2599SOL    HW2 9666   7.666   4.275   7.985 -0.7507  1.2037  0.0287
 2600SOL     OW 9667   0.418   2.956   2.976 -0.4251  0.1884 -0.1274
 2600SOL    HW1 9668   0.360   3.029   2.997 -2.5551 -1.2040 -0.8632
 2600SOL    HW2 9669   0.452   2.978   2.889  1.6637  1.8557  1.0205
 2601SOL     OW 9670   2.600   8.852   3.707  0.1488 -1.0282  0.2273
 2601SOL    HW1 9671   2.647   8.863   3.625 -0.0947  0.5689  0.2541
 2601SOL    HW2 9672   2.528   8.916   3.701 -0.0198 -1.0693  1.5605
 2602SOL     OW 9673   8.382   8.512   0.380 -0.1459  0.0393 -0.3013
 2602SOL    HW1 9674   8.460   8.560   0.353  0.2119  0.6702  1.7180
 2602SOL    HW2 9675   8.413   8.424   0.399 -0.1471 -0.0231 -0.5785
 2603SOL     OW 9676   3.269   6.786   3.485  0.0332 -0.4017  0.0351
 2603SOL    HW1 9677   3.268   6.825   3.572  0.4789 -2.2734  0.9163
 2603SOL    HW2 9678   3.243   6.858   3.427 -0.3732  0.8619  1.6957
 2604SOL     OW 9679   1.682   0.866   4.169 -0.3198 -0.0089  0.1047
 2604SOL    HW1 9680   1.643   0.794   4.219  0.8144  0.3819  1.6001
 2604SOL    HW2 9681   1.776   0.857   4.182 -0.1573  2.0053  0.7397
 2605SOL     OW 9682   2.588   1.958   4.228 -0.3370 -0.4035 -0.5453
 2605SOL    HW1 9683   2.500   1.936   4.198  0.0480 -0.5628 -1.5921
 2605SOL    HW2 9684   2.635   1.981   4.149  0.4921 -0.0389  0.0427
 2606SOL     OW 9685   2.211   1.929   8.969  0.2940 -0.3904 -0.0857
 2606SOL    HW1 9686   2.139   1.870   8.947 -0.3195 -0.2283  1.3278
 2606SOL    HW2 9687   2.288   1.873   8.973 -0.0767 -0.8997  0.1005
 2607SOL     OW 9688   4.166   6.103   0.785  0.3523 -0.4555  0.4488
 2607SOL    HW1 9689   4.140   6.175   0.841 -0.5472 -1.5302  1.4580
 2607SOL    HW2 9690   4.197   6.145   0.704  1.2355  1.0962  1.5474
 2608SOL     OW 9691   6.611   2.618   1.620 -0.3569  0.2779  0.1537
 2608SOL    HW1 9692   6.607   2.597   1.713 -1.6593  0.9051  0.2665
 2608SOL    HW2 9693   6.629   2.712   1.618  0.0180  0.1983 -0.2345
 2609SOL     OW 9694   5.940   8.918   3.071  0.3882 -0.1170 -0.2792
 2609SOL    HW1 9695   5.917   8.998   3.024  1.3228 -0.6378 -1.7079
 2609SOL    HW2 9696   5.946   8.944   3.163  2.4086  1.9020 -0.8820
 2610SOL     OW 9697   5.124   6.891   2.644 -0.1014  0.3184  0.0541
 2610SOL    HW1 9698   5.126   6.901   2.549 -0.0380  0.2174  0.0439
 2610SOL    HW2 9699   5.216   6.891   2.671 -0.1139  0.1959  0.0980
 2611SOL     OW 9700   1.007   6.168   1.792  0.1639  0.1454 -0.5419
 2611SOL    HW1 9701   1.074   6.175   1.860 -0.3744  0.5832 -0.0591
 2611SOL    HW2 9702   1.052   6.198   1.712  0.5749  0.3316 -0.2441
 2612SOL     OW 9703   7.296   2.437   3.757  0.1577 -0.3662  0.4477
 2612SOL    HW1 9704   7.358   2.441   3.830 -1.3372  1.9890  1.7126
 2612SOL    HW2 9705   7.334   2.493   3.690 -0.4065  0.8496  1.1128
 2613SOL     OW 9706   6.224   6.670   3.227  0.6671  0.1012  0.1936
 2613SOL    HW1 9707   6.272   6.588   3.240  0.1277 -0.3570 -0.6220
 2613SOL    HW2 9708   6.140   6.644   3.190  0.1547  0.9700  0.6953
 2614SOL     OW 9709   6.300   1.499   2.851  0.7109 -0.3449  0.1017
 2614SOL    HW1 9710   6.314   1.541   2.766  3.7504  0.0147  0.6738
 2614SOL    HW2 9711   6.315   1.406   2.835 -1.2134 -0.6421 -0.1950
 2615SOL     OW 9712   2.772   5.028   0.454  0.0360 -0.2768  0.4214
 2615SOL    HW1 9713   2.729   5.080   0.522  0.4272  0.5119  0.0788
 2615SOL    HW2 9714   2.740   5.065   0.372 -1.4916 -2.0979  0.1204
 2616SOL     OW 9715   7.638   3.333   1.940  0.1323  0.0948  0.5232
 2616SOL    HW1 9716   7.585   3.326   2.020 -0.7062 -1.8611 -0.1400
 2616SOL    HW2 9717   7.725   3.302   1.966 -0.4434 -1.6960  0.4643
 2617SOL     OW 9718   8.135   0.752   4.446  0.0647 -0.0179 -0.5311
 2617SOL    HW1 9719   8.095   0.754   4.533 -0.5522 -1.3482 -0.7645
 2617SOL    HW2 9720   8.229   0.741   4.464 -0.0763 -0.4913 -0.0252
 2618SOL     OW 9721   3.989   2.674   7.575 -0.2118 -0.1226  0.1710
 2618SOL    HW1 9722   3.934   2.695   7.499 -0.3020 -2.1821 -0.3971
 2618SOL    HW2 9723   4.073   2.714   7.555 -0.6402  0.5601 -0.3341
 2619SOL     OW 9724   8.470   4.831   3.171  0.2444  0.1499  0.5642
 2619SOL    HW1 9725   8.409   4.815   3.100 -0.1023 -1.1740  1.1287
 2619SOL    HW2 9726   8.416   4.863   3.243  0.3056 -0.3910  0.8544
 2620SOL     OW 9727   1.690   6.671   6.762  0.5535 -0.5332 -0.0670
 2620SOL    HW1 9728   1.731   6.740   6.815 -0.2207  2.2015 -2.7068
 2620SOL    HW2 9729   1.755   6.650   6.695  0.2554 -1.3983 -0.0943
 2621SOL     OW 9730   1.591   0.612   4.254  0.3370  0.2740  0.4248
 2621SOL    HW1 9731   1.511   0.570   4.223  2.4440 -1.9834 -2.6427
 2621SOL    HW2 9732   1.603   0.578   4.343 -0.3082 -2.3189 -0.3773
 2622SOL     OW 9733   8.585   5.604   6.649  0.3851 -0.2754  0.0553
 2622SOL    HW1 9734   8.655   5.618   6.713  0.4475  1.3233 -0.3253
 2622SOL    HW2 9735   8.505   5.607   6.701  0.5147 -0.5644  0.2772
 2623SOL     OW 9736   8.424   7.793   2.857 -0.0069  0.4296  0.1571
 2623SOL    HW1 9737   8.433   7.857   2.786 -0.7854  0.4219  0.0390
 2623SOL    HW2 9738   8.330   7.788   2.873  0.2462  1.5225  2.2124
 2624SOL     OW 9739   2.014   6.983   4.477 -0.0348  0.0557 -0.3127
 2624SOL    HW1 9740   2.055   7.060   4.438  1.0647 -0.2472  0.2081
 2624SOL    HW2 9741   2.073   6.957   4.547 -0.2714 -1.3858 -0.6039
 2625SOL     OW 9742   8.820   6.062   1.886 -0.1795  0.6485  0.1342
 2625SOL    HW1 9743   8.824   5.967   1.893 -0.4264  0.4699 -1.7108
 2625SOL    HW2 9744   8.869   6.082   1.806 -2.6952  1.7853 -1.2139
 2626SOL     OW 9745   8.477   6.029   1.713  0.0763 -0.1419  0.1951
 2626SOL    HW1 9746   8.514   5.976   1.784 -0.6460 -3.4405 -1.6916
 2626SOL    HW2 9747   8.543   6.029   1.645 -1.3104 -1.7898 -1.2319
 2627SOL     OW 9748   8.748   3.408   2.222  0.3348 -0.8421 -0.3408
 2627SOL    HW1 9749   8.778   3.319   2.240  1.3749 -0.4412 -0.0893
 2627SOL    HW2 9750   8.749   3.414   2.126  1.3639 -0.7282 -0.3261
 2628SOL     OW 9751   3.046   2.407   1.208  0.1206  0.0057  0.1813
 2628SOL    HW1 9752   3.097   2.462   1.267  0.6628 -2.4116  2.1417
 2628SOL    HW2 9753   2.955   2.429   1.228  0.3074 -0.5422  1.7377
 2629SOL     OW 9754   7.531   1.267   3.506  0.0362  0.3948 -0.6095
 2629SOL    HW1 9755   7.527   1.357   3.539 -1.4728  0.5744 -1.2140
 2629SOL    HW2 9756   7.556   1.277   3.414  1.8204  0.0462 -0.1961
 2630SOL     OW 9757   5.196   3.873   1.810  0.3290 -0.3923  0.6142
 2630SOL    HW1 9758   5.185   3.866   1.715  0.2967 -2.5260  0.7349
 2630SOL    HW2 9759   5.172   3.787   1.844 -0.5259  0.5877  2.6671
 2631SOL     OW 9760   4.018   7.635   5.891 -0.9164  0.5162  0.3977
 2631SOL    HW1 9761   4.009   7.727   5.917  2.3353  1.3556 -1.0440
 2631SOL    HW2 9762   3.999   7.634   5.798 -0.8500 -0.2904  0.3854
 2632SOL     OW 9763   2.799   2.695   1.585  0.1597  0.8666  0.1038
 2632SOL    HW1 9764   2.738   2.636   1.630 -0.0967  0.1331 -1.1710
 2632SOL    HW2 9765   2.743   2.748   1.527  0.8184 -1.0399 -2.4512
 2633SOL     OW 9766   3.269   0.649   6.309 -0.3838  0.1091 -0.1938
 2633SOL    HW1 9767   3.221   0.602   6.377 -1.6590  1.1872 -0.2980
 2633SOL    HW2 9768   3.326   0.583   6.270  1.2755 -0.3117  2.6413
 2634SOL     OW 9769   0.373   0.548   5.322 -0.1104 -0.3570 -0.1530
 2634SOL    HW1 9770   0.396   0.573   5.412  2.0126 -1.6228 -0.2775
 2634SOL    HW2 9771   0.359   0.453   5.327  1.1961 -0.6330 -1.3493
 2635SOL     OW 9772   3.256   5.227   8.902  0.0806 -0.0475  0.0727
 2635SOL    HW1 9773   3.327   5.277   8.942  0.7611 -2.0663  1.6117
 2635SOL    HW2 9774   3.266   5.139   8.939 -1.2361 -1.2466 -2.1931
 2636SOL     OW 9775   0.137   2.346   4.471  0.2582  0.5474  0.1338
 2636SOL    HW1 9776   0.153   2.439   4.484 -0.4893  0.8336 -0.8326
 2636SOL    HW2 9777   0.042   2.338   4.470  0.3152 -0.1665 -0.1178
 2637SOL     OW 9778   1.241   5.466   0.199 -0.0447  0.0105  0.2986
 2637SOL    HW1 9779   1.309   5.525   0.230 -0.2598 -0.2435  1.2921
 2637SOL    HW2 9780   1.178   5.524   0.155 -0.1902  0.5286  1.1473
 2638SOL     OW 9781   0.251   1.179   0.185 -0.0808 -0.3550 -0.3047
 2638SOL    HW1 9782   0.159   1.181   0.209 -0.2349 -1.6391 -0.7412
 2638SOL    HW2 9783   0.254   1.132   0.102  0.9567 -0.1798 -0.3862
 2639SOL     OW 9784   0.522   0.221   6.523 -0.9561 -0.7657 -0.3925
 2639SOL    HW1 9785   0.448   0.240   6.465 -1.0754  0.7369  0.1937
 2639SOL    HW2 9786   0.590   0.185   6.466 -0.7796  1.4012 -1.6530
 2640SOL     OW 9787   7.232   2.501   6.697 -0.0196 -0.6015  0.4267
 2640SOL    HW1 9788   7.175   2.566   6.739  0.1404  0.1470 -0.4623
 2640SOL    HW2 9789   7.205   2.501   6.605  1.6810  0.1076 -0.1198
 2641SOL     OW 9790   2.316   2.085   3.210  0.0690  0.0420  0.0845
 2641SOL    HW1 9791   2.397   2.088   3.261 -0.3217  2.1257  0.6843
 2641SOL    HW2 9792   2.338   2.123   3.126 -0.5821  2.2517  0.8289
 2642SOL     OW 9793   2.256   5.909   7.788 -0.0826  0.3051  0.0132
 2642SOL    HW1 9794   2.161   5.924   7.791 -0.4457 -1.0397 -2.1828
 2642SOL    HW2 9795   2.268   5.824   7.830  0.0785  0.2713 -0.1006
 2643SOL     OW 9796   5.881   4.750   4.266  0.3396  0.7236  0.2199
 2643SOL    HW1 9797   5.849   4.668   4.302 -0.8720  1.3352  0.5739
 2643SOL    HW2 9798   5.963   4.726   4.222 -0.4844 -0.8537 -0.5465
 2644SOL     OW 9799   3.592   4.877   6.285  0.0164  0.1082  0.1161
 2644SOL    HW1 9800   3.558   4.828   6.360 -1.0931  0.0755 -0.3850
 2644SOL    HW2 9801   3.584   4.969   6.310 -0.4406  0.1007  0.0199
 2645SOL     OW 9802   6.944   0.442   1.385 -0.4449 -0.0646 -0.2151
 2645SOL    HW1 9803   6.892   0.519   1.360 -2.8408 -1.4664  0.1516
 2645SOL    HW2 9804   6.997   0.422   1.309 -1.0301  0.9751 -0.9153
 2646SOL     OW 9805   3.156   1.981   2.325 -0.6989  0.2365 -0.1502
 2646SOL    HW1 9806   3.188   2.013   2.241  0.8234  0.9234  0.6367
 2646SOL    HW2 9807   3.182   1.889   2.328 -1.6614 -0.0660 -0.8341
 2647SOL     OW 9808   6.035   1.164   2.776  0.0541  0.0160  0.0176
 2647SOL    HW1 9809   6.060   1.128   2.861  0.0810 -0.1057 -0.0420
 2647SOL    HW2 9810   6.070   1.103   2.712  0.0519  0.1180 -0.0826
 2648SOL     OW 9811   1.152   0.414   2.047 -0.1076 -0.0594  0.4341
 2648SOL    HW1 9812   1.141   0.505   2.074 -0.1590  0.4600 -1.2058
 2648SOL    HW2 9813   1.063   0.384   2.027  0.0762  0.1146 -0.7200
 2649SOL     OW 9814   3.629   7.513   7.028  0.9320 -0.0056 -0.1277
 2649SOL    HW1 9815   3.685   7.576   6.984  0.1106 -0.3789 -1.7634
 2649SOL    HW2 9816   3.540   7.536   7.001  0.4625 -0.6785  0.7858
 2650SOL     OW 9817   5.552   4.025   8.291 -0.2532 -0.3646  0.3534
 2650SOL    HW1 9818   5.581   4.003   8.379  2.9366  1.7723  0.0039
 2650SOL    HW2 9819   5.495   4.102   8.302 -2.1417 -1.7395  0.6696
 2651SOL     OW 9820   0.217   8.607   1.242  0.2220  0.1614 -0.4333
 2651SOL    HW1 9821   0.195   8.592   1.334  1.7577 -0.4385 -0.1507
 2651SOL    HW2 9822   0.258   8.526   1.213 -1.5534 -0.2081 -2.0963
 2652SOL     OW 9823   6.613   0.732   8.146 -0.1679  0.0384  0.2346
 2652SOL    HW1 9824   6.623   0.811   8.093 -0.1891  0.1361  0.3751
 2652SOL    HW2 9825   6.522   0.706   8.134 -0.1265 -0.0423  0.0827
 2653SOL     OW 9826   8.092   7.026   2.504 -0.3234 -0.3096  0.4405
 2653SOL    HW1 9827   8.178   6.994   2.479  0.6577  1.7895  0.8981
 2653SOL    HW2 9828   8.040   7.022   2.423 -0.5161 -3.5625  0.6257
 2654SOL     OW 9829   0.026   5.074   1.330  0.1111  0.3923  0.3274
 2654SOL    HW1 9830  -0.060   5.090   1.293 -1.6075 -1.5637  3.1097
 2654SOL    HW2 9831   0.028   5.125   1.411  1.0800 -0.4675  0.8751
 2655SOL     OW 9832   1.154   1.643   0.886  0.0618 -0.1135 -0.0711
 2655SOL    HW1 9833   1.090   1.712   0.903 -2.0222 -2.4975  2.6488
 2655SOL    HW2 9834   1.239   1.684   0.901 -1.0360  2.0517  0.5560
 2656SOL     OW 9835   3.349   6.910   5.416  0.3979  0.1405  0.4878
 2656SOL    HW1 9836   3.359   6.816   5.428 -0.8565  0.1103  1.5488
 2656SOL    HW2 9837   3.393   6.948   5.491 -0.6497  0.3012  1.0449
 2657SOL     OW 9838   4.940   4.498   7.225  0.1326 -0.0335  0.4159
 2657SOL    HW1 9839   5.031   4.469   7.237  0.0127 -0.4207  0.3945
 2657SOL    HW2 9840   4.909   4.517   7.313  0.3457  0.4482  0.3922
 2658SOL     OW 9841   3.010   6.932   7.742 -0.0930  0.3285 -0.3848
 2658SOL    HW1 9842   2.996   7.026   7.736  1.6683  0.7536  1.1064
 2658SOL    HW2 9843   2.978   6.907   7.829  0.6529 -0.1705 -0.2335
 2659SOL     OW 9844   5.758   0.816   7.486  0.3325 -0.2779  0.3968
 2659SOL    HW1 9845   5.826   0.758   7.521  2.1945  2.3092  1.3545
 2659SOL    HW2 9846   5.794   0.846   7.402 -0.3087  0.0238  0.2256
 2660SOL     OW 9847   5.005   6.837   3.480  0.5637 -0.2854 -0.0805
 2660SOL    HW1 9848   5.040   6.919   3.515 -0.6668  0.0279  0.4857
 2660SOL    HW2 9849   4.920   6.827   3.523  0.0438 -1.1065 -1.2323
 2661SOL     OW 9850   3.730   6.481   4.202 -0.0797  0.3116  0.4330
 2661SOL    HW1 9851   3.697   6.568   4.225 -0.7913  0.3331 -0.6239
 2661SOL    HW2 9852   3.815   6.497   4.162 -0.2793  0.5292  0.0973
 2662SOL     OW 9853   1.938   2.900   7.823  0.0565 -0.2341  0.0823
 2662SOL    HW1 9854   1.849   2.933   7.837  0.0904  0.1607 -0.5756
 2662SOL    HW2 9855   1.995   2.971   7.854  0.1292  0.0208 -0.5951
 2663SOL     OW 9856   8.502   3.495   0.804 -0.5505  0.7067 -0.4201
 2663SOL    HW1 9857   8.457   3.578   0.821  0.6936  1.5488 -1.1030
 2663SOL    HW2 9858   8.489   3.479   0.711 -0.1516  0.5183 -0.4427
 2664SOL     OW 9859   6.392   1.476   5.205  0.2228 -0.4624 -0.3857
 2664SOL    HW1 9860   6.363   1.481   5.296  1.0064 -0.2162 -0.1453
 2664SOL    HW2 9861   6.311   1.474   5.154 -0.2137  0.1477  0.2723
 2665SOL     OW 9862   1.523   2.725   6.635  0.0477 -0.4334  0.6209
 2665SOL    HW1 9863   1.482   2.715   6.549  0.2305  3.4160 -0.1297
 2665SOL    HW2 9864   1.616   2.738   6.616  0.0114  1.0218  1.2810
 2666SOL     OW 9865   3.214   2.804   1.584 -0.0348  0.0069  0.2228
 2666SOL    HW1 9866   3.125   2.817   1.617  0.2071 -0.8201  1.2503
 2666SOL    HW2 9867   3.270   2.815   1.661  0.6271 -1.0112 -0.0951
 2667SOL     OW 9868   0.681   4.940   2.180  0.2189 -0.2542  0.3569
 2667SOL    HW1 9869   0.724   4.859   2.154  0.9422  0.1994  0.1127
 2667SOL    HW2 9870   0.642   4.919   2.265  1.9088 -0.3614  1.1482
 2668SOL     OW 9871   8.152   2.562   1.466 -0.0896  0.2844 -0.4877
 2668SOL    HW1 9872   8.086   2.631   1.470 -0.2081  0.2127 -1.2238
 2668SOL    HW2 9873   8.132   2.505   1.540  0.0738  1.0916  0.1954
 2669SOL     OW 9874   2.320   1.464   3.587 -0.3111  0.2918  0.0996
 2669SOL    HW1 9875   2.396   1.521   3.572  2.2063 -2.5807  0.8841
 2669SOL    HW2 9876   2.274   1.463   3.503  0.8358  1.6819 -0.5941
 2670SOL     OW 9877   7.728   3.324   4.213  0.0397 -0.2457  0.2616
 2670SOL    HW1 9878   7.656   3.295   4.271  0.1011 -1.3841 -0.1994
 2670SOL    HW2 9879   7.797   3.352   4.273 -0.3068 -0.3895  0.7362
 2671SOL     OW 9880   4.691   8.538   3.653  0.3681  0.0353  0.0732
 2671SOL    HW1 9881   4.773   8.489   3.645  0.1100 -0.2377 -0.9727
 2671SOL    HW2 9882   4.680   8.549   3.748  0.8979 -1.1409  0.2918
 2672SOL     OW 9883   4.867   0.631   6.666  0.3731 -0.7408 -0.1979
 2672SOL    HW1 9884   4.777   0.646   6.693 -0.2293  1.6728 -2.9727
 2672SOL    HW2 9885   4.903   0.719   6.656  2.2833 -1.6010 -1.4410
 2673SOL     OW 9886   2.117   2.034   1.281 -0.3456  0.0174  0.3257
 2673SOL    HW1 9887   2.053   1.976   1.240 -0.0769  0.0754 -0.1925
 2673SOL    HW2 9888   2.196   1.981   1.287 -0.3001  0.1058  0.4981
 2674SOL     OW 9889   1.987   5.143   7.371 -0.7066  0.2810 -0.3032
 2674SOL    HW1 9890   2.052   5.208   7.343 -1.0728  0.7026 -0.1935
 2674SOL    HW2 9891   1.967   5.093   7.293  0.7729 -0.7754 -0.0520
 2675SOL     OW 9892   8.151   2.085   7.336  0.1535 -0.1737 -1.0486
 2675SOL    HW1 9893   8.110   2.097   7.421  1.1893 -0.7180 -0.4611
 2675SOL    HW2 9894   8.128   1.996   7.310  0.1131 -0.1222 -1.1937
 2676SOL     OW 9895   7.250   5.926   7.179  0.2567 -0.6571  0.4193
 2676SOL    HW1 9896   7.312   5.946   7.248  0.6085  0.4524 -0.2022
 2676SOL    HW2 9897   7.193   6.002   7.174  1.1800 -0.0139 -1.5133
 2677SOL     OW 9898   6.877   2.742   5.356 -0.5140  0.0140  0.4520
 2677SOL    HW1 9899   6.823   2.666   5.375 -1.5542  0.5452 -0.2860
 2677SOL    HW2 9900   6.949   2.707   5.303 -0.6380 -0.5616  0.6575
 2678SOL     OW 9901   1.571   4.755   1.035 -0.1734 -0.3390  0.3872
 2678SOL    HW1 9902   1.637   4.694   1.001 -0.2615 -0.4670  0.4463
 2678SOL    HW2 9903   1.618   4.838   1.045 -0.2213 -0.2038 -0.3780
 2679SOL     OW 9904   6.615   1.479   2.809  0.4496 -0.2236 -0.0180
 2679SOL    HW1 9905   6.572   1.449   2.889 -0.4305  1.3003  0.1273
 2679SOL    HW2 9906   6.701   1.437   2.811 -0.3904 -2.0085  0.5528
 2680SOL     OW 9907   0.261   5.917   0.750  0.2718  0.0108  0.2107
 2680SOL    HW1 9908   0.251   5.822   0.740  1.0838 -0.2198  1.4536
 2680SOL    HW2 9909   0.355   5.932   0.743  0.1043  0.7882 -0.4288
 2681SOL     OW 9910   5.826   0.255   4.594  0.0384 -0.1702  0.3494
 2681SOL    HW1 9911   5.800   0.219   4.679  0.1544 -1.1200  0.0005
 2681SOL    HW2 9912   5.776   0.204   4.530 -1.0821  1.4292 -0.1254
 2682SOL     OW 9913   5.490   2.032   5.874 -0.1563 -0.5102 -0.0866
 2682SOL    HW1 9914   5.449   2.003   5.955  0.4245  1.0549  0.8306
 2682SOL    HW2 9915   5.473   1.962   5.811  0.4658 -2.3588  1.7154
 2683SOL     OW 9916   5.822   3.696   0.202 -0.2058  0.3840 -0.0106
 2683SOL    HW1 9917   5.733   3.673   0.229 -0.4096  0.9738 -0.1595
 2683SOL    HW2 9918   5.833   3.652   0.118 -0.2569  0.0893  0.1347
 2684SOL     OW 9919   5.686   4.812   5.116  0.1476 -0.0720 -0.1506
 2684SOL    HW1 9920   5.620   4.799   5.184 -0.5140 -1.1770 -0.9708
 2684SOL    HW2 9921   5.767   4.829   5.164 -0.8443  2.1622  0.8727
 2685SOL     OW 9922   8.997   5.209   0.136 -0.0135 -0.1250 -0.0342
 2685SOL    HW1 9923   8.905   5.230   0.156 -0.1528 -0.9151  0.2173
 2685SOL    HW2 9924   9.043   5.292   0.146 -1.0562  0.8522 -2.5380
 2686SOL     OW 9925   0.218   6.972   1.162 -0.1216 -0.3561 -0.0058
 2686SOL    HW1 9926   0.280   6.911   1.203 -0.1165 -0.2013  0.2164
 2686SOL    HW2 9927   0.269   7.051   1.147 -0.0759 -0.4742 -0.4777
 2687SOL     OW 9928   1.514   6.746   1.443  0.1681 -0.5573 -0.0224
 2687SOL    HW1 9929   1.517   6.712   1.533  1.9601  0.2305  0.2624
 2687SOL    HW2 9930   1.605   6.768   1.423  0.0150 -1.8544 -2.4985
 2688SOL     OW 9931   0.054   5.503   7.283 -0.4690 -0.2306  0.3448
 2688SOL    HW1 9932   0.088   5.452   7.357 -0.5236 -2.0368 -0.8141
 2688SOL    HW2 9933  -0.019   5.553   7.319 -0.0427 -0.5128  1.6500
 2689SOL     OW 9934   7.484   3.620   7.489  0.7142  0.0159 -0.1291
 2689SOL    HW1 9935   7.512   3.557   7.556 -0.1830  0.2322  0.4672
 2689SOL    HW2 9936   7.503   3.706   7.528 -2.3820  0.2521  1.1110
 2690SOL     OW 9937   2.086   6.021   2.578  0.4825 -0.3458  0.2614
 2690SOL    HW1 9938   2.172   5.985   2.597 -0.6815 -3.0205  0.9620
 2690SOL    HW2 9939   2.047   5.960   2.515 -1.3367  0.0660  0.9120
 2691SOL     OW 9940   0.840   3.703   6.842  0.0776  0.0349 -0.8337
 2691SOL    HW1 9941   0.882   3.742   6.918 -1.1574  0.0588 -0.1326
 2691SOL    HW2 9942   0.765   3.761   6.824 -1.9644 -2.0715  0.3880
 2692SOL     OW 9943   7.407   6.445   5.563  0.7474  0.2524  0.5675
 2692SOL    HW1 9944   7.469   6.451   5.491  1.0913  1.8121  0.9365
 2692SOL    HW2 9945   7.440   6.375   5.619  2.3639  1.2481  0.9051
 2693SOL     OW 9946   4.657   8.912   2.847 -0.0932  0.1066 -0.4557
 2693SOL    HW1 9947   4.646   8.978   2.778  1.1251 -0.3800 -1.1488
 2693SOL    HW2 9948   4.680   8.832   2.800 -0.3336 -0.5149  0.4554
 2694SOL     OW 9949   4.475   7.419   4.346  0.1508  0.5908  0.4619
 2694SOL    HW1 9950   4.398   7.462   4.384 -0.3907 -0.0016  0.0493
 2694SOL    HW2 9951   4.512   7.485   4.287 -0.7674  0.4412 -0.2963
 2695SOL     OW 9952   8.577   5.054   1.586 -0.5672 -0.1248 -0.5913
 2695SOL    HW1 9953   8.582   5.037   1.492  0.8510  0.0476 -0.5711
 2695SOL    HW2 9954   8.508   4.996   1.618  1.3619 -2.9164 -1.1786
 2696SOL     OW 9955   1.912   3.565   1.793 -0.0937 -0.2312  0.1012
 2696SOL    HW1 9956   1.918   3.660   1.797  3.2132 -0.2979 -0.5285
 2696SOL    HW2 9957   1.888   3.546   1.702 -1.3243 -0.0435  0.3667
 2697SOL     OW 9958   8.313   2.480   3.476  0.3698 -0.5865 -0.1178
 2697SOL    HW1 9959   8.314   2.522   3.562 -0.8810 -3.0992  1.2528
 2697SOL    HW2 9960   8.247   2.527   3.427 -0.2299 -0.2500  0.9756
 2698SOL     OW 9961   6.411   2.640   2.801 -0.2674 -0.5180  0.4740
 2698SOL    HW1 9962   6.496   2.641   2.844 -0.9403 -1.1380  1.8917
 2698SOL    HW2 9963   6.349   2.662   2.870 -1.2125  0.7322 -0.7094
 2699SOL     OW 9964   7.517   6.542   6.696 -0.2458  0.3148  0.1257
 2699SOL    HW1 9965   7.532   6.575   6.785 -1.4805  0.3256  0.3480
 2699SOL    HW2 9966   7.576   6.467   6.688  0.0085  0.4259  0.8910
 2700SOL     OW 9967   3.306   0.260   1.442 -0.4215 -0.1604  0.3080
 2700SOL    HW1 9968   3.337   0.332   1.497  1.7939  0.0975 -1.1516
 2700SOL    HW2 9969   3.374   0.193   1.448 -0.7889 -0.6911 -1.0174
 2701SOL     OW 9970   3.733   5.666   0.471 -0.3225  0.2289 -0.1183
 2701SOL    HW1 9971   3.700   5.704   0.389 -0.9767  1.2494  0.6012
 2701SOL    HW2 9972   3.678   5.704   0.539 -0.2353 -1.1368  0.7516
 2702SOL     OW 9973   2.610   4.195   0.523 -0.3758 -0.4439  0.4184
 2702SOL    HW1 9974   2.552   4.236   0.587  1.0093  0.8750  0.8886
 2702SOL    HW2 9975   2.638   4.267   0.467  1.2629 -0.9189  0.5766
 2703SOL     OW 9976   1.650   0.160   4.914  0.4683 -0.3152  0.0666
 2703SOL    HW1 9977   1.680   0.247   4.889  0.9373  0.5824  3.3202
 2703SOL    HW2 9978   1.718   0.101   4.881  1.0369  0.6974 -0.6450
 2704SOL     OW 9979   5.729   5.444   1.422 -0.0589 -0.7733 -0.0914
 2704SOL    HW1 9980   5.807   5.456   1.476 -0.2723 -3.4789  0.9868
 2704SOL    HW2 9981   5.760   5.455   1.332  1.1403  0.0489  0.4060
 2705SOL     OW 9982   6.610   0.612   3.213 -0.0617  0.4451 -0.1146
 2705SOL    HW1 9983   6.535   0.560   3.184  0.9059 -0.8956 -0.3387
 2705SOL    HW2 9984   6.676   0.599   3.144  0.4606  1.4139  0.1831
 2706SOL     OW 9985   1.426   4.250   5.607  0.2384 -0.1726 -0.4256
 2706SOL    HW1 9986   1.516   4.223   5.625 -0.3741 -1.0054  1.5925
 2706SOL    HW2 9987   1.434   4.341   5.578  1.7734 -0.4537 -0.9814
 2707SOL     OW 9988   5.789   0.130   7.626  0.3338 -0.1576 -0.3275
 2707SOL    HW1 9989   5.759   0.045   7.593  0.6839 -0.3082 -0.2617
 2707SOL    HW2 9990   5.823   0.111   7.714  0.9531 -0.0540 -0.5418
 2708SOL     OW 9991   5.734   0.571   7.776  0.1918 -0.1297 -0.5069
 2708SOL    HW1 9992   5.808   0.614   7.818  0.1190  0.5511 -1.0621
 2708SOL    HW2 9993   5.659   0.627   7.796 -0.3096 -1.1238  0.5591
 2709SOL     OW 9994   7.095   8.756   3.277  0.1467 -0.1010  0.3441
 2709SOL    HW1 9995   7.103   8.838   3.227 -0.8264  0.1192  0.5354
 2709SOL    HW2 9996   7.003   8.751   3.301  0.3530 -0.8522  1.0317
 2710SOL     OW 9997   5.506   0.997   0.054  0.0260  0.8037  0.4574
 2710SOL    HW1 9998   5.503   1.084   0.013  0.2424  1.2737  1.4327
 2710SOL    HW2 9999   5.478   0.938  -0.016  1.6369  1.4433 -0.7808
 2711SOL     OW10000   4.702   1.283   7.999  0.1002  0.3760  0.1719
 2711SOL    HW110001   4.732   1.210   7.945 -0.4047  0.6233 -0.4546
 2711SOL    HW210002   4.722   1.257   8.088  1.1698  0.0627 -0.1500
 2712SOL     OW10003   7.645   8.746   6.806 -0.0609 -0.8459  0.4185
 2712SOL    HW110004   7.658   8.789   6.890 -1.8174 -0.2560  0.4263
 2712SOL    HW210005   7.595   8.808   6.754 -0.6693 -1.9574 -0.3794
 2713SOL     OW10006   2.262   3.833   2.838 -0.5657  0.5038  0.3425
 2713SOL    HW110007   2.290   3.894   2.905 -3.0333  1.5752  0.5233
 2713SOL    HW210008   2.212   3.886   2.776  2.1257 -0.2944 -2.8133
 2714SOL     OW10009   6.112   3.715   1.053 -0.4164 -0.2865  0.1906
 2714SOL    HW110010   6.064   3.725   1.135 -2.0534 -0.6259 -0.6617
 2714SOL    HW210011   6.123   3.804   1.020  3.0361  0.1749  2.1886
 2715SOL     OW10012   0.378   2.676   0.956 -0.9528 -0.2542  0.4665
 2715SOL    HW110013   0.412   2.647   1.041  2.0538 -0.0454 -0.5319
 2715SOL    HW210014   0.398   2.603   0.897  2.1950  1.6257 -1.0795
 2716SOL     OW10015   6.346   8.701   7.849 -0.0408 -0.3516 -0.2892
 2716SOL    HW110016   6.259   8.682   7.885 -0.6785  0.4066 -1.3526
 2716SOL    HW210017   6.373   8.620   7.807 -0.2154 -0.6038  0.0779
 2717SOL     OW10018   3.258   8.693   8.152 -0.3366  0.3438 -0.5059
 2717SOL    HW110019   3.187   8.740   8.195  0.8895  1.6430  0.2032
 2717SOL    HW210020   3.315   8.762   8.118  1.6988 -0.5653  0.8387
 2718SOL     OW10021   0.002   3.206   2.715 -0.1685 -0.1664  0.2246
 2718SOL    HW110022   0.009   3.229   2.808  1.1546 -1.6235  0.5323
 2718SOL    HW210023  -0.026   3.287   2.672 -1.0594  0.4743  1.9043
 2719SOL     OW10024   5.736   8.959   8.844  0.0871  0.4293  0.0433
 2719SOL    HW110025   5.665   8.908   8.884  0.2637  0.7370  0.7566
 2719SOL    HW210026   5.815   8.930   8.890  0.4486  0.0034 -0.8271
 2720SOL     OW10027   7.138   1.508   0.095  0.0559  0.4365  0.4151
 2720SOL    HW110028   7.133   1.517   0.190  0.4262 -2.0026  0.7355
 2720SOL    HW210029   7.049   1.482   0.069  0.1008  0.5174  0.1796
 2721SOL     OW10030   2.058   6.496   3.097  0.2674 -0.3185  0.0934
 2721SOL    HW110031   2.064   6.531   3.008  1.8802  1.0084  0.6900
 2721SOL    HW210032   2.148   6.478   3.122  0.2566  2.5515  2.6702
 2722SOL     OW10033   8.493   6.284   8.668  0.1317  0.4659  0.2102
 2722SOL    HW110034   8.482   6.195   8.634  1.0447  0.4663 -0.1229
 2722SOL    HW210035   8.588   6.299   8.666  0.0245  1.2768  0.7024
 2723SOL     OW10036   8.942   3.390   2.513  0.2769  0.2165 -0.2735
 2723SOL    HW110037   8.995   3.469   2.503 -0.1191  0.9704  2.6698
 2723SOL    HW210038   8.855   3.423   2.537  0.1439 -1.0536  1.1343
 2724SOL     OW10039   8.333   7.494   0.945 -0.3217 -0.2727 -0.0791
 2724SOL    HW110040   8.387   7.545   0.884 -1.5463 -0.5472 -1.4458
 2724SOL    HW210041   8.380   7.411   0.955 -0.8167 -0.8264 -1.8936
 2725SOL     OW10042   2.491   5.739   2.788  0.5410  0.2786  0.8541
 2725SOL    HW110043   2.558   5.763   2.853  0.3146 -0.1867  1.2721
 2725SOL    HW210044   2.538   5.738   2.705  0.8928  0.6481  1.0403
 2726SOL     OW10045   1.432   3.796   3.668 -0.6499 -0.0143  0.4715
 2726SOL    HW110046   1.478   3.731   3.722 -0.2273 -1.0321 -1.0460
 2726SOL    HW210047   1.342   3.765   3.665 -0.3114 -0.9726 -0.8090
 2727SOL     OW10048   0.973   3.846   7.010  0.5208  0.3312  0.0359
 2727SOL    HW110049   0.948   3.872   7.099  1.0631  1.5704 -0.1541
 2727SOL    HW210050   1.019   3.922   6.975 -0.0114 -0.0004 -1.4455
 2728SOL     OW10051   4.543   7.618   2.874 -0.1324 -0.1083 -0.0541
 2728SOL    HW110052   4.465   7.563   2.866 -0.8144  0.8441 -0.0367
 2728SOL    HW210053   4.615   7.556   2.887 -1.0131 -0.9590  0.8978
 2729SOL     OW10054   2.998   2.031   5.260  0.4151  0.0521  0.8485
 2729SOL    HW110055   3.010   2.125   5.248 -0.9909  0.0347 -1.1387
 2729SOL    HW210056   3.086   1.994   5.253  0.7551  1.0490 -0.4589
 2730SOL     OW10057   2.463   5.678   1.049  0.1766  0.4932  0.0611
 2730SOL    HW110058   2.413   5.650   1.125 -0.7468 -1.3409 -1.1652
 2730SOL    HW210059   2.505   5.599   1.017  2.6914  1.6969  0.1417
 2731SOL     OW10060   7.176   7.886   1.946  0.0926 -0.0846 -0.2263
 2731SOL    HW110061   7.082   7.897   1.959  0.0879 -0.7439  0.4234
 2731SOL    HW210062   7.203   7.964   1.898 -0.9007 -0.2150 -1.0421
 2732SOL     OW10063   7.166   6.606   4.224  0.0326  0.2248  0.1605
 2732SOL    HW110064   7.138   6.631   4.136 -0.1872 -2.0936 -0.5039
 2732SOL    HW210065   7.262   6.606   4.219  0.0225  0.2008 -0.0430
 2733SOL     OW10066   8.921   3.388   4.205 -0.0572  0.4856 -0.2864
 2733SOL    HW110067   8.911   3.295   4.224 -0.0636  0.6126  0.3489
 2733SOL    HW210068   8.907   3.432   4.289  0.7403  1.0053 -0.4073
 2734SOL     OW10069   2.479   6.073   4.614 -0.1968  0.1900  0.1966
 2734SOL    HW110070   2.475   6.168   4.609 -1.2090  0.1683  0.3570
 2734SOL    HW210071   2.553   6.049   4.558  0.8117  1.1290  1.1079
 2735SOL     OW10072   5.557   0.849   6.866  0.2405 -0.1979 -0.7604
 2735SOL    HW110073   5.507   0.772   6.892  3.4691 -1.8687  1.1851
 2735SOL    HW210074   5.571   0.838   6.771  0.7983 -2.1848 -0.4920
 2736SOL     OW10075   7.520   1.225   1.940  0.3574  0.0756  0.2095
 2736SOL    HW110076   7.462   1.149   1.950  0.1884 -0.0405 -1.4379
 2736SOL    HW210077   7.594   1.205   1.996 -1.1869  0.2556  2.4426
 2737SOL     OW10078   7.534   4.582   6.467 -0.7072  0.5878  0.1425
 2737SOL    HW110079   7.603   4.595   6.402 -0.5661  0.5007  0.2750
 2737SOL    HW210080   7.455   4.617   6.425 -1.0789 -1.4434 -0.9495
 2738SOL     OW10081   1.491   1.094   4.664 -0.3375  0.0696  0.4166
 2738SOL    HW110082   1.407   1.141   4.662 -0.6725 -0.4881  0.9814
 2738SOL    HW210083   1.548   1.149   4.718 -0.4337  0.2936  0.2940
 2739SOL     OW10084   6.958   7.117   4.073  0.4445  0.0412 -0.4224
 2739SOL    HW110085   7.037   7.146   4.027  0.5429 -1.7608 -1.4853
 2739SOL    HW210086   6.888   7.173   4.040  1.0867  0.9669 -0.2385
 2740SOL     OW10087   5.276   0.065   6.444 -0.0609 -0.1346 -0.5453
 2740SOL    HW110088   5.211   0.059   6.374 -1.0935  0.6542  0.3079
 2740SOL    HW210089   5.360   0.049   6.401 -0.8064 -1.1366 -1.6850
 2741SOL     OW10090   7.085   3.104   3.732 -0.1124 -0.2426  0.0768
 2741SOL    HW110091   7.085   3.008   3.726  2.3081 -0.6976  3.7791
 2741SOL    HW210092   7.012   3.125   3.789 -0.1030  0.0197 -0.0051
 2742SOL     OW10093   0.189   6.401   8.430 -0.2869 -0.1866 -0.5508
 2742SOL    HW110094   0.225   6.314   8.445 -1.9032 -0.8794 -0.5976
 2742SOL    HW210095   0.223   6.454   8.502 -0.7673 -1.3030  0.5066
 2743SOL     OW10096   7.700   8.658   4.496  0.4967 -0.3760  0.0769
 2743SOL    HW110097   7.762   8.721   4.532 -0.0344  0.1724  0.0447
 2743SOL    HW210098   7.745   8.622   4.419  0.6006  0.3466 -0.2112
 2744SOL     OW10099   7.639   7.550   0.936 -0.3385 -0.4243 -0.1618
 2744SOL    HW110100   7.669   7.467   0.972 -1.1941 -0.8985 -0.5206
 2744SOL    HW210101   7.686   7.616   0.986 -0.0260 -1.1158  0.4736
 2745SOL     OW10102   3.329   7.241   6.262  0.2882 -0.2088  0.2176
 2745SOL    HW110103   3.338   7.182   6.188 -0.4200  0.0267 -0.0618
 2745SOL    HW210104   3.405   7.223   6.317  0.1277 -1.3299  0.0985
 2746SOL     OW10105   0.159   0.572   0.803 -0.3533 -0.0937  0.7599
 2746SOL    HW110106   0.104   0.649   0.785 -2.6459 -1.7812  0.1085
 2746SOL    HW210107   0.157   0.522   0.721  3.5596  0.4666  0.1356
 2747SOL     OW10108   4.822   0.493   8.485  0.1269 -0.7744 -0.5376
 2747SOL    HW110109   4.752   0.554   8.462  0.8712 -0.0057 -0.8083
 2747SOL    HW210110   4.793   0.454   8.568  0.0131  0.5533  0.0764
 2748SOL     OW10111   8.286   3.946   2.663 -0.1860 -0.5317 -0.0344
 2748SOL    HW110112   8.365   3.919   2.710  0.0126 -0.4574 -0.3284
 2748SOL    HW210113   8.230   3.984   2.731  0.2963  0.0090  0.0671
 2749SOL     OW10114   2.095   3.781   1.970 -0.0601 -0.3202  0.2653
 2749SOL    HW110115   2.029   3.750   2.031  0.4224 -2.6969 -0.2998
 2749SOL    HW210116   2.067   3.869   1.946 -1.9209 -0.5200  1.5187
 2750SOL     OW10117   3.167   4.803   2.128  0.3093  0.6396 -0.4165
 2750SOL    HW110118   3.165   4.758   2.044 -1.3206  1.8618 -1.0867
 2750SOL    HW210119   3.239   4.866   2.120  0.7339  0.1502 -0.5347
 2751SOL     OW10120   6.147   7.200   0.613 -0.7601 -0.1105  0.2957
 2751SOL    HW110121   6.077   7.236   0.558 -1.2731  2.1360  2.2164
 2751SOL    HW210122   6.206   7.274   0.625  1.1447 -1.5332  0.0314
 2752SOL     OW10123   1.377   0.123   0.433  0.3877  0.2832 -0.2482
 2752SOL    HW110124   1.316   0.070   0.483  0.2479 -0.4516 -1.1670
 2752SOL    HW210125   1.354   0.213   0.454 -0.1471  0.0003  0.4146
 2753SOL     OW10126   7.979   4.356   7.112 -0.0106  0.1807 -0.1213
 2753SOL    HW110127   7.923   4.380   7.037  0.1931 -1.3082 -0.7875
 2753SOL    HW210128   8.023   4.437   7.136 -1.9973  1.2604  0.0322
 2754SOL     OW10129   0.783   4.117   0.318  0.0815  0.2482  0.2829
 2754SOL    HW110130   0.698   4.148   0.350  0.2854  1.1973 -0.0804
 2754SOL    HW210131   0.798   4.036   0.366 -0.5062  0.6519  1.1729
 2755SOL     OW10132   6.626   1.935   4.321  0.0277  0.2187 -0.0722
 2755SOL    HW110133   6.645   2.012   4.374 -0.7306  0.7088 -0.4851
 2755SOL    HW210134   6.569   1.968   4.251 -0.4382 -0.7484 -0.1619
 2756SOL     OW10135   2.479   7.374   3.104 -0.7149  0.2003 -0.4488
 2756SOL    HW110136   2.490   7.279   3.101 -0.4588  0.2341 -0.5828
 2756SOL    HW210137   2.555   7.409   3.058 -1.2782  0.4432 -1.2168
 2757SOL     OW10138   5.253   8.820   4.193 -0.1371 -0.0712 -0.0382
 2757SOL    HW110139   5.317   8.752   4.208  0.2430  0.5356  1.2413
 2757SOL    HW210140   5.268   8.849   4.104  0.9967 -0.3203  0.0668
 2758SOL     OW10141   6.222   0.574   0.726  0.0798 -0.2670  0.4775
 2758SOL    HW110142   6.247   0.666   0.716  0.9757 -0.5563 -0.1192
 2758SOL    HW210143   6.193   0.547   0.639  0.8766 -0.8277  0.3677
 2759SOL     OW10144   5.565   3.324   8.659 -0.4020 -0.0809  0.3548
 2759SOL    HW110145   5.560   3.328   8.564 -0.1940 -1.3862  0.2707
 2759SOL    HW210146   5.633   3.387   8.682  0.0676 -0.2901 -0.4257
 2760SOL     OW10147   4.074   5.379   7.678 -0.1927 -0.3697  0.2650
 2760SOL    HW110148   4.093   5.469   7.652  0.0745 -1.1483 -2.5974
 2760SOL    HW210149   3.998   5.386   7.735 -0.6187  1.6243 -0.4675
 2761SOL     OW10150   6.703   1.616   8.490  0.0715  0.3104 -0.1002
 2761SOL    HW110151   6.794   1.612   8.461 -0.3199  0.0594 -1.3451
 2761SOL    HW210152   6.680   1.709   8.482 -0.4805  0.0489 -2.1236
 2762SOL     OW10153   4.747   2.272   2.519 -0.2266 -0.3270 -0.7539
 2762SOL    HW110154   4.808   2.236   2.454  0.8223  0.5555 -0.2871
 2762SOL    HW210155   4.781   2.360   2.537  0.2824 -1.0134  1.9529
 2763SOL     OW10156   4.233   8.154   4.105 -0.2812 -0.0077  0.3613
 2763SOL    HW110157   4.199   8.069   4.132  1.7952 -0.9231  0.2587
 2763SOL    HW210158   4.234   8.206   4.185 -0.1998 -0.5621  0.7280
 2764SOL     OW10159   4.622   0.586   2.192  0.0166  0.1457 -0.9763
 2764SOL    HW110160   4.556   0.613   2.256 -0.4562  0.2948 -1.5126
 2764SOL    HW210161   4.571   0.565   2.113  0.5968  0.0927 -1.3408
 2765SOL     OW10162   7.529   5.457   1.886  0.2099 -0.1271 -0.1764
 2765SOL    HW110163   7.490   5.544   1.874 -1.3693 -0.4666  1.8413
 2765SOL    HW210164   7.471   5.399   1.836  2.1912  0.0535 -2.8996
 2766SOL     OW10165   8.349   5.108   5.452 -0.0539 -0.3503  0.3177
 2766SOL    HW110166   8.395   5.043   5.506 -2.0108 -2.5844 -0.5514
 2766SOL    HW210167   8.332   5.062   5.370 -1.1273  1.4584 -0.5123
 2767SOL     OW10168   8.257   0.591   2.867  0.1869  0.2306 -0.7495
 2767SOL    HW110169   8.234   0.510   2.912 -1.8694  1.1810  0.0531
 2767SOL    HW210170   8.338   0.620   2.910 -0.2007 -0.3277  0.3967
 2768SOL     OW10171   2.240   1.852   4.342  0.2259 -0.1670  0.9046
 2768SOL    HW110172   2.288   1.859   4.260  0.8138 -1.2857  1.1304
 2768SOL    HW210173   2.229   1.943   4.372  1.1579  0.1726  0.2479
 2769SOL     OW10174   7.328   2.931   1.215  0.3994  0.5082 -0.2309
 2769SOL    HW110175   7.319   3.025   1.196 -1.3522  1.3896  3.8701
 2769SOL    HW210176   7.238   2.899   1.221  0.9227 -0.9021  0.5581
 2770SOL     OW10177   5.435   3.227   8.256 -0.2720  0.1714 -0.6972
 2770SOL    HW110178   5.446   3.136   8.231  1.5874  0.3146 -0.5307
 2770SOL    HW210179   5.396   3.269   8.179 -1.3839 -0.7755 -0.6833
 2771SOL     OW10180   4.649   3.205   4.077 -0.3264 -0.4168 -0.2819
 2771SOL    HW110181   4.590   3.174   4.008 -1.4422  0.6360  0.1745
 2771SOL    HW210182   4.632   3.146   4.151  0.2301 -0.9914 -0.6020
 2772SOL     OW10183   4.621   6.130   4.523  0.2543 -0.2158 -0.4604
 2772SOL    HW110184   4.627   6.222   4.495 -1.1912  0.4324  1.1815
 2772SOL    HW210185   4.695   6.119   4.583 -1.0948  0.7468  1.4765
 2773SOL     OW10186   5.780   2.398   5.338  0.0944 -0.9052 -0.5701
 2773SOL    HW110187   5.811   2.326   5.392  2.8798  0.4371 -0.2033
 2773SOL    HW210188   5.754   2.466   5.401 -1.5133 -1.1507 -0.9233
 2774SOL     OW10189   2.992   1.625   6.837  0.7899 -0.0975 -0.0661
 2774SOL    HW110190   3.040   1.630   6.755  1.3866 -0.2091  0.2679
 2774SOL    HW210191   3.021   1.543   6.877  1.3694  0.5031  0.7780
 2775SOL     OW10192   8.742   1.184   0.265  0.2490  0.2201 -0.4727
 2775SOL    HW110193   8.804   1.126   0.220  0.3301  0.1188 -0.2331
 2775SOL    HW210194   8.669   1.126   0.290  1.0302 -0.1147  1.1453
 2776SOL     OW10195   8.176   5.567   3.232 -0.0667 -0.2061  0.5217
 2776SOL    HW110196   8.103   5.628   3.242  1.1062  1.4625 -0.6474
 2776SOL    HW210197   8.197   5.541   3.321 -0.1003  1.7302  1.1424
 2777SOL     OW10198   1.745   8.416   2.778 -0.0733 -0.0733  0.3172
 2777SOL    HW110199   1.747   8.506   2.745  1.4901  0.4430  1.6880
 2777SOL    HW210200   1.687   8.420   2.854 -0.9416 -0.5031 -0.3103
 2778SOL     OW10201   7.873   8.613   6.727  0.1814  0.0912 -0.3751
 2778SOL    HW110202   7.897   8.649   6.641  0.6488  0.4393 -0.1042
 2778SOL    HW210203   7.786   8.649   6.745  0.3662  0.5633 -0.4040
 2779SOL     OW10204   4.588   1.948   4.946  0.5203  0.5627 -0.1378
 2779SOL    HW110205   4.507   1.960   4.897  0.2092 -0.7666  0.0054
 2779SOL    HW210206   4.571   1.987   5.032 -0.1640 -0.1490  0.0603
 2780SOL     OW10207   4.469   1.132   6.162 -0.7286  0.1524  1.0214
 2780SOL    HW110208   4.508   1.087   6.087 -1.4560  0.1551  0.6343
 2780SOL    HW210209   4.544   1.171   6.208 -0.0610 -1.5798  1.4677
 2781SOL     OW10210   5.648   6.987   5.170  0.3035 -0.0954  0.0868
 2781SOL    HW110211   5.593   7.021   5.241  1.4367  0.0767  0.9114
 2781SOL    HW210212   5.686   6.906   5.205  0.9511  0.0442 -0.2757
 2782SOL     OW10213   1.638   1.155   0.963 -0.4255  0.4005  0.0406
 2782SOL    HW110214   1.641   1.059   0.963 -0.5481  0.3866 -1.0101
 2782SOL    HW210215   1.624   1.178   0.872  2.2792  1.5114 -0.1835
 2783SOL     OW10216   7.935   8.987   0.574  0.2881 -0.1057 -0.0720
 2783SOL    HW110217   7.946   8.983   0.669 -1.7946 -0.8969  0.1914
 2783SOL    HW210218   7.903   9.076   0.557 -1.5750 -0.6628  0.3003
 2784SOL     OW10219   8.216   6.955   1.461  0.5680  0.2211  0.3755
 2784SOL    HW110220   8.290   6.901   1.489 -0.1810 -0.5587  0.9423
 2784SOL    HW210221   8.139   6.903   1.485 -0.1623  1.0854 -0.0412
 2785SOL     OW10222   1.345   5.134   0.089  0.0040 -0.5465 -0.0288
 2785SOL    HW110223   1.356   5.054   0.038  0.6066 -0.9576  0.7300
 2785SOL    HW210224   1.373   5.111   0.177 -0.3943  0.3363  0.3438
 2786SOL     OW10225   5.503   8.896   6.517  0.2128 -0.2528 -0.6364
 2786SOL    HW110226   5.433   8.831   6.508  1.0059 -1.0885 -0.8511
 2786SOL    HW210227   5.506   8.916   6.611 -1.2346  0.8487 -0.7807
 2787SOL     OW10228   2.576   0.882   3.633 -0.0407 -0.5631  0.2914
 2787SOL    HW110229   2.624   0.941   3.574  1.6847 -1.7008  0.4895
 2787SOL    HW210230   2.552   0.808   3.578 -0.6297 -0.5044  0.4630
 2788SOL     OW10231   0.477   4.969   5.608 -0.0340 -0.0320 -0.0720
 2788SOL    HW110232   0.437   5.043   5.653  0.4383 -0.7838  1.6420
 2788SOL    HW210233   0.504   5.004   5.523 -2.3924  1.0281 -0.4801
 2789SOL     OW10234   4.289   0.593   5.453 -0.1846  0.2085 -0.3647
 2789SOL    HW110235   4.287   0.610   5.359 -1.4558 -0.4332 -0.4725
 2789SOL    HW210236   4.254   0.673   5.493  1.7668  1.1004 -0.2926
 2790SOL     OW10237   1.878   5.102   4.630 -0.0850  0.0795 -0.0082
 2790SOL    HW110238   1.846   5.033   4.688 -2.1848  0.9241 -0.0622
 2790SOL    HW210239   1.922   5.163   4.689 -0.0422 -0.2784  0.3400
 2791SOL     OW10240   7.792   2.205   6.778  0.4660  0.3152 -0.5191
 2791SOL    HW110241   7.869   2.161   6.815  2.1898  2.2649 -1.5700
 2791SOL    HW210242   7.756   2.256   6.850  0.6282 -0.0152 -0.2013
 2792SOL     OW10243   3.271   5.797   3.501  0.0828  0.0843  0.7683
 2792SOL    HW110244   3.348   5.754   3.464  2.0734  1.8310  2.5788
 2792SOL    HW210245   3.197   5.764   3.450  1.8403 -2.7512 -0.1423
 2793SOL     OW10246   7.803   5.791   6.996 -0.7538  0.0153 -0.0335
 2793SOL    HW110247   7.742   5.732   7.040  0.1371  0.4915  1.9505
 2793SOL    HW210248   7.778   5.878   7.025 -2.1203  0.7468 -3.0164
 2794SOL     OW10249   7.051   1.522   4.789 -0.0318  0.3777 -0.2950
 2794SOL    HW110250   7.083   1.525   4.879 -2.1380  0.1807  0.5226
 2794SOL    HW210251   7.125   1.550   4.736  1.3855  0.1217  1.4594
 2795SOL     OW10252   7.071   8.321   2.655 -0.2524  0.2564  0.0639
 2795SOL    HW110253   7.056   8.344   2.564  0.6098 -0.8813 -0.3769
 2795SOL    HW210254   7.116   8.397   2.692 -1.9636  1.3693 -0.0240
 2796SOL     OW10255   6.503   7.865   5.265  0.3183 -0.1880  0.2498
 2796SOL    HW110256   6.484   7.808   5.190 -0.6453  0.9121 -0.3851
 2796SOL    HW210257   6.534   7.806   5.333  0.8302 -1.2689 -0.8851
 2797SOL     OW10258   7.389   5.418   5.038  0.1039  0.0653  0.0699
 2797SOL    HW110259   7.481   5.442   5.037  0.1301  0.0081  0.7236
 2797SOL    HW210260   7.342   5.501   5.035  0.1834  0.1349  0.7334
 2798SOL     OW10261   0.834   1.344   2.818 -0.0793  0.0522 -0.5908
 2798SOL    HW110262   0.912   1.290   2.829 -0.0249  0.1916 -0.2826
 2798SOL    HW210263   0.763   1.282   2.805 -0.2402 -0.1501  1.0889
 2799SOL     OW10264   4.497   1.749   3.741  0.0611 -0.5292  0.3805
 2799SOL    HW110265   4.466   1.674   3.791  0.0755  0.5195  2.0164
 2799SOL    HW210266   4.459   1.825   3.784 -0.8710  0.3917 -1.9165
 2800SOL     OW10267   7.647   0.307   2.835 -0.2094 -0.5576  0.6283
 2800SOL    HW110268   7.614   0.217   2.829 -1.4415 -0.0498 -2.6633
 2800SOL    HW210269   7.581   0.359   2.788  1.5327  1.7407  0.5586
 2801SOL     OW10270   6.859   6.852   2.047  0.5792  0.0648  0.0239
 2801SOL    HW110271   6.851   6.874   1.954  1.1350  1.5781  0.3034
 2801SOL    HW210272   6.769   6.846   2.078  0.3930 -0.2661 -0.5646
 2802SOL     OW10273   3.985   5.772   3.933  0.1582  0.0009  0.2079
 2802SOL    HW110274   4.033   5.797   3.854  0.8872 -1.6588  0.0685
 2802SOL    HW210275   3.895   5.797   3.916  0.3413 -0.1406 -1.0780
 2803SOL     OW10276   7.299   4.591   7.528  0.6831  0.2564 -0.1949
 2803SOL    HW110277   7.220   4.588   7.582  1.3545  1.0735  0.8838
 2803SOL    HW210278   7.279   4.535   7.453 -2.3466  3.2311 -1.8980
 2804SOL     OW10279   4.796   3.320   5.918  0.1223 -0.2754  0.0158
 2804SOL    HW110280   4.788   3.392   5.854  1.0889  2.3192  2.5985
 2804SOL    HW210281   4.710   3.317   5.960  0.4463  0.2652  0.7399
 2805SOL     OW10282   8.727   4.045   3.249  0.4828 -0.8078 -0.2673
 2805SOL    HW110283   8.703   3.968   3.300  0.6248 -1.9245 -1.8332
 2805SOL    HW210284   8.692   4.029   3.161  0.5988  0.8703 -0.6677
 2806SOL     OW10285   1.822   5.104   2.099  0.1060 -0.2907  0.4719
 2806SOL    HW110286   1.904   5.108   2.148 -0.3445 -0.9997  1.2985
 2806SOL    HW210287   1.755   5.084   2.165 -0.8448  0.9683 -0.0678
 2807SOL     OW10288   1.169   4.754   3.590  0.2699 -0.0509  0.0616
 2807SOL    HW110289   1.084   4.714   3.573 -0.1300  1.2759 -1.2955
 2807SOL    HW210290   1.210   4.697   3.655 -1.3731 -1.0863  0.2473
 2808SOL     OW10291   2.669   6.212   2.100 -0.3061  0.2357  0.7632
 2808SOL    HW110292   2.680   6.202   2.195 -2.0817 -1.8997  0.8167
 2808SOL    HW210293   2.648   6.304   2.088 -0.3681  0.4802  2.4773
 2809SOL     OW10294   1.376   5.170   8.774  0.2198  0.2818  0.0154
 2809SOL    HW110295   1.403   5.097   8.829  0.5591 -0.7663 -1.4605
 2809SOL    HW210296   1.362   5.243   8.834  2.0618 -0.3680  1.3083
 2810SOL     OW10297   2.918   0.096   4.475 -0.5222 -0.5426 -0.2620
 2810SOL    HW110298   2.997   0.134   4.513  0.9446 -1.7347 -1.9535
 2810SOL    HW210299   2.904   0.016   4.525 -2.2379  0.9044  1.7361
 2811SOL     OW10300   2.938   8.056   6.143  0.1865 -0.4679 -0.1700
 2811SOL    HW110301   2.888   8.104   6.077 -0.9004  0.8771  1.5298
 2811SOL    HW210302   3.022   8.037   6.101 -1.2157 -1.6816 -2.6824
 2812SOL     OW10303   0.244   5.641   1.020  0.3977  0.3373 -0.2142
 2812SOL    HW110304   0.259   5.627   0.927 -1.2424 -0.5692 -0.3675
 2812SOL    HW210305   0.231   5.554   1.057  2.3691  0.5532  1.1494
 2813SOL     OW10306   8.539   7.085   7.775 -0.6131  0.3932  0.0878
 2813SOL    HW110307   8.612   7.145   7.785 -1.1974  1.1905 -0.3323
 2813SOL    HW210308   8.579   6.998   7.773  0.2926  0.8055  0.0904
 2814SOL     OW10309   0.187   3.902   7.357  0.1094 -0.4916 -0.3101
 2814SOL    HW110310   0.278   3.879   7.338 -0.0572 -0.4912 -1.1166
 2814SOL    HW210311   0.167   3.974   7.298  0.5069  1.5695  1.9301
 2815SOL     OW10312   1.365   7.925   8.137 -0.2760 -0.6255  0.2351
 2815SOL    HW110313   1.437   7.900   8.079 -0.0623  1.8353 -0.6313
 2815SOL    HW210314   1.286   7.905   8.087 -0.0988  0.9859 -0.7402
 2816SOL     OW10315   4.259   7.746   0.007  0.1744  0.0749  0.2521
 2816SOL    HW110316   4.234   7.788  -0.075 -1.0577  0.0745  0.6069
 2816SOL    HW210317   4.272   7.654  -0.017  0.0808  0.1232  0.0125
 2817SOL     OW10318   0.103   5.252   3.204  0.6913 -0.0967  0.5791
 2817SOL    HW110319   0.155   5.240   3.125  1.3079 -0.4383  1.0277
 2817SOL    HW210320   0.050   5.173   3.211  0.4690  0.0330  0.3928
 2818SOL     OW10321   7.399   5.151   8.158 -0.2710  0.2231  0.6034
 2818SOL    HW110322   7.372   5.210   8.087 -0.3364  1.2024  1.4301
 2818SOL    HW210323   7.356   5.068   8.138 -1.6317  0.9600  0.3827
 2819SOL     OW10324   8.860   0.083   0.151  0.0360  0.1918  0.4425
 2819SOL    HW110325   8.827   0.173   0.145 -0.5159 -0.0640 -0.8951
 2819SOL    HW210326   8.864   0.065   0.245  1.2074  1.9694  0.7782
 2820SOL     OW10327   2.036   0.677   7.052  0.0920 -0.0492  0.8700
 2820SOL    HW110328   2.112   0.627   7.023 -0.0134  0.1447  0.2390
 2820SOL    HW210329   2.000   0.715   6.971  0.0241  0.8348  1.3052
 2821SOL     OW10330   6.333   5.340   5.360 -0.0098 -0.2396 -0.4642
 2821SOL    HW110331   6.320   5.319   5.453 -1.2829  1.4142 -0.2296
 2821SOL    HW210332   6.406   5.285   5.334  0.3384 -0.8065  1.5067
 2822SOL     OW10333   7.715   2.488   4.033 -0.0102 -0.1840 -0.1686
 2822SOL    HW110334   7.716   2.496   3.938  0.9294  1.1950 -0.0749
 2822SOL    HW210335   7.622   2.495   4.057 -0.1207  1.1631 -0.8843
 2823SOL     OW10336   6.839   1.682   8.997 -0.2743 -0.3545  0.6224
 2823SOL    HW110337   6.816   1.590   8.991  0.4594 -0.4817 -0.5571
 2823SOL    HW210338   6.757   1.729   8.979 -0.4237 -0.7763  0.2012
 2824SOL     OW10339   5.218   5.615   4.266  0.1473 -0.2207  0.5458
 2824SOL    HW110340   5.276   5.676   4.312  0.1080 -0.3850  0.8096
 2824SOL    HW210341   5.195   5.662   4.185  0.0243  0.1640  0.7993
 2825SOL     OW10342   8.612   4.663   0.765 -0.5810 -0.3331  0.2748
 2825SOL    HW110343   8.636   4.677   0.857 -1.0340  0.1434  0.3285
 2825SOL    HW210344   8.539   4.601   0.769 -0.5188 -0.4076  0.2311
 2826SOL     OW10345   7.616   2.338   4.587  0.2899 -0.6072 -0.0091
 2826SOL    HW110346   7.669   2.412   4.557  0.6182 -0.5603  0.6923
 2826SOL    HW210347   7.541   2.337   4.526 -0.2625  0.9383  0.5858
 2827SOL     OW10348   6.846   3.385   0.424  0.0708 -0.1093 -0.4633
 2827SOL    HW110349   6.786   3.380   0.499  1.1028  0.9164  0.4815
 2827SOL    HW210350   6.794   3.423   0.354 -1.2551 -2.1531 -0.6845
 2828SOL     OW10351   0.441   3.277   5.451  0.4586 -0.1213  0.5557
 2828SOL    HW110352   0.371   3.327   5.493  0.1352 -0.9456  1.0235
 2828SOL    HW210353   0.505   3.343   5.424 -1.7327  0.9849 -2.4210
 2829SOL     OW10354   7.188   8.740   2.049 -0.2475 -0.9241 -0.0477
 2829SOL    HW110355   7.266   8.793   2.065 -0.5880 -0.0414 -1.2045
 2829SOL    HW210356   7.181   8.736   1.953 -2.5402  0.4091 -0.0064
 2830SOL     OW10357   3.935   2.475   6.252 -0.0676  0.1611 -0.7829
 2830SOL    HW110358   3.991   2.401   6.273 -1.0454 -1.1369 -2.4461
 2830SOL    HW210359   3.994   2.550   6.249  0.9868 -0.5638  0.7050
 2831SOL     OW10360   1.743   2.766   3.572  0.1869 -0.2570  0.1675
 2831SOL    HW110361   1.794   2.779   3.652  0.5536  1.4559 -0.3136
 2831SOL    HW210362   1.689   2.689   3.591  0.2591  0.1090  2.0582
 2832SOL     OW10363   8.233   3.877   3.773  0.8415 -0.2241 -0.3882
 2832SOL    HW110364   8.228   3.972   3.772 -2.9877 -0.2757 -1.0090
 2832SOL    HW210365   8.268   3.855   3.860  0.8309  1.7394  0.1457
 2833SOL     OW10366   6.290   3.598   0.125 -0.1335 -0.1931 -0.0371
 2833SOL    HW110367   6.216   3.638   0.171  1.3418  1.2906  1.1480
 2833SOL    HW210368   6.259   3.589   0.035 -1.6398  0.6901  0.3514
 2834SOL     OW10369   6.123   8.953   4.857  0.0439  0.2726  0.1442
 2834SOL    HW110370   6.061   8.932   4.926 -0.3437  0.2965 -0.1945
 2834SOL    HW210371   6.087   9.031   4.815  0.3366  0.3236 -0.0144
 2835SOL     OW10372   5.225   4.316   2.208  0.6583  0.1258 -0.1135
 2835SOL    HW110373   5.172   4.394   2.226  0.7043  0.4507 -1.2996
 2835SOL    HW210374   5.215   4.261   2.286 -1.3493  0.2204 -0.2639
 2836SOL     OW10375   0.703   0.926   7.683  0.1167 -0.1820  0.2383
 2836SOL    HW110376   0.722   1.006   7.732  1.9902 -0.3692 -0.0885
 2836SOL    HW210377   0.747   0.939   7.599 -1.2009 -0.7696 -0.5740
 2837SOL     OW10378   4.307   8.313   1.151  0.1824  0.5071  0.7146
 2837SOL    HW110379   4.250   8.389   1.160 -1.1937 -0.2523 -0.9026
 2837SOL    HW210380   4.324   8.306   1.057 -0.1297 -1.4237  0.7484
 2838SOL     OW10381   3.355   2.781   4.227  1.1738 -0.0617  0.3902
 2838SOL    HW110382   3.330   2.691   4.209 -0.7745 -0.0458  2.5358
 2838SOL    HW210383   3.294   2.834   4.176 -1.2125 -0.0439  3.0080
 2839SOL     OW10384   8.230   4.144   3.750 -0.2104  0.2378  0.1256
 2839SOL    HW110385   8.135   4.148   3.738 -0.0773  0.4668 -0.9432
 2839SOL    HW210386   8.266   4.195   3.677  0.6787  2.1867  1.8073
 2840SOL     OW10387   6.561   0.082   2.078 -0.2988 -0.3822 -0.1718
 2840SOL    HW110388   6.564   0.111   2.169 -2.2110  1.7136 -0.6946
 2840SOL    HW210389   6.651   0.056   2.059  0.7873  1.7735  1.5067
 2841SOL     OW10390   1.948   1.239   5.299 -0.5671  0.3852 -0.1895
 2841SOL    HW110391   1.933   1.250   5.205 -0.5895  0.4824 -0.1743
 2841SOL    HW210392   1.887   1.169   5.324 -0.9098  0.6908 -0.1548
 2842SOL     OW10393   6.986   7.183   6.863  0.1635 -0.2204 -0.3467
 2842SOL    HW110394   7.054   7.191   6.930  1.7116 -1.5669 -1.6599
 2842SOL    HW210395   6.947   7.271   6.858  1.2200  0.3695  1.0506
 2843SOL     OW10396   5.452   2.552   4.979 -0.0204  0.3454 -0.4957
 2843SOL    HW110397   5.457   2.554   5.075  0.5280 -1.7956 -0.4244
 2843SOL    HW210398   5.520   2.490   4.953  2.0470  3.2100 -2.5338
 2844SOL     OW10399   1.928   1.537   8.117 -0.5354 -0.0304 -0.0751
 2844SOL    HW110400   1.847   1.486   8.120 -1.1973  0.8786 -1.3567
 2844SOL    HW210401   1.907   1.619   8.162 -0.8825  0.8730 -1.7809
 2845SOL     OW10402   2.976   8.672   4.648  0.2709 -0.1290 -0.2086
 2845SOL    HW110403   3.049   8.675   4.710  1.4846  0.9976 -1.6160
 2845SOL    HW210404   2.944   8.762   4.644 -0.1365 -0.2951 -0.8059
 2846SOL     OW10405   0.309   1.248   4.205  0.5296 -0.3716  0.1833
 2846SOL    HW110406   0.401   1.229   4.222  0.4607  0.0815  1.1465
 2846SOL    HW210407   0.261   1.179   4.251  0.3957 -1.8371 -2.0273
 2847SOL     OW10408   3.190   7.692   0.142 -0.2488  0.1514  0.6338
 2847SOL    HW110409   3.096   7.677   0.129 -0.0277 -3.0879  1.9015
 2847SOL    HW210410   3.230   7.668   0.058 -0.4187 -0.6504  0.7718
 2848SOL     OW10411   6.636   4.001   6.611  0.1506  0.0988 -0.3591
 2848SOL    HW110412   6.600   4.062   6.546 -0.8335 -0.6077 -0.5027
 2848SOL    HW210413   6.616   3.914   6.575  0.2105 -0.3032  0.5628
 2849SOL     OW10414   3.680   6.180   3.331  0.3207 -0.0500 -0.1927
 2849SOL    HW110415   3.709   6.100   3.376 -2.3872 -2.1742 -1.8937
 2849SOL    HW210416   3.601   6.206   3.378 -0.1566  0.2139 -1.1316
 2850SOL     OW10417   4.982   1.833   0.426 -0.0571  0.0000 -0.2963
 2850SOL    HW110418   4.904   1.889   0.429  0.3598  0.5773  0.1533
 2850SOL    HW210419   5.024   1.855   0.343  0.0452  0.2651 -0.1734
 2851SOL     OW10420   0.651   1.154   5.084 -0.6597 -0.0801  0.3697
 2851SOL    HW110421   0.694   1.151   4.998  0.4312 -1.0799  0.9143
 2851SOL    HW210422   0.590   1.080   5.083  0.9207 -1.4887  1.1813
 2852SOL     OW10423   1.046   6.443   0.582  0.1063  0.0189 -0.2775
 2852SOL    HW110424   1.034   6.429   0.488  0.9341  1.6758 -0.6727
 2852SOL    HW210425   1.020   6.534   0.596  0.1996 -0.1373  1.0695
 2853SOL     OW10426   1.341   0.694   8.172 -0.2375  0.5173  0.7166
 2853SOL    HW110427   1.392   0.704   8.092  1.0734  1.1529  1.5916
 2853SOL    HW210428   1.374   0.763   8.230  1.3891 -2.0743  3.0899
 2854SOL     OW10429   2.554   6.749   0.347  0.1173  0.0072  1.0654
 2854SOL    HW110430   2.472   6.779   0.308  0.3886  2.3922  2.1637
 2854SOL    HW210431   2.527   6.679   0.407 -0.8605 -0.4742  0.0938
 2855SOL     OW10432   3.869   0.745   3.938  0.0595 -0.6058  0.2095
 2855SOL    HW110433   3.858   0.833   3.903 -0.4615 -0.7447  0.0232
 2855SOL    HW210434   3.785   0.724   3.979  0.4965 -0.6375  1.1187
 2856SOL     OW10435   8.039   3.751   2.842  0.2434 -0.0787 -0.4285
 2856SOL    HW110436   7.959   3.744   2.894  1.2479  1.8686  1.5760
 2856SOL    HW210437   8.107   3.711   2.897  1.1248  0.8917 -0.7671
 2857SOL     OW10438   0.392   6.806   0.460 -0.3151  0.2236  0.4296
 2857SOL    HW110439   0.448   6.874   0.495  0.1022  0.6951 -1.0611
 2857SOL    HW210440   0.398   6.734   0.522  0.0674  1.1520  1.4832
 2858SOL     OW10441   3.507   5.110   1.243 -0.0149 -0.3569  0.0325
 2858SOL    HW110442   3.507   5.075   1.154  1.5559  1.7369 -0.8744
 2858SOL    HW210443   3.420   5.147   1.255 -0.3945 -1.0727 -0.4232
 2859SOL     OW10444   7.042   6.032   1.523 -0.1470  0.1673 -0.5406
 2859SOL    HW110445   6.968   6.038   1.463 -0.4106  0.4042 -0.2006
 2859SOL    HW210446   7.085   6.117   1.515 -0.2561  0.2456 -0.3057
 2860SOL     OW10447   4.897   3.545   5.206  0.1204 -0.5383 -0.3072
 2860SOL    HW110448   4.947   3.596   5.143  1.2997 -0.0556  0.9783
 2860SOL    HW210449   4.844   3.609   5.254  0.7421 -0.6269  0.5313
 2861SOL     OW10450   1.554   2.391   7.136  0.5383 -0.1793 -0.4234
 2861SOL    HW110451   1.634   2.382   7.188 -0.1296 -1.6123  0.4085
 2861SOL    HW210452   1.496   2.445   7.191  0.6559  0.2580 -0.7180
 2862SOL     OW10453   1.837   1.686   7.103  0.0131  0.1975  0.1648
 2862SOL    HW110454   1.792   1.631   7.167 -1.3292 -1.2219 -1.8566
 2862SOL    HW210455   1.928   1.690   7.134 -0.5034 -0.7139  1.9219
 2863SOL     OW10456   3.757   4.659   6.259  0.4378 -0.3303 -0.0999
 2863SOL    HW110457   3.697   4.734   6.252 -0.1460 -0.8106 -0.2646
 2863SOL    HW210458   3.713   4.589   6.210  1.1149 -0.6975 -0.1810
 2864SOL     OW10459   7.022   5.131   1.541 -0.3534 -0.2489  0.3588
 2864SOL    HW110460   7.000   5.196   1.608 -0.3407 -1.6621  1.7973
 2864SOL    HW210461   7.106   5.095   1.570 -1.0904 -1.9738  0.4685
 2865SOL     OW10462   4.880   3.390   0.464 -0.4488  0.7097 -0.3262
 2865SOL    HW110463   4.919   3.477   0.452 -1.2158  1.0606 -0.3810
 2865SOL    HW210464   4.841   3.395   0.552 -0.0698  0.2461 -0.1298
 2866SOL     OW10465   7.853   3.505   2.238  0.6611 -0.0403 -0.6355
 2866SOL    HW110466   7.864   3.423   2.189  0.3046 -0.3230 -0.2500
 2866SOL    HW210467   7.939   3.546   2.235  0.5482  0.1469 -1.8403
 2867SOL     OW10468   1.308   5.359   4.468  0.4486 -0.4454  0.2250
 2867SOL    HW110469   1.315   5.265   4.486  0.5207 -0.4675  0.0787
 2867SOL    HW210470   1.286   5.364   4.375  1.3221 -0.2904  0.0244
 2868SOL     OW10471   5.823   4.425   7.262 -0.3367 -0.0424 -0.3689
 2868SOL    HW110472   5.823   4.398   7.354  0.9489  0.1766 -0.2919
 2868SOL    HW210473   5.858   4.350   7.215 -1.2559 -0.2615 -0.7372
 2869SOL     OW10474   7.027   2.452   3.094 -0.3997 -0.2767  0.0320
 2869SOL    HW110475   6.977   2.534   3.093 -0.3883 -0.1985 -2.6310
 2869SOL    HW210476   6.963   2.384   3.072 -0.2958 -0.9256  1.6546
 2870SOL     OW10477   0.259   7.300   6.055 -0.1411 -0.4586 -0.2514
 2870SOL    HW110478   0.205   7.224   6.079  0.6772 -0.4665  1.7550
 2870SOL    HW210479   0.349   7.272   6.073  0.1369  1.1453  1.1344
 2871SOL     OW10480   5.859   4.951   5.788 -0.3285  0.3404 -0.3824
 2871SOL    HW110481   5.809   4.925   5.865 -0.1224 -1.7605 -0.8799
 2871SOL    HW210482   5.905   5.031   5.814 -0.5624 -0.1107  1.5447
 2872SOL     OW10483   5.710   4.491   6.386  0.1659 -0.1914 -0.0058
 2872SOL    HW110484   5.646   4.443   6.334  1.0245 -1.3714 -0.0061
 2872SOL    HW210485   5.754   4.424   6.438  1.8409  0.4813 -0.4811
 2873SOL     OW10486   6.589   2.883   2.424  0.0811  0.4445 -0.2926
 2873SOL    HW110487   6.516   2.841   2.468 -0.5650  1.8781  0.0488
 2873SOL    HW210488   6.588   2.973   2.455  1.3242  0.7811 -1.1277
 2874SOL     OW10489   0.019   4.387   7.162  0.3442  0.2959 -0.3352
 2874SOL    HW110490   0.093   4.327   7.173  0.2156 -0.1036 -1.5498
 2874SOL    HW210491   0.029   4.422   7.074  1.4021  3.4721  0.8915
 2875SOL     OW10492   7.338   6.914   7.076 -0.3818 -0.3584 -0.0699
 2875SOL    HW110493   7.255   6.958   7.092 -1.5137 -2.1337 -0.7349
 2875SOL    HW210494   7.385   6.972   7.015 -0.3176  1.5151  1.6567
 2876SOL     OW10495   8.348   1.057   2.855 -0.1889  0.2417 -0.3550
 2876SOL    HW110496   8.416   1.098   2.802 -0.3107 -0.2281 -0.8903
 2876SOL    HW210497   8.327   1.121   2.923  0.5438  0.5226 -0.3910
 2877SOL     OW10498   2.832   4.901   4.894  0.2480  0.3618  0.2715
 2877SOL    HW110499   2.829   4.814   4.853 -1.9708 -0.5088  2.0646
 2877SOL    HW210500   2.793   4.960   4.829 -0.3260 -0.4015 -0.0912
 2878SOL     OW10501   0.900   7.871   8.794  0.3296  0.2993 -0.8466
 2878SOL    HW110502   0.968   7.832   8.849 -0.9210  0.7657  1.1339
 2878SOL    HW210503   0.821   7.871   8.850 -0.6340  2.2060 -2.1006
 2879SOL     OW10504   4.828   2.972   3.416  0.3982 -0.3862 -0.2798
 2879SOL    HW110505   4.812   3.002   3.506 -0.3666 -0.4440 -0.3877
 2879SOL    HW210506   4.838   2.877   3.424 -0.2146 -0.4609 -0.3130
 2880SOL     OW10507   4.518   2.311   3.655 -0.2741  0.1792 -0.1710
 2880SOL    HW110508   4.478   2.325   3.741 -0.1089 -0.0857 -0.0471
 2880SOL    HW210509   4.445   2.300   3.595 -0.3922 -0.5042  0.0865
 2881SOL     OW10510   8.807   4.221   1.346  0.1353  0.1519 -0.3081
 2881SOL    HW110511   8.740   4.270   1.301  0.1669  1.3551  0.8889
 2881SOL    HW210512   8.847   4.284   1.406  1.7350 -0.7568 -0.3575
 2882SOL     OW10513   2.912   4.691   7.854  0.3885  0.2537 -0.2072
 2882SOL    HW110514   2.905   4.780   7.820  1.7234  0.7376  0.6959
 2882SOL    HW210515   3.006   4.678   7.868  0.1283 -0.9488  0.5855
 2883SOL     OW10516   1.298   5.496   8.038  0.3557 -0.0187 -0.4124
 2883SOL    HW110517   1.273   5.459   8.122  1.7883  1.0144  0.5227
 2883SOL    HW210518   1.372   5.442   8.010  0.5816  0.3147 -0.4642
 2884SOL     OW10519   8.518   8.131   7.001  0.8786  0.0240  0.4595
 2884SOL    HW110520   8.519   8.221   6.968 -0.2938 -0.4115 -0.8470
 2884SOL    HW210521   8.478   8.080   6.930  4.6477 -2.1433 -0.3616
 2885SOL     OW10522   8.596   0.171   8.120  0.5459 -0.2849 -0.4593
 2885SOL    HW110523   8.578   0.156   8.213  0.8631 -0.5025 -0.4323
 2885SOL    HW210524   8.616   0.264   8.114 -3.1383  0.6327 -0.8875
 2886SOL     OW10525   8.183   4.698   8.677 -0.5056 -0.3223  0.1589
 2886SOL    HW110526   8.094   4.728   8.655  0.3601  1.1668 -1.6524
 2886SOL    HW210527   8.195   4.621   8.622 -0.9742 -1.0647  1.0799
 2887SOL     OW10528   7.781   4.180   6.451  0.4893 -0.1528 -0.1280
 2887SOL    HW110529   7.847   4.250   6.454 -0.1824  0.5223 -0.6800
 2887SOL    HW210530   7.726   4.202   6.376 -1.0605 -0.0465  0.9729
 2888SOL     OW10531   5.096   6.127   6.236 -0.1085  0.3909 -0.1202
 2888SOL    HW110532   5.024   6.190   6.233 -0.6336 -0.0955  1.4541
 2888SOL    HW210533   5.142   6.140   6.153 -1.3873  1.4374 -0.7114
 2889SOL     OW10534   5.083   6.368   8.602 -0.0093 -0.3719  0.2935
 2889SOL    HW110535   5.159   6.373   8.544  1.9318  0.6020  2.7479
 2889SOL    HW210536   5.085   6.279   8.637 -0.9786 -0.8439 -0.7513
 2890SOL     OW10537   8.095   1.826   3.908 -0.2627  0.0358 -0.2580
 2890SOL    HW110538   8.122   1.769   3.836 -0.6664 -0.9141  0.3298
 2890SOL    HW210539   8.036   1.773   3.961 -0.1163  0.7776  0.6825
 2891SOL     OW10540   6.271   8.452   3.829 -0.8015  0.5937 -0.4193
 2891SOL    HW110541   6.191   8.504   3.820 -0.4143  1.1487 -0.7398
 2891SOL    HW210542   6.246   8.379   3.886 -1.5473  0.7322 -0.5553
 2892SOL     OW10543   4.088   8.564   8.928 -0.1536  0.5646  0.0111
 2892SOL    HW110544   4.066   8.655   8.908  0.5877  0.9472  0.8753
 2892SOL    HW210545   4.067   8.554   9.020 -0.5652 -0.2548 -0.1600
 2893SOL     OW10546   2.990   6.105   7.898 -0.8067  0.2508 -0.3585
 2893SOL    HW110547   3.068   6.057   7.927 -1.5539 -1.0969 -0.4867
 2893SOL    HW210548   2.956   6.144   7.979 -0.0790  0.7515 -0.2812
 2894SOL     OW10549   4.342   0.972   5.908  0.0941 -0.4021 -0.5806
 2894SOL    HW110550   4.419   1.028   5.900 -0.2747  0.2798  0.4358
 2894SOL    HW210551   4.274   1.030   5.942 -0.8858 -0.9778 -1.4894
 2895SOL     OW10552   8.420   3.366   2.698  0.0079 -0.6056 -0.4710
 2895SOL    HW110553   8.425   3.272   2.712  0.2001 -0.7517 -1.4686
 2895SOL    HW210554   8.349   3.377   2.634 -0.1982 -0.0465 -0.1578
 2896SOL     OW10555   4.923   4.889   6.521  0.0938 -0.2129  0.3476
 2896SOL    HW110556   4.964   4.895   6.607  0.9772  0.5920 -0.1183
 2896SOL    HW210557   4.994   4.870   6.461 -0.0230  1.9592 -0.5867
 2897SOL     OW10558   7.666   8.398   5.125  0.5807  0.1993  0.3586
 2897SOL    HW110559   7.629   8.466   5.180  1.1826  1.8975 -1.2301
 2897SOL    HW210560   7.741   8.440   5.082  0.2037 -1.0371 -1.6471
 2898SOL     OW10561   2.833   2.377   7.602  0.5401  0.0742 -0.3907
 2898SOL    HW110562   2.860   2.383   7.510  0.0298  1.4994 -0.4794
 2898SOL    HW210563   2.766   2.309   7.604  0.6892 -0.0959 -1.0311
 2899SOL     OW10564   6.119   6.111   6.986 -0.2714  0.0317  0.0338
 2899SOL    HW110565   6.150   6.040   7.042  1.0272  0.9170  0.4953
 2899SOL    HW210566   6.064   6.164   7.043 -0.3352 -0.0008  0.0017
 2900SOL     OW10567   2.609   4.626   1.304 -0.1010 -0.2380  0.0923
 2900SOL    HW110568   2.569   4.596   1.223 -1.8928 -1.3198  1.3209
 2900SOL    HW210569   2.694   4.580   1.307  0.4000  0.5047 -1.5465
 2901SOL     OW10570   3.340   4.367   5.322  0.5157  0.7783  0.0722
 2901SOL    HW110571   3.401   4.415   5.265  0.4811 -0.2021 -0.8310
 2901SOL    HW210572   3.397   4.324   5.386  0.7381  0.2592 -0.4691
 2902SOL     OW10573   1.126   6.245   7.470 -0.0402 -0.2067  0.2503
 2902SOL    HW110574   1.154   6.277   7.555  0.4976 -0.8970  0.3390
 2902SOL    HW210575   1.080   6.163   7.489 -0.4124 -0.0743 -0.0697
 2903SOL     OW10576   5.728   6.689   7.609  0.2931 -0.0843  0.0388
 2903SOL    HW110577   5.681   6.608   7.627 -1.7620  1.3507  1.4753
 2903SOL    HW210578   5.676   6.733   7.541 -0.1052  1.2022  1.1386
 2904SOL     OW10579   7.526   3.609   0.588 -0.2339 -0.6219 -0.1390
 2904SOL    HW110580   7.437   3.577   0.605 -0.7864  0.4939 -0.8241
 2904SOL    HW210581   7.567   3.539   0.537 -0.6339 -1.2402  0.3651
 2905SOL     OW10582   5.903   4.914   2.627  0.4035 -0.3829  0.3458
 2905SOL    HW110583   5.977   4.974   2.638 -1.8637  2.6090  0.6009
 2905SOL    HW210584   5.870   4.899   2.716 -0.5878  0.1623  0.0918
 2906SOL     OW10585   2.492   1.063   8.099  0.3777  0.9541  0.1825
 2906SOL    HW110586   2.546   1.140   8.083  0.2054  1.0181 -0.0990
 2906SOL    HW210587   2.407   1.085   8.061 -0.1423  1.2325  1.4640
 2907SOL     OW10588   5.513   5.875   0.799 -0.0612 -0.0333 -0.1489
 2907SOL    HW110589   5.460   5.796   0.793  0.7296 -0.5828 -0.1027
 2907SOL    HW210590   5.589   5.857   0.744  0.5779  0.3282  0.5966
 2908SOL     OW10591   7.716   0.068   0.823  0.1172  0.0901  0.5217
 2908SOL    HW110592   7.747   0.155   0.799 -0.0365  0.0659  0.2367
 2908SOL    HW210593   7.795   0.023   0.853  0.3786  0.0201 -0.2364
 2909SOL     OW10594   7.853   3.323   6.229 -0.2587  0.3452 -0.0123
 2909SOL    HW110595   7.770   3.351   6.270  0.1755  0.0812  1.0638
 2909SOL    HW210596   7.880   3.247   6.279 -0.7482 -1.3036 -2.1048
 2910SOL     OW10597   3.902   2.791   1.948  0.1661  0.0399 -0.1054
 2910SOL    HW110598   3.912   2.727   2.019 -0.1652 -0.1726 -0.2465
 2910SOL    HW210599   3.925   2.875   1.988  0.0327 -0.0853  0.2383
 2911SOL     OW10600   8.681   5.331   1.252 -0.0911 -0.2383  0.0780
 2911SOL    HW110601   8.760   5.384   1.240 -1.1819  1.1305 -1.4438
 2911SOL    HW210602   8.711   5.241   1.238  1.2595  0.2323 -0.1998
 2912SOL     OW10603   0.582   3.565   1.596 -0.3607 -1.0832 -0.1922
 2912SOL    HW110604   0.528   3.643   1.604 -2.1021 -2.0773 -1.5408
 2912SOL    HW210605   0.574   3.539   1.504  2.5730 -1.2313 -0.5167
 2913SOL     OW10606   5.615   7.734   7.121 -0.1911  0.1173 -0.1733
 2913SOL    HW110607   5.562   7.751   7.199 -2.3257 -0.9521 -1.3059
 2913SOL    HW210608   5.694   7.694   7.155 -1.1309 -0.4734  1.4541
 2914SOL     OW10609   1.214   3.873   4.894  0.8708 -0.2624  0.3351
 2914SOL    HW110610   1.162   3.948   4.923  0.2311 -0.8450  0.7236
 2914SOL    HW210611   1.305   3.901   4.905  0.7769  1.6411 -2.4341
 2915SOL     OW10612   1.425   2.275   5.334  0.3216 -0.0619  0.2252
 2915SOL    HW110613   1.348   2.301   5.384  0.3825 -0.6289  0.6273
 2915SOL    HW210614   1.465   2.357   5.305  0.3873  0.2850  1.2638
 2916SOL     OW10615   0.930   3.564   4.286 -0.4559 -0.3086  0.4754
 2916SOL    HW110616   0.934   3.470   4.304  1.4312 -0.4318 -0.3847
 2916SOL    HW210617   0.919   3.570   4.191  0.6444  0.3187  0.3718
 2917SOL     OW10618   8.955   6.231   4.376 -0.9331  0.5123 -0.5194
 2917SOL    HW110619   8.994   6.144   4.366  0.4400  1.2336 -1.7680
 2917SOL    HW210620   8.873   6.226   4.327 -0.5826  0.0809 -1.0751
 2918SOL     OW10621   2.732   3.170   4.593 -0.1487  0.0353 -0.4690
 2918SOL    HW110622   2.679   3.244   4.623 -0.1751 -0.6094  1.1293
 2918SOL    HW210623   2.819   3.207   4.580 -0.6597  0.8256 -1.9056
 2919SOL     OW10624   2.258   0.251   1.126 -0.2218 -0.3232 -0.1047
 2919SOL    HW110625   2.312   0.249   1.047 -0.1768 -2.4592 -0.0845
 2919SOL    HW210626   2.193   0.319   1.109  0.6990  0.2940 -1.3399
 2920SOL     OW10627   3.819   1.014   4.506 -0.4647  0.0747  0.4904
 2920SOL    HW110628   3.817   0.923   4.477  1.3457 -0.6368  2.3613
 2920SOL    HW210629   3.825   1.009   4.601  1.5178  2.0879  0.5573
 2921SOL     OW10630   1.465   0.894   2.402 -0.0324 -0.2712 -0.0679
 2921SOL    HW110631   1.515   0.974   2.386 -2.4050  1.4586  0.5313
 2921SOL    HW210632   1.455   0.854   2.315  1.2436  0.0112 -0.3642
 2922SOL     OW10633   2.109   3.485   1.069 -0.0239  0.1038 -0.3789
 2922SOL    HW110634   2.125   3.426   0.996 -2.7778 -0.6920 -0.4670
 2922SOL    HW210635   2.108   3.572   1.030  2.7228  0.1652 -0.4837
 2923SOL     OW10636   4.889   6.052   2.694  0.7635 -0.2870  0.6951
 2923SOL    HW110637   4.970   6.001   2.695  0.9533 -0.0128 -0.1316
 2923SOL    HW210638   4.831   6.005   2.635  0.9857  0.4989 -0.1847
 2924SOL     OW10639   2.000   0.468   8.067  0.2989 -0.8718  0.2179
 2924SOL    HW110640   2.047   0.427   8.140  0.7061 -1.0800 -0.1562
 2924SOL    HW210641   1.915   0.423   8.065 -0.0408 -0.2894  1.0854
 2925SOL     OW10642   2.726   3.651   2.457 -0.2069  0.1123 -0.6747
 2925SOL    HW110643   2.797   3.587   2.462 -1.3455 -1.1476  0.3958
 2925SOL    HW210644   2.665   3.614   2.393 -0.3746  0.6615 -0.8374
 2926SOL     OW10645   1.395   4.869   5.576  0.7301  0.2569  0.1485
 2926SOL    HW110646   1.324   4.814   5.543  2.3174 -2.2682  0.6682
 2926SOL    HW210647   1.391   4.948   5.522  0.8029 -2.0208 -3.4791
 2927SOL     OW10648   6.009   4.411   0.137 -0.9712  0.4228  0.3360
 2927SOL    HW110649   5.957   4.387   0.214 -2.6545  0.3543 -0.7614
 2927SOL    HW210650   6.015   4.330   0.086 -0.1256  0.5394  0.2353
 2928SOL     OW10651   0.945   2.620   0.804  0.6006  0.2750 -0.7554
 2928SOL    HW110652   0.939   2.679   0.878  2.0464 -1.0351  0.4845
 2928SOL    HW210653   0.859   2.623   0.763 -0.3248  0.8482  1.1308
 2929SOL     OW10654   7.462   4.742   4.379 -0.1739  0.0682 -0.1073
 2929SOL    HW110655   7.550   4.777   4.366  0.6340 -0.8311  2.3698
 2929SOL    HW210656   7.446   4.749   4.473 -1.7629 -2.0183 -0.1372
 2930SOL     OW10657   7.821   5.824   3.965 -0.2879 -0.2991 -0.0607
 2930SOL    HW110658   7.768   5.752   3.931 -0.9205  0.1979 -0.1547
 2930SOL    HW210659   7.838   5.880   3.889 -0.9359  0.3426  0.2540
 2931SOL     OW10660   1.954   6.564   5.236 -0.4192  0.1351  0.5703
 2931SOL    HW110661   1.953   6.659   5.226 -0.4875  0.2169  1.2959
 2931SOL    HW210662   2.025   6.534   5.179 -0.1443  0.6537  0.6391
 2932SOL     OW10663   3.627   0.677   1.315 -0.3622  0.0587  0.0319
 2932SOL    HW110664   3.639   0.759   1.364  2.3825 -0.4166  0.2999
 2932SOL    HW210665   3.700   0.675   1.254 -0.4351 -2.1405 -0.0402
 2933SOL     OW10666   5.227   2.451   4.303  0.0091  0.2139  0.0941
 2933SOL    HW110667   5.275   2.525   4.267  1.6309  0.5691  2.6965
 2933SOL    HW210668   5.168   2.489   4.368  0.7401 -0.7085  1.3524
 2934SOL     OW10669   3.069   5.537   4.877  0.3882 -0.3535 -0.1223
 2934SOL    HW110670   3.096   5.458   4.831  0.4006 -1.0024  0.9618
 2934SOL    HW210671   3.065   5.511   4.969 -0.6121  0.6322  0.1358
 2935SOL     OW10672   7.119   1.978   8.234 -0.2309 -0.0409 -0.4667
 2935SOL    HW110673   7.100   1.928   8.155 -2.4426 -0.3746  0.1805
 2935SOL    HW210674   7.102   1.917   8.306 -0.5608  0.9159  0.2913
 2936SOL     OW10675   6.086   1.160   1.428  0.2023  0.2677  0.4907
 2936SOL    HW110676   5.994   1.158   1.401  0.2462  0.1371  0.3508
 2936SOL    HW210677   6.082   1.164   1.524  0.0563 -0.8405  0.5410
 2937SOL     OW10678   2.677   4.666   8.036  0.4977  0.3183  0.6219
 2937SOL    HW110679   2.691   4.650   8.129  0.8799  0.7868  0.6545
 2937SOL    HW210680   2.638   4.753   8.033  1.0584  0.5675  0.3203
 2938SOL     OW10681   7.542   4.320   6.323 -0.3519  0.3083 -0.3091
 2938SOL    HW110682   7.542   4.395   6.382  0.9388  1.7012 -1.9737
 2938SOL    HW210683   7.462   4.329   6.272 -0.3887  0.3260 -0.2481
 2939SOL     OW10684   5.989   1.523   7.133 -0.1323 -0.0010  0.1494
 2939SOL    HW110685   6.026   1.562   7.054 -5.4714  1.5279 -2.0326
 2939SOL    HW210686   5.988   1.595   7.196 -0.1914  0.1922 -0.0697
 2940SOL     OW10687   1.779   8.911   5.702  0.1044  0.2652 -0.2238
 2940SOL    HW110688   1.799   8.875   5.789 -1.0625  0.3528  0.0982
 2940SOL    HW210689   1.781   8.835   5.644  2.2412  0.4019 -0.3941
 2941SOL     OW10690   2.204   4.214   4.814 -0.3121  0.2097  0.1193
 2941SOL    HW110691   2.222   4.301   4.779  2.8367 -0.9525 -1.5785
 2941SOL    HW210692   2.237   4.217   4.904 -0.3839  0.8069  0.1314
 2942SOL     OW10693   4.135   6.109   6.685  0.0922  0.1319 -0.2351
 2942SOL    HW110694   4.112   6.166   6.758 -0.0070 -1.4280  1.0189
 2942SOL    HW210695   4.231   6.107   6.686  0.0964 -1.4416  1.1998
 2943SOL     OW10696   3.436   2.044   7.298 -0.2741 -0.4693 -0.1358
 2943SOL    HW110697   3.354   2.074   7.336  0.3698  0.3309  0.6574
 2943SOL    HW210698   3.491   2.021   7.374  0.2208 -1.0538 -0.6522
 2944SOL     OW10699   3.275   5.115   6.709 -0.4090  0.1644  0.7094
 2944SOL    HW110700   3.277   5.119   6.805  0.3726 -0.7099  0.7331
 2944SOL    HW210701   3.183   5.097   6.688 -0.3482 -0.9763  1.3529
 2945SOL     OW10702   3.304   2.800   2.283  0.1930 -0.3685 -0.3461
 2945SOL    HW110703   3.238   2.766   2.343 -0.3419 -2.0308 -1.8076
 2945SOL    HW210704   3.388   2.773   2.321 -0.0349 -0.0178  0.4414
 2946SOL     OW10705   7.011   0.938   5.284 -0.1861  0.2277  0.1041
 2946SOL    HW110706   7.016   0.932   5.379  0.2799 -0.8685  0.0186
 2946SOL    HW210707   7.103   0.939   5.256 -0.2380  2.8210 -0.2282
 2947SOL     OW10708   8.322   6.183   5.254 -0.0614 -0.0430 -0.0177
 2947SOL    HW110709   8.393   6.239   5.223 -0.8219 -0.0568 -1.9086
 2947SOL    HW210710   8.365   6.101   5.279  0.7241  0.3690  0.0085
 2948SOL     OW10711   5.518   1.297   5.301 -0.4894 -0.1115 -0.7756
 2948SOL    HW110712   5.594   1.241   5.317  0.1112  1.0731  0.8085
 2948SOL    HW210713   5.507   1.296   5.206  1.1450 -0.7879 -0.9912
 2949SOL     OW10714   7.326   7.448   5.320 -0.5224 -0.0824 -0.7623
 2949SOL    HW110715   7.267   7.522   5.335  0.2487  0.5453 -0.7231
 2949SOL    HW210716   7.324   7.399   5.402 -1.3869 -0.3772 -0.9426
 2950SOL     OW10717   4.716   7.601   3.894 -0.2784  0.1450  0.2014
 2950SOL    HW110718   4.636   7.549   3.887 -0.8501  0.9727  0.4889
 2950SOL    HW210719   4.782   7.548   3.849 -0.8803 -0.7479  0.3319
 2951SOL     OW10720   3.231   0.346   1.983 -0.4030 -0.2949 -0.6529
 2951SOL    HW110721   3.292   0.405   2.027 -0.6822  0.5253 -1.3554
 2951SOL    HW210722   3.267   0.259   2.001 -1.6595 -0.2379  3.0790
 2952SOL     OW10723   5.703   0.953   7.991  0.4548  0.4852 -0.2571
 2952SOL    HW110724   5.781   0.974   8.042  0.3566 -0.4775  0.3172
 2952SOL    HW210725   5.632   0.952   8.056 -0.1667  1.9398 -0.8621
 2953SOL     OW10726   5.570   5.491   2.740  0.3822  0.1088 -0.0410
 2953SOL    HW110727   5.553   5.566   2.797  2.1075  1.3531 -1.0587
 2953SOL    HW210728   5.486   5.472   2.699 -0.4081  0.5289  1.3263
 2954SOL     OW10729   5.009   3.611   5.927 -0.1997 -0.3067 -0.3455
 2954SOL    HW110730   5.029   3.585   6.017  0.5412 -1.1507 -0.7297
 2954SOL    HW210731   5.039   3.537   5.873  1.9158  1.2608 -1.4888
 2955SOL     OW10732   3.629   2.307   8.052  0.0628  0.2972 -0.2411
 2955SOL    HW110733   3.657   2.369   8.120  0.2724  0.2219 -0.2612
 2955SOL    HW210734   3.657   2.222   8.084  1.5424  0.4243 -1.1524
 2956SOL     OW10735   3.507   5.602   5.667  0.0422 -0.3634  0.5008
 2956SOL    HW110736   3.476   5.607   5.757  3.5794  2.0430  1.7949
 2956SOL    HW210737   3.562   5.524   5.664  0.1887 -0.2632  0.5465
 2957SOL     OW10738   3.599   2.962   2.573  0.3317 -0.3879  0.2308
 2957SOL    HW110739   3.609   3.055   2.551  0.5484 -0.6394 -0.8106
 2957SOL    HW210740   3.630   2.916   2.495  0.9801 -1.3518  1.0363
 2958SOL     OW10741   4.296   1.957   2.633  0.2190 -0.1924 -0.4376
 2958SOL    HW110742   4.318   2.026   2.571 -0.8062  0.2045 -0.3865
 2958SOL    HW210743   4.307   1.997   2.719 -0.8048  0.0793 -0.4103
 2959SOL     OW10744   5.398   7.211   2.019 -0.0952 -0.1553  0.1593
 2959SOL    HW110745   5.308   7.178   2.022  0.4097 -1.9896 -1.7979
 2959SOL    HW210746   5.399   7.271   1.945  0.3073 -0.2690  0.0686
 2960SOL     OW10747   3.506   1.880   7.088  0.4271 -0.3424  0.2284
 2960SOL    HW110748   3.474   1.928   7.165 -0.5076  0.1082 -0.4168
 2960SOL    HW210749   3.466   1.926   7.014  1.3565 -0.7355 -0.5318
 2961SOL     OW10750   3.072   5.058   5.675  0.0087 -0.0493  0.7982
 2961SOL    HW110751   2.988   5.020   5.651  1.4019 -2.1761 -1.2168
 2961SOL    HW210752   3.085   5.032   5.766 -0.7055 -1.3504  0.5494
 2962SOL     OW10753   5.400   3.443   4.840  0.3964  0.0445  0.6791
 2962SOL    HW110754   5.357   3.463   4.758 -0.6554  1.1500  1.4672
 2962SOL    HW210755   5.486   3.486   4.834 -0.2496  1.3855  0.7175
 2963SOL     OW10756   3.383   3.567   3.362 -0.1843 -0.2313 -0.0121
 2963SOL    HW110757   3.469   3.604   3.382  0.3691 -2.0678  1.2742
 2963SOL    HW210758   3.387   3.546   3.269  1.4356 -1.7976  0.3468
 2964SOL     OW10759   4.153   6.885   2.623 -0.1390 -0.0672  0.2457
 2964SOL    HW110760   4.143   6.935   2.542  0.7666 -1.0052 -0.4718
 2964SOL    HW210761   4.064   6.875   2.656 -0.5984 -0.2702 -1.0157
 2965SOL     OW10762   1.304   5.672   8.359 -0.6546 -0.2131 -0.3101
 2965SOL    HW110763   1.210   5.673   8.374 -0.4662  0.7280  1.0402
 2965SOL    HW210764   1.322   5.587   8.318 -1.9840 -0.6785  0.0392
 2966SOL     OW10765   0.083   0.882   5.928 -0.2257  0.0417  0.0387
 2966SOL    HW110766   0.055   0.806   5.979 -0.3525 -0.4026 -0.6790
 2966SOL    HW210767   0.008   0.903   5.872  0.3655 -0.3125 -0.9236
 2967SOL     OW10768   7.228   4.748   1.266 -0.0691 -0.3432 -0.7143
 2967SOL    HW110769   7.279   4.820   1.301  1.2596 -1.1870 -0.8632
 2967SOL    HW210770   7.161   4.732   1.333 -0.8215  1.4236 -0.9715
 2968SOL     OW10771   0.507   5.898   7.361 -0.4112  0.2670  0.1228
 2968SOL    HW110772   0.545   5.933   7.441  0.8204 -0.5686 -0.0623
 2968SOL    HW210773   0.536   5.957   7.291  0.0739 -0.0516  0.0545
 2969SOL     OW10774   4.973   1.187   0.499 -0.0050  0.3934  0.1906
 2969SOL    HW110775   4.879   1.201   0.514  0.1963  0.9240  0.9701
 2969SOL    HW210776   4.987   1.096   0.527 -0.5309 -0.1381 -1.1731
 2970SOL     OW10777   6.734   1.889   6.400  0.3318  0.0263 -0.2578
 2970SOL    HW110778   6.820   1.878   6.441  0.9144 -0.1423 -1.4906
 2970SOL    HW210779   6.707   1.801   6.376  0.4093  0.2102 -1.0411
 2971SOL     OW10780   3.110   8.262   1.199 -0.1542 -0.8059 -0.1352
 2971SOL    HW110781   3.114   8.356   1.217 -0.2574 -0.5777 -1.2327
 2971SOL    HW210782   3.034   8.252   1.142  0.6093 -1.3731 -1.0732
 2972SOL     OW10783   2.033   6.153   3.417 -0.5536 -0.0034 -0.0509
 2972SOL    HW110784   1.997   6.128   3.502 -0.6281 -1.3545 -0.4626
 2972SOL    HW210785   2.128   6.141   3.426 -0.6158 -0.7192 -0.3402
 2973SOL     OW10786   4.554   5.961   7.089  0.3283 -0.6092 -0.0420
 2973SOL    HW110787   4.518   6.048   7.070 -0.7735 -1.0595 -0.1289
 2973SOL    HW210788   4.609   5.975   7.166 -0.7387 -0.0129  0.6524
 2974SOL     OW10789   2.772   7.615   6.516  0.2464 -0.2334 -0.6169
 2974SOL    HW110790   2.721   7.534   6.522 -0.6571  0.4289  1.2179
 2974SOL    HW210791   2.859   7.591   6.546  0.0875 -0.5978 -0.4463
 2975SOL     OW10792   6.899   4.468   3.684 -0.5296 -0.3987 -0.0207
 2975SOL    HW110793   6.949   4.533   3.733  0.2633 -1.6223  0.8707
 2975SOL    HW210794   6.886   4.507   3.598 -0.5055  1.1245  0.6292
 2976SOL     OW10795   0.325   8.628   7.943 -0.4228  0.0095 -0.6006
 2976SOL    HW110796   0.313   8.717   7.976  0.7944 -0.1007  0.2157
 2976SOL    HW210797   0.400   8.595   7.991  0.0793 -0.9401 -1.9673
 2977SOL     OW10798   6.422   6.215   8.960  0.4205  0.4687 -0.1512
 2977SOL    HW110799   6.464   6.134   8.990 -0.6284 -0.6919 -1.6297
 2977SOL    HW210800   6.347   6.226   9.019 -1.6301 -1.8004 -2.0976
 2978SOL     OW10801   1.802   1.310   1.139  0.4533  0.5417  0.4329
 2978SOL    HW110802   1.873   1.340   1.082 -0.5131  1.0441 -0.5143
 2978SOL    HW210803   1.741   1.266   1.081 -1.4422  2.6219  0.7313
 2979SOL     OW10804   6.118   5.667   3.057 -0.0214  0.2343  0.0924
 2979SOL    HW110805   6.138   5.712   3.140  0.6029 -3.2525  2.0107
 2979SOL    HW210806   6.151   5.578   3.069 -1.4040 -0.9020 -3.3332
 2980SOL     OW10807   5.926   8.216   7.289 -0.3622 -0.2083 -0.3154
 2980SOL    HW110808   5.965   8.163   7.219 -0.9443 -0.9355 -0.1000
 2980SOL    HW210809   5.976   8.298   7.288 -0.5030 -0.1149 -1.7354
 2981SOL     OW10810   8.933   6.772   8.474  0.2368  0.1994  0.0877
 2981SOL    HW110811   8.938   6.853   8.424 -3.2920  1.3845  1.3219
 2981SOL    HW210812   8.954   6.703   8.411  0.1827  1.8810 -1.8565
 2982SOL     OW10813   2.160   0.636   6.048  0.2740  0.4102 -0.0313
 2982SOL    HW110814   2.198   0.669   6.129  1.0887 -1.0615  0.2272
 2982SOL    HW210815   2.066   0.632   6.065  0.5395 -1.1940  1.4020
 2983SOL     OW10816   3.827   2.502   2.378 -0.3063 -0.3656  0.4995
 2983SOL    HW110817   3.767   2.428   2.369  0.4204 -0.8894 -0.2172
 2983SOL    HW210818   3.900   2.468   2.429  0.0489 -0.1602  0.1380
 2984SOL     OW10819   0.618   6.230   8.781 -0.6764 -0.1686 -0.6972
 2984SOL    HW110820   0.568   6.175   8.842 -1.3611  1.2769  0.0798
 2984SOL    HW210821   0.592   6.319   8.802  2.3983  0.7168 -0.1127
 2985SOL     OW10822   1.511   8.417   2.972 -0.4040  0.4278  0.3792
 2985SOL    HW110823   1.431   8.380   2.933 -0.3559 -0.2625  0.9111
 2985SOL    HW210824   1.530   8.359   3.046  0.8540  0.3003 -0.0213
 2986SOL     OW10825   5.802   8.281   3.044  0.4182  0.2065  0.2511
 2986SOL    HW110826   5.790   8.186   3.040  0.6844  0.1282  1.1322
 2986SOL    HW210827   5.897   8.293   3.040  0.3417  0.5385 -1.4183
 2987SOL     OW10828   4.956   7.927   4.454  0.1041  0.2494 -0.1978
 2987SOL    HW110829   4.960   8.002   4.514  0.3231 -2.5941  3.7652
 2987SOL    HW210830   5.030   7.873   4.479  0.0185 -1.3079 -2.9712
 2988SOL     OW10831   8.260   6.475   3.003 -0.2985 -0.1394  0.0980
 2988SOL    HW110832   8.336   6.420   3.020  0.3189  0.6657  0.0091
 2988SOL    HW210833   8.217   6.433   2.929  0.0125 -0.6528  0.2024
 2989SOL     OW10834   2.919   8.021   0.515  0.3267  0.0302  0.4132
 2989SOL    HW110835   2.826   8.021   0.539  0.8719  1.4643  2.9548
 2989SOL    HW210836   2.950   7.933   0.539  0.1090  0.3420  1.9188
 2990SOL     OW10837   7.635   3.638   2.130  0.3650  0.0924  0.6330
 2990SOL    HW110838   7.552   3.665   2.169 -0.7538  0.2300 -1.6964
 2990SOL    HW210839   7.676   3.583   2.197 -1.6849 -0.1478  1.7756
 2991SOL     OW10840   3.928   4.289   8.432 -0.4347 -0.7313 -0.5260
 2991SOL    HW110841   3.981   4.353   8.384 -0.8613 -0.1555 -0.2425
 2991SOL    HW210842   3.886   4.238   8.363 -1.4966  0.4635 -0.8164
 2992SOL     OW10843   2.383   5.623   7.581  0.4397  0.3265  0.3935
 2992SOL    HW110844   2.381   5.534   7.617  1.1897  1.3231  3.2285
 2992SOL    HW210845   2.294   5.656   7.594  0.4845  0.4002  0.5113
 2993SOL     OW10846   4.128   6.982   0.791 -0.6029 -0.2705  0.2856
 2993SOL    HW110847   4.042   7.000   0.829 -0.9452  0.2316 -0.7009
 2993SOL    HW210848   4.156   7.065   0.754 -0.1204 -0.6565 -0.2317
 2994SOL     OW10849   7.727   4.847   1.597  0.0882 -0.6169 -1.0266
 2994SOL    HW110850   7.799   4.800   1.639  0.2008 -0.3469 -0.9151
 2994SOL    HW210851   7.769   4.915   1.546 -0.1440  1.1047  0.9290
 2995SOL     OW10852   0.716   2.505   7.328 -0.5524  0.3357 -0.1001
 2995SOL    HW110853   0.795   2.529   7.376  0.5478 -1.0839 -1.1009
 2995SOL    HW210854   0.705   2.411   7.345 -0.6976  0.0129 -1.7580
 2996SOL     OW10855   1.295   2.230   1.546  0.0892 -0.1808  0.5373
 2996SOL    HW110856   1.355   2.226   1.471 -0.4473  1.8730 -0.0808
 2996SOL    HW210857   1.262   2.141   1.555  2.0234 -1.0125 -0.1006
 2997SOL     OW10858   3.018   8.361   3.264 -0.2290  0.3175 -0.1040
 2997SOL    HW110859   3.014   8.372   3.169 -0.9503 -1.2994 -0.2936
 2997SOL    HW210860   3.000   8.268   3.278 -0.6584  0.6366  1.6560
 2998SOL     OW10861   8.995   1.541   8.224  0.1358 -0.1815  0.1321
 2998SOL    HW110862   9.081   1.510   8.196  0.6561  1.3939 -0.1229
 2998SOL    HW210863   8.963   1.594   8.151 -0.1625  0.8641  0.9983
 2999SOL     OW10864   8.169   4.611   3.857  1.0248  0.2894  0.2909
 2999SOL    HW110865   8.250   4.611   3.806 -0.1129  2.6426 -1.7286
 2999SOL    HW210866   8.192   4.654   3.940  2.4901 -1.9695  1.1427
 3000SOL     OW10867   0.162   4.828   1.377  0.4586  0.2207  0.2837
 3000SOL    HW110868   0.110   4.907   1.360  1.6207  1.0976  0.6540
 3000SOL    HW210869   0.247   4.861   1.406  1.3828 -1.1605 -0.7134
 3001SOL     OW10870   5.108   4.983   6.902 -0.3787  0.1345 -0.7201
 3001SOL    HW110871   5.037   4.920   6.888 -1.7929  1.3003  0.8691
 3001SOL    HW210872   5.067   5.069   6.886  0.2479  0.9222  1.5530
 3002SOL     OW10873   3.377   8.245   8.640 -0.1795 -0.1871 -0.7665
 3002SOL    HW110874   3.325   8.175   8.680  1.0732 -0.5964  0.2159
 3002SOL    HW210875   3.407   8.297   8.714 -1.6373  1.8496 -1.5112
 3003SOL     OW10876   4.981   7.556   5.736 -0.0429 -0.4578  0.2266
 3003SOL    HW110877   4.899   7.519   5.770 -1.2675  1.9684  0.1717
 3003SOL    HW210878   4.962   7.575   5.644 -0.1003  1.7276  0.6299
 3004SOL     OW10879   3.922   8.291   6.590 -0.4729  0.3710 -0.0292
 3004SOL    HW110880   3.846   8.238   6.566 -0.7203  0.7919 -0.1879
 3004SOL    HW210881   3.922   8.362   6.526 -1.7049  2.0703  1.7366
 3005SOL     OW10882   7.287   5.903   2.292 -1.1175  0.4190 -0.4299
 3005SOL    HW110883   7.211   5.859   2.329 -0.7200  0.0948  0.0194
 3005SOL    HW210884   7.274   5.995   2.314 -0.4009  0.1166  1.4503
 3006SOL     OW10885   4.108   2.470   6.745  0.2068 -0.0089 -0.0946
 3006SOL    HW110886   4.053   2.445   6.819  0.8514  1.2735  0.8737
 3006SOL    HW210887   4.172   2.400   6.737  1.5735  0.8669  2.1168
 3007SOL     OW10888   5.945   8.458   0.821  0.2057  0.3067 -0.1310
 3007SOL    HW110889   5.974   8.448   0.911  0.8561 -0.6680 -0.4364
 3007SOL    HW210890   5.990   8.536   0.789  0.3634  0.3621  0.2253
 3008SOL     OW10891   6.537   4.013   3.345 -0.0665  0.1134  0.2551
 3008SOL    HW110892   6.589   4.091   3.328  0.0343  0.4066  1.7735
 3008SOL    HW210893   6.468   4.043   3.405 -0.9026 -0.6550 -0.2984
 3009SOL     OW10894   8.036   1.630   1.506  0.2104 -0.5575 -0.6631
 3009SOL    HW110895   8.065   1.542   1.483 -0.7384 -1.1851  0.3889
 3009SOL    HW210896   8.007   1.669   1.424  1.9398 -0.6940 -1.3728
 3010SOL     OW10897   4.068   8.473   5.521  0.0719 -0.3598 -0.4606
 3010SOL    HW110898   4.134   8.482   5.590  1.8544 -2.2558 -1.8050
 3010SOL    HW210899   4.008   8.546   5.537  1.8784  0.8505  1.4770
 3011SOL     OW10900   5.541   4.028   5.417  0.5076  0.1270  0.0881
 3011SOL    HW110901   5.529   4.078   5.336 -0.1276 -0.9084 -0.4721
 3011SOL    HW210902   5.581   3.946   5.389 -0.0584 -0.3940  0.7693
 3012SOL     OW10903   8.052   8.117   7.298  0.6454  0.0117  0.3410
 3012SOL    HW110904   8.145   8.098   7.285  1.0659  2.2827 -0.4600
 3012SOL    HW210905   8.031   8.079   7.383  1.7676 -2.2287 -0.2955
 3013SOL     OW10906   8.370   4.247   0.095  0.4228  0.1068  0.2504
 3013SOL    HW110907   8.412   4.168   0.129  1.6384  0.3470 -0.6556
 3013SOL    HW210908   8.288   4.216   0.056  0.2361 -0.5054  1.0937
 3014SOL     OW10909   5.031   3.428   7.823 -0.4455 -0.4622 -0.1248
 3014SOL    HW110910   5.058   3.460   7.737 -1.6769 -2.1610 -1.2007
 3014SOL    HW210911   4.985   3.502   7.863  0.8046  0.5894 -0.5766
 3015SOL     OW10912   7.234   0.073   3.540 -0.6256 -0.4473 -0.0396
 3015SOL    HW110913   7.197   0.132   3.475  1.6587 -0.2275 -1.2641
 3015SOL    HW210914   7.263   0.130   3.611 -0.4074 -0.3265 -0.2236
 3016SOL     OW10915   6.875   4.278   7.467  0.2826 -0.2692 -0.4190
 3016SOL    HW110916   6.949   4.339   7.461 -0.0342  0.1571 -0.0830
 3016SOL    HW210917   6.897   4.221   7.540  0.2907 -0.1558 -0.3319
 3017SOL     OW10918   2.203   5.806   0.144 -0.0334 -0.0214  0.0264
 3017SOL    HW110919   2.291   5.829   0.114  0.2426 -0.3376  0.5719
 3017SOL    HW210920   2.216   5.726   0.196 -0.7168 -0.3725 -0.3403
 3018SOL     OW10921   7.973   6.481   1.714  0.4322 -0.1090  0.4816
 3018SOL    HW110922   8.035   6.456   1.782 -0.1571  1.2817  1.5677
 3018SOL    HW210923   8.010   6.444   1.633  1.7395 -0.7889  1.3616
 3019SOL     OW10924   1.327   7.531   8.466  1.2594  0.3751  0.4145
 3019SOL    HW110925   1.244   7.549   8.508  0.8867 -2.3226  0.9661
 3019SOL    HW210926   1.322   7.577   8.382 -1.2503 -0.6201 -0.0399
 3020SOL     OW10927   7.693   0.613   0.567  0.1937  0.5242 -0.0937
 3020SOL    HW110928   7.697   0.675   0.494  1.4097 -0.8407 -1.2402
 3020SOL    HW210929   7.710   0.666   0.645 -0.9410  1.9837 -0.7849
 3021SOL     OW10930   5.761   8.331   7.468  0.3834 -0.5873 -0.1339
 3021SOL    HW110931   5.702   8.376   7.406 -0.0122 -1.1086 -0.1459
 3021SOL    HW210932   5.818   8.279   7.412  1.1030  0.1970 -0.1410
 3022SOL     OW10933   7.048   3.424   1.477 -0.5298 -0.1558 -0.2644
 3022SOL    HW110934   7.026   3.463   1.393 -1.1969 -0.7909 -0.4014
 3022SOL    HW210935   7.143   3.416   1.477 -0.2313  2.5165  0.2552
 3023SOL     OW10936   8.565   0.970   2.103 -0.0959 -0.7561 -0.5480
 3023SOL    HW110937   8.518   0.900   2.149  2.0045 -2.0949 -0.3090
 3023SOL    HW210938   8.533   0.967   2.013 -2.2778  0.0915  0.1439
 3024SOL     OW10939   4.690   3.942   6.046 -0.2025 -0.5075 -0.1136
 3024SOL    HW110940   4.780   3.921   6.071 -0.5113 -0.4747  1.1301
 3024SOL    HW210941   4.692   3.950   5.951  1.0137 -0.9403 -0.1413
 3025SOL     OW10942   8.123   5.283   5.068 -0.0847 -0.0802  0.5644
 3025SOL    HW110943   8.110   5.192   5.039  1.9610 -0.0260 -0.6918
 3025SOL    HW210944   8.120   5.278   5.163 -0.7445 -1.3328  0.4988
 3026SOL     OW10945   2.283   2.704   6.324  0.7061 -0.2437 -0.5208
 3026SOL    HW110946   2.256   2.759   6.250  1.2338  1.3077  0.3956
 3026SOL    HW210947   2.256   2.753   6.401  1.2353 -1.2697  0.3395
 3027SOL     OW10948   0.973   6.096   4.657  0.6051 -0.1323  0.1525
 3027SOL    HW110949   1.000   6.007   4.633  1.2685  0.7075 -2.5495
 3027SOL    HW210950   0.932   6.130   4.578  0.0809  1.8734  1.2374
 3028SOL     OW10951   5.957   4.779   3.258  0.2493 -0.3546 -0.5830
 3028SOL    HW110952   5.869   4.745   3.273  0.7338 -1.6496 -0.5481
 3028SOL    HW210953   5.947   4.874   3.263 -0.6845 -0.5046  2.0750
 3029SOL     OW10954   3.357   5.903   8.293 -0.3136 -0.4230 -0.5906
 3029SOL    HW110955   3.297   5.839   8.255 -1.3312  0.6540 -0.8617
 3029SOL    HW210956   3.340   5.984   8.245  1.0071  0.0483 -0.3217
 3030SOL     OW10957   6.892   4.746   4.332  0.4423 -0.1007  0.6807
 3030SOL    HW110958   6.826   4.761   4.399 -0.2574  0.8115 -0.1728
 3030SOL    HW210959   6.844   4.756   4.249  1.3993 -0.6185  0.0475
 3031SOL     OW10960   8.031   8.585   4.694 -0.2353  0.2926  0.4455
 3031SOL    HW110961   8.093   8.555   4.760  0.1466 -0.0773 -0.0699
 3031SOL    HW210962   7.949   8.542   4.716 -0.1523  0.3128  0.7876
 3032SOL     OW10963   3.016   3.322   3.275  0.6967  0.0540 -0.5249
 3032SOL    HW110964   3.004   3.417   3.285 -0.5914  0.1541 -2.4684
 3032SOL    HW210965   2.933   3.285   3.303  0.5933 -0.3445 -1.3180
 3033SOL     OW10966   5.749   0.243   8.246  0.3869  0.3883  0.0777
 3033SOL    HW110967   5.760   0.336   8.229  2.4357 -0.1555 -1.9867
 3033SOL    HW210968   5.693   0.211   8.176 -1.1957  0.1784  1.3651
 3034SOL     OW10969   7.446   1.439   7.607 -0.1067 -0.1819  0.5256
 3034SOL    HW110970   7.428   1.376   7.676 -1.0584  0.4369  0.8676
 3034SOL    HW210971   7.514   1.496   7.642  0.5182 -0.8099  0.3425
 3035SOL     OW10972   4.396   3.108   1.219  0.1154  0.0342 -0.1339
 3035SOL    HW110973   4.372   3.133   1.308  0.1528  0.9685 -0.3722
 3035SOL    HW210974   4.315   3.077   1.179  0.0029  0.0514  0.0845
 3036SOL     OW10975   0.564   5.888   0.716  0.1150  0.2694 -0.3878
 3036SOL    HW110976   0.611   5.853   0.792  2.2698 -1.4958 -2.3727
 3036SOL    HW210977   0.595   5.979   0.708  2.7792 -0.5988 -1.1467
 3037SOL     OW10978   7.114   3.026   0.020  0.2034 -0.0015 -0.9930
 3037SOL    HW110979   7.077   2.976  -0.053  1.0717 -0.1598 -1.3449
 3037SOL    HW210980   7.199   2.985   0.035 -0.1454 -0.2459  0.4051
 3038SOL     OW10981   3.684   0.714   4.976  0.9776  0.8003 -0.1751
 3038SOL    HW110982   3.767   0.723   5.024  1.1531 -1.0301 -0.0666
 3038SOL    HW210983   3.617   0.713   5.044  0.8935  1.7485 -0.2299
 3039SOL     OW10984   2.033   7.251   0.022  0.1317  0.2958  0.0495
 3039SOL    HW110985   1.955   7.241  -0.034  0.3647  2.5710 -0.7749
 3039SOL    HW210986   2.068   7.162   0.029 -2.8859 -0.9601  1.0162
 3040SOL     OW10987   6.417   3.373   0.358  0.2743  0.5037 -0.4795
 3040SOL    HW110988   6.490   3.315   0.336 -1.1670 -1.3612 -0.6454
 3040SOL    HW210989   6.402   3.425   0.279  1.4246  0.9161 -0.4305
 3041SOL     OW10990   4.294   1.466   0.517  0.0248  0.0649  0.0175
 3041SOL    HW110991   4.298   1.383   0.470  0.9714  1.0725 -1.8185
 3041SOL    HW210992   4.336   1.528   0.458  0.4532  1.6137  1.8607
 3042SOL     OW10993   1.215   0.149   4.132 -0.9915 -0.2194  0.1814
 3042SOL    HW110994   1.287   0.132   4.193 -1.6388  3.6315  2.3412
 3042SOL    HW210995   1.164   0.069   4.133  3.1303 -3.2347 -1.5718
 3043SOL     OW10996   1.927   1.774   3.285  0.4954  0.4485  0.3097
 3043SOL    HW110997   2.020   1.794   3.300  0.1396  1.8608  0.8159
 3043SOL    HW210998   1.894   1.751   3.372  0.3176  0.1802  0.1710
 3044SOL     OW10999   6.778   6.062   1.180  0.1403  0.2552  0.6592
 3044SOL    HW111000   6.725   6.073   1.259 -0.8729 -1.2977  0.2544
 3044SOL    HW211001   6.741   6.124   1.117  0.2021  0.6802  1.0353
 3045SOL     OW11002   5.708   6.648   1.124  0.3494 -0.1091  0.2119
 3045SOL    HW111003   5.762   6.589   1.071  1.9566  0.6236  0.9495
 3045SOL    HW211004   5.770   6.688   1.185 -0.5084  2.7930 -0.6429
 3046SOL     OW11005   4.237   2.729   7.494 -0.4692 -0.7309  0.2194
 3046SOL    HW111006   4.285   2.812   7.496 -1.6382 -0.0582  1.3420
 3046SOL    HW211007   4.263   2.689   7.411  1.8795 -0.3307  0.6914
 3047SOL     OW11008   7.728   1.116   2.687  0.1729 -0.3362 -0.6451
 3047SOL    HW111009   7.644   1.071   2.684 -0.6885  1.2140 -0.9129
 3047SOL    HW211010   7.788   1.057   2.641 -0.6165 -1.7262  0.0333
 3048SOL     OW11011   3.498   4.979   7.980 -0.2124 -0.5471 -0.2176
 3048SOL    HW111012   3.413   4.979   8.025 -0.8684 -1.9785 -1.3712
 3048SOL    HW211013   3.558   4.942   8.045 -0.7579 -0.8220  0.1491
 3049SOL     OW11014   8.361   4.896   8.583 -0.2071  0.2685 -0.1992
 3049SOL    HW111015   8.290   4.834   8.596  0.3583 -0.1026  1.3795
 3049SOL    HW211016   8.318   4.982   8.584 -0.7279  0.0124 -0.1877
 3050SOL     OW11017   5.180   1.712   2.503  0.0230 -0.1552 -0.1000
 3050SOL    HW111018   5.199   1.806   2.512  1.1405 -0.3141 -0.5615
 3050SOL    HW211019   5.093   1.701   2.539  0.0596  0.9934  0.3723
 3051SOL     OW11020   7.489   7.743   7.170  0.0130  0.2511  0.4488
 3051SOL    HW111021   7.418   7.774   7.115 -0.7039 -3.1053 -0.7470
 3051SOL    HW211022   7.569   7.763   7.120 -0.5737 -1.8758 -1.5345
 3052SOL     OW11023   6.826   4.420   8.453  0.2452 -0.0080 -0.4004
 3052SOL    HW111024   6.861   4.505   8.427 -1.1224  0.3264 -1.2277
 3052SOL    HW211025   6.887   4.388   8.519  1.1769  1.2857 -0.6063
 3053SOL     OW11026   7.101   8.018   8.092  0.4484  0.1955 -0.1610
 3053SOL    HW111027   7.047   8.025   8.171 -0.0493 -1.2185 -0.3342
 3053SOL    HW211028   7.076   7.933   8.054  0.6003  0.9024 -1.9086
 3054SOL     OW11029   0.102   1.406   4.357 -0.3238  0.7382  0.1455
 3054SOL    HW111030   0.088   1.358   4.438 -2.2381 -0.6835 -0.9402
 3054SOL    HW211031   0.178   1.363   4.316 -1.1403 -0.4778 -0.1408
 3055SOL     OW11032   8.899   4.213   3.829  0.1038  0.2257 -0.4046
 3055SOL    HW111033   8.884   4.144   3.765 -1.5256 -0.2662  0.4665
 3055SOL    HW211034   8.850   4.288   3.796 -0.8485 -0.0704  0.3188
 3056SOL     OW11035   4.040   3.336   7.595  0.2552 -0.6417 -0.3704
 3056SOL    HW111036   3.984   3.348   7.672 -0.4520  0.3534 -1.0052
 3056SOL    HW211037   4.018   3.249   7.562  0.9735 -1.3076  0.8572
 3057SOL     OW11038   8.580   0.502   2.537  0.1479 -0.1632 -0.0231
 3057SOL    HW111039   8.539   0.585   2.513 -0.7958 -0.5445  0.2463
 3057SOL    HW211040   8.521   0.435   2.504  1.5662 -0.7881 -1.4528
 3058SOL     OW11041   5.742   5.318   0.936  0.0448  0.1840 -0.7062
 3058SOL    HW111042   5.809   5.278   0.882 -1.5151 -3.3127 -0.3178
 3058SOL    HW211043   5.682   5.360   0.874  0.3854 -0.3210 -1.3845
 3059SOL     OW11044   0.510   2.182   6.973  0.5744  0.0808 -0.0112
 3059SOL    HW111045   0.496   2.188   7.068  1.2100  1.3667  0.0213
 3059SOL    HW211046   0.425   2.204   6.935  0.6341  0.7874  0.2544
 3060SOL     OW11047   4.960   1.675   2.029 -0.4518  0.6928  0.2059
 3060SOL    HW111048   4.946   1.767   2.005  0.4067  0.8538  0.2843
 3060SOL    HW211049   4.943   1.673   2.124  0.1878  0.9190  0.3309
 3061SOL     OW11050   2.788   8.719   2.801 -0.4188 -0.6538 -0.6801
 3061SOL    HW111051   2.882   8.702   2.809 -0.1051  0.3438 -1.9090
 3061SOL    HW211052   2.756   8.645   2.749 -0.2329 -0.7566 -0.6506
 3062SOL     OW11053   2.691   3.494   8.107  0.3205 -0.4663  0.0397
 3062SOL    HW111054   2.669   3.408   8.072 -0.1821 -0.5108  0.4692
 3062SOL    HW211055   2.652   3.556   8.044  1.4329 -0.5355 -0.7541
 3063SOL     OW11056   7.595   6.021   2.799 -0.3159 -0.2711  0.2977
 3063SOL    HW111057   7.621   6.020   2.891  3.0182 -0.3199 -0.5109
 3063SOL    HW211058   7.611   6.110   2.770  1.6653 -0.9351 -0.8729
 3064SOL     OW11059   0.734   5.252   3.839  0.0239 -0.2352  0.0617
 3064SOL    HW111060   0.671   5.258   3.911 -0.7997  1.0236 -0.7312
 3064SOL    HW211061   0.708   5.321   3.779  1.5139 -0.4132 -0.8199
 3065SOL     OW11062   2.926   5.143   0.157  0.1079 -1.1287 -0.3428
 3065SOL    HW111063   2.948   5.155   0.065 -1.3659 -0.9383 -0.6936
 3065SOL    HW211064   2.835   5.173   0.164  0.1473 -1.2884  1.1420
 3066SOL     OW11065   1.692   1.610   5.533 -0.2785 -0.0220  0.4580
 3066SOL    HW111066   1.758   1.544   5.513 -0.7858 -0.9448  1.6701
 3066SOL    HW211067   1.614   1.581   5.486 -0.0568  0.6606 -0.3670
 3067SOL     OW11068   6.953   0.520   2.419  0.2603 -0.1071  0.0028
 3067SOL    HW111069   6.944   0.521   2.515  0.4688  1.1408  0.0235
 3067SOL    HW211070   6.873   0.561   2.387  0.5661  0.2606 -0.3100
 3068SOL     OW11071   8.077   8.105   0.473 -0.0828 -0.3501 -0.3344
 3068SOL    HW111072   8.101   8.172   0.409  0.3155 -0.0946  0.0763
 3068SOL    HW211073   8.134   8.122   0.548  1.5525 -2.4035 -1.0041
 3069SOL     OW11074   0.856   4.638   0.059 -0.2944 -0.0152 -0.4461
 3069SOL    HW111075   0.879   4.731   0.061 -0.0538 -0.0814  1.3288
 3069SOL    HW211076   0.904   4.600   0.132  1.1182 -1.9274 -2.2357
 3070SOL     OW11077   5.046   2.523   2.346 -0.4230  0.2145 -0.3114
 3070SOL    HW111078   5.022   2.616   2.347  0.5890  0.6050 -3.2383
 3070SOL    HW211079   5.139   2.522   2.369 -0.7990 -0.3131  1.3603
 3071SOL     OW11080   0.477   3.468   8.168  0.4301 -0.1076 -0.3196
 3071SOL    HW111081   0.507   3.559   8.172 -2.6016  1.1695 -2.3214
 3071SOL    HW211082   0.399   3.466   8.224 -0.2314 -1.0987 -1.2280
 3072SOL     OW11083   0.888   4.650   1.172 -0.5177 -0.0507  0.6612
 3072SOL    HW111084   0.856   4.573   1.126  1.3211  0.0539 -0.9126
 3072SOL    HW211085   0.974   4.624   1.206  0.6320  1.5703 -0.8461
 3073SOL     OW11086   1.594   5.434   0.515  0.0069  0.0705 -0.0901
 3073SOL    HW111087   1.560   5.506   0.567  1.6246  0.6009  0.2857
 3073SOL    HW211088   1.608   5.363   0.578 -2.1266 -0.8296 -0.5477
 3074SOL     OW11089   7.241   7.305   0.154 -0.0583 -0.1939 -0.3675
 3074SOL    HW111090   7.148   7.304   0.129 -0.0159 -0.8339 -0.5153
 3074SOL    HW211091   7.250   7.384   0.207 -0.6272  0.0269 -0.5809
 3075SOL     OW11092   5.169   3.147   3.724 -0.4481  0.7988 -0.3696
 3075SOL    HW111093   5.131   3.092   3.792  0.4124  0.6987  0.0506
 3075SOL    HW211094   5.264   3.135   3.734 -0.2795  1.5895 -0.9129
 3076SOL     OW11095   8.366   4.120   6.456 -0.0718  0.2100  0.0386
 3076SOL    HW111096   8.413   4.047   6.415 -1.5091 -0.1206 -1.0861
 3076SOL    HW211097   8.292   4.079   6.501  0.7114  0.7118  1.8706
 3077SOL     OW11098   6.945   6.821   6.503  0.2237 -0.3411 -0.4116
 3077SOL    HW111099   6.941   6.834   6.408  1.2264  0.0723 -0.4133
 3077SOL    HW211100   6.887   6.888   6.539  1.2256  0.6815 -0.6627
 3078SOL     OW11101   6.751   5.998   5.181 -0.0387 -0.2662  0.2065
 3078SOL    HW111102   6.843   5.996   5.155  0.7449 -2.6251  2.7340
 3078SOL    HW211103   6.748   6.059   5.255 -0.4024 -0.5598  0.4402
 3079SOL     OW11104   3.613   7.314   6.393 -0.0047 -0.5070  0.1699
 3079SOL    HW111105   3.624   7.241   6.455  0.7879 -0.5829 -0.0574
 3079SOL    HW211106   3.702   7.346   6.377 -0.3255  0.3500  0.0693
 3080SOL     OW11107   7.465   6.693   2.633 -0.0504  0.0103 -0.0614
 3080SOL    HW111108   7.414   6.705   2.713 -0.2297 -1.2191  0.0271
 3080SOL    HW211109   7.498   6.781   2.612  0.6542  0.2223  1.7769
 3081SOL     OW11110   0.070   3.404   6.044  0.1536  0.6603  0.5131
 3081SOL    HW111111   0.029   3.490   6.043  2.3505  1.7960 -0.1504
 3081SOL    HW211112   0.065   3.373   5.953 -3.2025 -1.3482  1.2273
 3082SOL     OW11113   5.834   4.676   6.227  0.5484  0.1463 -0.1423
 3082SOL    HW111114   5.880   4.607   6.179  2.1211 -0.7133  2.3791
 3082SOL    HW211115   5.800   4.632   6.305 -0.1463  1.8543  0.5653
 3083SOL     OW11116   5.038   4.362   7.830 -0.2278  0.2281 -0.2098
 3083SOL    HW111117   5.105   4.305   7.866 -0.7256  1.0358  2.1895
 3083SOL    HW211118   5.071   4.451   7.847 -1.1967  0.6261 -0.3596
 3084SOL     OW11119   3.997   5.314   1.556  0.0813 -0.0275  0.1504
 3084SOL    HW111120   4.014   5.387   1.497  0.6587 -0.7431 -0.5940
 3084SOL    HW211121   4.043   5.240   1.516  1.7302 -0.2119  2.2569
 3085SOL     OW11122   7.891   4.084   4.824  0.5717 -0.0414  0.4429
 3085SOL    HW111123   7.834   4.126   4.889  0.0184  0.7983 -0.5340
 3085SOL    HW211124   7.894   3.992   4.849 -3.3960 -0.7443 -0.8652
 3086SOL     OW11125   2.449   0.904   3.882 -0.4671 -0.1514  0.5017
 3086SOL    HW111126   2.477   0.896   3.790  0.7374  1.0263  0.7411
 3086SOL    HW211127   2.361   0.868   3.882 -0.6151  0.0852 -1.1970
 3087SOL     OW11128   3.138   4.918   1.734 -0.2749  0.0502 -0.2757
 3087SOL    HW111129   3.063   4.976   1.720 -0.6225 -0.4645 -0.5572
 3087SOL    HW211130   3.213   4.977   1.739 -0.5699  0.4964 -0.9823
 3088SOL     OW11131   1.585   1.869   6.077 -0.5087  0.3269  0.1644
 3088SOL    HW111132   1.516   1.931   6.051 -1.2780  0.0970  1.5875
 3088SOL    HW211133   1.540   1.785   6.083  0.7840 -0.7553 -3.0562
 3089SOL     OW11134   4.169   2.245   3.804  0.2312  0.6146  0.0336
 3089SOL    HW111135   4.137   2.168   3.757  1.6657 -0.4305  0.6853
 3089SOL    HW211136   4.111   2.251   3.881  1.2254 -1.0021  0.9795
 3090SOL     OW11137   0.555   2.513   8.100 -0.3458 -0.0966  0.7312
 3090SOL    HW111138   0.570   2.607   8.086 -1.8405  0.2965  1.5699
 3090SOL    HW211139   0.544   2.477   8.012  1.4966  0.2418  0.3076
 3091SOL     OW11140   5.291   4.854   5.445  0.8630  0.2479  0.2402
 3091SOL    HW111141   5.328   4.837   5.532 -1.4632  0.7940  1.3995
 3091SOL    HW211142   5.355   4.911   5.403  2.7743 -1.2457  0.9668
 3092SOL     OW11143   6.350   0.692   8.119 -0.4208  0.2799  0.4771
 3092SOL    HW111144   6.313   0.675   8.032  1.0114  2.0990 -0.5680
 3092SOL    HW211145   6.310   0.775   8.146  2.6344  2.2694 -0.6625
 3093SOL     OW11146   7.767   3.877   2.059  0.8271 -0.1720  0.5377
 3093SOL    HW111147   7.696   3.815   2.076  0.4881  0.1820  0.4278
 3093SOL    HW211148   7.763   3.940   2.130 -0.1275  0.8862 -0.4226
 3094SOL     OW11149   2.357   7.928   7.624  0.0202 -0.3809 -0.1170
 3094SOL    HW111150   2.283   7.900   7.677 -0.2840 -1.4482 -1.0609
 3094SOL    HW211151   2.329   7.913   7.533  0.7989  0.7061 -0.5573
 3095SOL     OW11152   5.554   2.735   0.355  0.1134  0.0009 -0.5940
 3095SOL    HW111153   5.597   2.791   0.290 -0.9589 -0.0981 -1.4160
 3095SOL    HW211154   5.585   2.647   0.334  2.0455  0.2668  0.8958
 3096SOL     OW11155   3.962   3.779   5.987 -0.4055 -0.1332  0.0505
 3096SOL    HW111156   3.923   3.850   6.037 -1.1266 -0.8536  0.5374
 3096SOL    HW211157   3.967   3.812   5.897 -1.8195  0.1252  0.0410
 3097SOL     OW11158   0.497   6.441   8.935  0.2435 -0.5034  0.1777
 3097SOL    HW111159   0.464   6.526   8.964 -1.8787 -1.0309 -0.5139
 3097SOL    HW211160   0.533   6.400   9.014 -0.6967  0.1505  0.9578
 3098SOL     OW11161   1.130   7.493   1.150  0.0061  0.3685 -0.0799
 3098SOL    HW111162   1.153   7.530   1.064 -1.4289  1.4022 -0.0368
 3098SOL    HW211163   1.073   7.419   1.129  2.3281 -1.5665 -0.1287
 3099SOL     OW11164   2.715   8.269   3.338 -0.0181  0.2336  0.8093
 3099SOL    HW111165   2.672   8.190   3.371  0.4980  0.3575  1.8332
 3099SOL    HW211166   2.805   8.242   3.322 -0.4702 -0.0987 -1.5864
 3100SOL     OW11167   5.728   4.977   3.427 -0.2753 -0.0489  0.9926
 3100SOL    HW111168   5.673   4.906   3.396 -2.5824  1.7691  0.6933
 3100SOL    HW211169   5.694   4.998   3.514 -1.8554  2.7341 -0.1769
 3101SOL     OW11170   7.927   1.915   1.067 -0.5985  0.0619 -0.1839
 3101SOL    HW111171   7.951   1.910   0.974  0.7997 -1.6105  0.2298
 3101SOL    HW211172   7.989   1.978   1.104  0.0021 -0.5978 -0.0558
 3102SOL     OW11173   7.676   5.926   6.741 -0.2613  0.3747 -0.2126
 3102SOL    HW111174   7.673   5.887   6.828  0.3741  0.6018 -0.0838
 3102SOL    HW211175   7.584   5.939   6.717 -0.4516 -0.3752  0.1086
 3103SOL     OW11176   2.134   5.487   5.077  0.2022  0.1696 -0.4821
 3103SOL    HW111177   2.221   5.491   5.037  1.2801  2.1436  1.8000
 3103SOL    HW211178   2.134   5.405   5.125  1.5309  0.9327  0.9000
 3104SOL     OW11179   1.949   3.482   7.744 -0.3808  0.2760  0.4194
 3104SOL    HW111180   1.856   3.491   7.722 -0.5545 -0.1140  0.9861
 3104SOL    HW211181   1.956   3.397   7.787  0.5282 -0.4666 -1.0788
 3105SOL     OW11182   5.691   6.999   3.104 -0.0161 -0.3305  0.0022
 3105SOL    HW111183   5.770   7.050   3.124  1.3264 -1.8958 -1.0725
 3105SOL    HW211184   5.723   6.921   3.060 -2.2058 -0.9339 -0.6553
 3106SOL     OW11185   2.280   2.756   7.996 -0.3373  0.0162  0.7866
 3106SOL    HW111186   2.220   2.705   8.050  0.3941  0.3947  1.9903
 3106SOL    HW211187   2.248   2.846   8.001  0.8909  0.4028  2.2967
 3107SOL     OW11188   6.914   8.779   3.020  0.5516 -0.3937 -0.2653
 3107SOL    HW111189   6.978   8.851   3.021  1.6699 -1.3105 -1.5851
 3107SOL    HW211190   6.831   8.822   2.999  1.0855  0.5911 -0.4598
 3108SOL     OW11191   7.455   3.022   4.646  0.3623  0.2101 -0.6509
 3108SOL    HW111192   7.450   3.118   4.643 -0.0055  0.2731  0.8919
 3108SOL    HW211193   7.548   3.003   4.661  0.5580  0.2848 -1.7417
 3109SOL     OW11194   1.589   4.085   2.539  0.0273 -0.2975  0.0284
 3109SOL    HW111195   1.662   4.087   2.601 -0.6981 -0.4499  0.9133
 3109SOL    HW211196   1.541   4.167   2.556 -1.9201 -1.6858  1.8935
 3110SOL     OW11197   1.270   5.243   2.828  0.1401 -0.3090 -0.0591
 3110SOL    HW111198   1.351   5.294   2.837  1.3310 -1.6169 -2.4384
 3110SOL    HW211199   1.294   5.155   2.858 -0.1174 -0.9138 -1.5548
 3111SOL     OW11200   7.719   5.944   0.061  0.1207  0.0879  0.0169
 3111SOL    HW111201   7.722   5.853   0.092  0.3431  0.2120  0.3647
 3111SOL    HW211202   7.802   5.957   0.015  1.0312  0.7219  1.7221
 3112SOL     OW11203   6.624   1.226   3.459  0.2795  0.5469  0.1223
 3112SOL    HW111204   6.659   1.315   3.468 -1.1973  1.2818 -0.8775
 3112SOL    HW211205   6.532   1.235   3.483  0.1750 -0.7890  0.2740
 3113SOL     OW11206   8.217   0.309   5.181  0.2467 -0.0650 -0.0220
 3113SOL    HW111207   8.194   0.221   5.209  4.0348 -0.6711  1.8809
 3113SOL    HW211208   8.133   0.354   5.170 -1.9893 -4.2553 -2.9099
 3114SOL     OW11209   2.235   5.787   3.231 -0.1798  0.1404  0.2615
 3114SOL    HW111210   2.268   5.835   3.155  0.0829  0.1504  0.3811
 3114SOL    HW211211   2.150   5.753   3.203 -0.0688  0.1162 -0.0470
 3115SOL     OW11212   2.643   6.132   1.065  0.2289  0.3890 -0.2716
 3115SOL    HW111213   2.664   6.141   0.972  0.5147  1.4673 -0.1162
 3115SOL    HW211214   2.726   6.107   1.106  0.1843  0.2548 -0.2644
 3116SOL     OW11215   7.722   5.987   5.057  0.2222 -0.5304 -0.5732
 3116SOL    HW111216   7.689   5.988   4.968 -1.1071  2.3079 -0.1577
 3116SOL    HW211217   7.815   6.012   5.049  0.2502 -0.8170 -1.1776
 3117SOL     OW11218   6.410   5.568   7.129 -0.1662 -0.4502  0.3827
 3117SOL    HW111219   6.464   5.489   7.136 -0.8074 -0.8016  1.5775
 3117SOL    HW211220   6.459   5.635   7.177  0.6968  0.1032 -1.1703
 3118SOL     OW11221   3.137   7.649   5.740  0.2121  0.5629  0.0575
 3118SOL    HW111222   3.204   7.583   5.722  0.3846  0.5831  0.6141
 3118SOL    HW211223   3.057   7.612   5.702 -0.1111 -0.8601  1.9422
 3119SOL     OW11224   4.805   0.513   4.319  0.2831  0.0658  0.3201
 3119SOL    HW111225   4.713   0.489   4.332  0.1587 -0.9675 -1.9648
 3119SOL    HW211226   4.810   0.605   4.347 -0.7350 -0.6644  3.1744
 3120SOL     OW11227   6.198   8.159   2.283 -0.4995  0.7457 -0.0019
 3120SOL    HW111228   6.282   8.154   2.329 -1.0269  0.9690  1.0194
 3120SOL    HW211229   6.132   8.163   2.353 -1.5072 -1.3358 -0.7264
 3121SOL     OW11230   2.097   4.058   5.936 -0.7326 -0.7388 -0.0241
 3121SOL    HW111231   2.036   4.115   5.983 -1.8357  0.0308 -2.2441
 3121SOL    HW211232   2.060   3.971   5.945 -2.0669 -0.3166 -1.1225
 3122SOL     OW11233   5.706   8.195   6.631 -0.3676 -0.0411  0.1519
 3122SOL    HW111234   5.660   8.241   6.560  0.7339  0.7138 -0.0903
 3122SOL    HW211235   5.799   8.205   6.610  0.0023  0.5388  1.9126
 3123SOL     OW11236   5.374   6.028   4.337 -0.6618  0.5818 -0.0122
 3123SOL    HW111237   5.445   5.997   4.280 -0.3749 -0.9091  1.0979
 3123SOL    HW211238   5.419   6.079   4.405 -0.8738  1.2408 -0.3534
 3124SOL     OW11239   5.875   3.185   0.369  0.2273  0.1887 -0.4880
 3124SOL    HW111240   5.821   3.207   0.445  0.2931 -0.2775 -0.3021
 3124SOL    HW211241   5.906   3.097   0.387  1.9326  0.8256 -0.0799
 3125SOL     OW11242   0.361   2.669   6.083 -0.3790  0.7115  0.6813
 3125SOL    HW111243   0.303   2.645   6.011  0.2010  0.6038  0.2429
 3125SOL    HW211244   0.402   2.750   6.054  0.3253  0.3359  0.6195
 3126SOL     OW11245   6.563   0.018   4.935  0.4903 -0.1943  0.0446
 3126SOL    HW111246   6.508   0.096   4.944 -0.7935 -0.9855 -0.7211
 3126SOL    HW211247   6.626   0.040   4.866 -0.2249 -0.0270 -0.5613
 3127SOL     OW11248   6.119   5.076   0.709  0.1016 -0.5145 -0.6648
 3127SOL    HW111249   6.147   5.062   0.800  0.2839 -1.6181 -0.8769
 3127SOL    HW211250   6.180   5.024   0.657  0.5382  0.7927 -1.5080
 3128SOL     OW11251   6.109   7.708   2.053 -0.3042  0.1672 -0.1688
 3128SOL    HW111252   6.056   7.640   2.094  0.6163 -0.0703  0.6760
 3128SOL    HW211253   6.094   7.697   1.959 -1.4088 -0.1539  0.0249
 3129SOL     OW11254   5.030   0.310   3.217  0.3702 -0.5553 -0.1544
 3129SOL    HW111255   5.096   0.245   3.242 -1.3103 -2.1195  0.3499
 3129SOL    HW211256   5.062   0.392   3.256  1.0528 -1.6652  1.7682
 3130SOL     OW11257   1.485   2.397   0.382  0.4120 -0.6197  0.4529
 3130SOL    HW111258   1.402   2.444   0.385  0.8056  0.0656  1.2679
 3130SOL    HW211259   1.525   2.415   0.468  0.7763 -2.0885  0.6041
 3131SOL     OW11260   3.772   4.971   5.140 -0.6976 -0.2208 -0.3402
 3131SOL    HW111261   3.678   4.956   5.137 -0.6549 -0.2667 -2.4078
 3131SOL    HW211262   3.802   4.960   5.050  1.3042 -0.2425  0.2751
 3132SOL     OW11263   2.828   2.783   5.952 -0.3799 -0.3501 -0.0310
 3132SOL    HW111264   2.841   2.737   6.035  1.3483  0.1421  0.0051
 3132SOL    HW211265   2.917   2.802   5.921 -1.0181  0.5143 -1.4168
 3133SOL     OW11266   5.163   7.224   1.568  0.0922 -0.2927  0.3350
 3133SOL    HW111267   5.081   7.245   1.522 -1.1714  1.7016  3.1752
 3133SOL    HW211268   5.228   7.283   1.530  0.2655 -1.7398 -1.7981
 3134SOL     OW11269   4.035   7.851   6.852  0.0241  0.3148 -0.1178
 3134SOL    HW111270   4.067   7.762   6.840  1.9678  1.0698 -0.8742
 3134SOL    HW211271   3.973   7.864   6.780  0.1441 -0.2305 -0.3292
 3135SOL     OW11272   2.883   3.583   2.139 -0.3232 -0.6665 -0.0842
 3135SOL    HW111273   2.880   3.668   2.096 -0.9185 -0.9860 -0.7096
 3135SOL    HW211274   2.793   3.569   2.171  0.0175 -0.6089  0.9312
 3136SOL     OW11275   7.949   6.798   0.437 -0.0850  0.1570 -0.2701
 3136SOL    HW111276   7.854   6.804   0.444 -0.2243 -2.3964  1.2188
 3136SOL    HW211277   7.964   6.767   0.347 -0.7723 -0.8957 -0.0304
 3137SOL     OW11278   6.128   3.880   3.605  0.1998 -0.2672 -0.3505
 3137SOL    HW111279   6.197   3.824   3.642 -0.6201 -0.4992  0.8661
 3137SOL    HW211280   6.116   3.848   3.516 -0.0377 -1.8409  0.2264
 3138SOL     OW11281   2.958   8.005   7.407 -0.0144 -0.4935  0.1129
 3138SOL    HW111282   3.011   8.011   7.327  0.9252  0.6021  0.7938
 3138SOL    HW211283   3.019   8.028   7.477 -0.6760 -1.9958  1.2225
 3139SOL     OW11284   2.406   0.323   5.082  0.0577  0.4106  0.1446
 3139SOL    HW111285   2.359   0.242   5.061 -1.8044  1.2671  0.8102
 3139SOL    HW211286   2.404   0.327   5.178  3.4333 -0.5803  0.3624
 3140SOL     OW11287   6.733   8.593   5.552  0.5778  0.5851 -0.2656
 3140SOL    HW111288   6.706   8.503   5.534  1.1824  0.7281 -2.0531
 3140SOL    HW211289   6.762   8.627   5.467  3.0562  1.5437  0.8710
 3141SOL     OW11290   6.407   6.255   0.424 -0.1107  0.1331 -0.2402
 3141SOL    HW111291   6.465   6.187   0.389 -0.0895 -0.3563  0.7166
 3141SOL    HW211292   6.466   6.327   0.446  0.1004 -0.2064  0.3446
 3142SOL     OW11293   7.542   8.873   7.617 -0.0354 -0.6489 -0.6119
 3142SOL    HW111294   7.591   8.838   7.542 -0.1590 -0.0690 -0.9741
 3142SOL    HW211295   7.538   8.967   7.600 -0.9790 -0.6485 -0.4123
 3143SOL     OW11296   4.938   5.718   2.147  0.0164  0.5318  0.1068
 3143SOL    HW111297   4.867   5.773   2.114 -0.3048 -0.9138 -1.7767
 3143SOL    HW211298   4.994   5.779   2.195 -3.0933  1.5145  2.8642
 3144SOL     OW11299   2.870   4.831   0.984  0.9831  0.3672  0.7466
 3144SOL    HW111300   2.943   4.877   1.024  1.1040  0.4336  0.4466
 3144SOL    HW211301   2.886   4.739   1.004  0.5588  0.4762  1.6463
 3145SOL     OW11302   7.919   1.429   2.445 -0.3409  0.0479  0.3236
 3145SOL    HW111303   7.859   1.456   2.515 -1.5268 -2.0896  0.2147
 3145SOL    HW211304   8.002   1.410   2.489 -0.0977  1.7549  0.6602
 3146SOL     OW11305   1.016   8.422   0.070 -0.1004 -0.0659  0.1716
 3146SOL    HW111306   0.979   8.356   0.129  1.0965 -0.6830  0.2516
 3146SOL    HW211307   1.000   8.505   0.115 -1.7072 -0.2574  0.0232
 3147SOL     OW11308   7.738   0.060   4.570  0.3493  0.1226 -0.2823
 3147SOL    HW111309   7.762  -0.033   4.564 -0.8777 -0.1971 -0.7057
 3147SOL    HW211310   7.799   0.097   4.634  1.3660 -0.7943 -0.6843
 3148SOL     OW11311   6.647   2.664   0.542  0.2170 -0.2265 -0.1978
 3148SOL    HW111312   6.695   2.585   0.515 -0.9021 -1.8657  2.2711
 3148SOL    HW211313   6.715   2.722   0.576  0.7344 -1.6325  1.2697
 3149SOL     OW11314   3.095   7.893   2.079 -0.4929  0.3234  0.4933
 3149SOL    HW111315   3.152   7.928   2.147 -0.4587  1.4439 -0.0912
 3149SOL    HW211316   3.022   7.954   2.074  0.1748  1.0527 -1.3923
 3150SOL     OW11317   2.015   8.516   5.559  0.1957 -0.2955  0.1775
 3150SOL    HW111318   1.932   8.480   5.529  0.5920 -2.3755  1.3459
 3150SOL    HW211319   2.007   8.519   5.654  1.1730  0.2389  0.2609
 3151SOL     OW11320   5.281   1.781   2.814 -0.2347  0.0764 -0.6139
 3151SOL    HW111321   5.330   1.715   2.863  0.8296  2.0966  1.2301
 3151SOL    HW211322   5.288   1.753   2.723  0.4866 -2.1248  0.0640
 3152SOL     OW11323   0.506   1.924   3.165  0.4343 -0.0003 -0.8754
 3152SOL    HW111324   0.585   1.919   3.218  1.1963 -0.7725 -2.0443
 3152SOL    HW211325   0.515   2.006   3.117 -0.1852  0.6259  0.0509
 3153SOL     OW11326   7.845   4.210   1.186 -0.3047  0.0673 -0.3449
 3153SOL    HW111327   7.866   4.124   1.223 -1.8610 -0.0909  0.2809
 3153SOL    HW211328   7.900   4.271   1.235 -0.0382 -0.4655  0.0314
 3154SOL     OW11329   1.087   3.487   7.604  0.1109 -0.0014 -0.3515
 3154SOL    HW111330   1.000   3.447   7.595 -0.4919  0.9301  0.9454
 3154SOL    HW211331   1.131   3.433   7.671  0.0284  0.3124 -0.0415
 3155SOL     OW11332   7.001   2.657   1.721  0.5512  0.2439  0.1076
 3155SOL    HW111333   7.001   2.600   1.645  0.1838  0.8271 -0.3386
 3155SOL    HW211334   6.971   2.742   1.688  1.1379  0.7145  0.7446
 3156SOL     OW11335   3.264   8.980   6.422  0.0701 -0.1260 -0.2259
 3156SOL    HW111336   3.231   9.050   6.479  1.7387  0.2835  0.3005
 3156SOL    HW211337   3.296   9.026   6.344 -1.3909 -0.6036 -1.1423
 3157SOL     OW11338   0.667   4.160   0.751  0.1961  0.1328 -0.1145
 3157SOL    HW111339   0.629   4.247   0.762  1.2261  0.4348  1.1821
 3157SOL    HW211340   0.739   4.156   0.814  1.9702 -0.6372 -2.0488
 3158SOL     OW11341   3.631   7.066   4.787  0.4453 -0.1709  0.4480
 3158SOL    HW111342   3.564   7.008   4.824 -0.5228 -0.7331 -1.9884
 3158SOL    HW211343   3.590   7.152   4.789  0.6438 -0.0806  1.1660
 3159SOL     OW11344   6.341   5.127   0.311 -0.4050 -0.1378 -0.0675
 3159SOL    HW111345   6.410   5.193   0.304 -0.7652  0.3681  0.9560
 3159SOL    HW211346   6.388   5.046   0.333 -0.1709  0.3859  1.5015
 3160SOL     OW11347   3.922   3.688   3.733 -0.3069 -0.0501  0.0011
 3160SOL    HW111348   3.867   3.738   3.793 -0.1960  1.2641 -0.9495
 3160SOL    HW211349   3.994   3.657   3.787  0.5479  2.2901  0.3244
 3161SOL     OW11350   0.352   7.656   7.167  0.3276  0.4979 -0.2197
 3161SOL    HW111351   0.349   7.717   7.093 -0.4529  0.3656 -0.3080
 3161SOL    HW211352   0.369   7.571   7.128  0.0844  0.4552 -0.2374
 3162SOL     OW11353   4.884   8.630   1.028 -0.2633  0.9437  0.0994
 3162SOL    HW111354   4.836   8.709   1.005 -1.5115  0.2044  0.1189
 3162SOL    HW211355   4.914   8.595   0.945 -0.8830  0.7079 -0.0265
 3163SOL     OW11356   4.652   0.732   8.406  0.1619  0.2572 -0.2076
 3163SOL    HW111357   4.653   0.785   8.485  0.9400 -2.2552  1.5909
 3163SOL    HW211358   4.709   0.779   8.345  2.1659  0.7065  1.8714
 3164SOL     OW11359   8.557   0.646   1.237 -0.1244  0.2504 -0.0881
 3164SOL    HW111360   8.567   0.720   1.177  1.4288  2.4534  2.6177
 3164SOL    HW211361   8.642   0.602   1.237  0.4529  1.2582  1.5515
 3165SOL     OW11362   1.754   1.249   3.746  0.5763  0.2750  0.5405
 3165SOL    HW111363   1.772   1.331   3.699 -0.3757 -0.7947 -1.8503
 3165SOL    HW211364   1.839   1.224   3.782  0.9373  2.1604  1.1269
 3166SOL     OW11365   3.302   8.423   4.009  0.5034  0.4271 -0.0159
 3166SOL    HW111366   3.385   8.394   4.048  0.5579 -0.5694 -0.8453
 3166SOL    HW211367   3.321   8.432   3.916 -0.4864 -0.4148 -0.3104
 3167SOL     OW11368   7.013   5.665   1.725  0.4423  0.3255 -0.2136
 3167SOL    HW111369   6.953   5.613   1.670 -0.1828  0.3111  0.4659
 3167SOL    HW211370   7.076   5.601   1.757  0.2395  0.1590 -0.1418
 3168SOL     OW11371   0.813   6.748   3.208  0.4968  0.0870 -0.3199
 3168SOL    HW111372   0.804   6.838   3.176 -1.3335 -0.2539 -0.8311
 3168SOL    HW211373   0.781   6.693   3.137 -2.3553 -0.7593  1.4732
 3169SOL     OW11374   7.870   3.472   2.822 -0.3650 -0.3427  0.1299
 3169SOL    HW111375   7.864   3.541   2.888 -0.2721  0.7706 -0.9884
 3169SOL    HW211376   7.898   3.518   2.743 -0.9642 -1.5637 -0.8074
 3170SOL     OW11377   8.939   7.904   8.889 -0.7078  0.4891  0.1710
 3170SOL    HW111378   8.954   7.987   8.843 -0.0320  0.9658  1.2084
 3170SOL    HW211379   8.924   7.840   8.819  0.6515  1.1058 -0.7340
 3171SOL     OW11380   5.536   2.332   0.842 -0.3221  0.5169 -0.7793
 3171SOL    HW111381   5.492   2.415   0.859 -0.9907  0.1587 -0.7550
 3171SOL    HW211382   5.557   2.335   0.748  0.9315  1.3120 -0.5040
 3172SOL     OW11383   3.403   4.169   3.380 -0.2056  0.0503 -0.1261
 3172SOL    HW111384   3.308   4.180   3.379 -0.4252 -1.1768 -3.0645
 3172SOL    HW211385   3.437   4.257   3.362 -0.9451  0.0251 -1.7824
 3173SOL     OW11386   4.710   6.621   0.735 -0.3874 -0.1213 -0.0345
 3173SOL    HW111387   4.710   6.586   0.824  1.0699  0.2887  0.1550
 3173SOL    HW211388   4.618   6.632   0.713 -0.8739 -2.8701  0.3495
 3174SOL     OW11389   5.233   5.729   2.874  0.0556 -0.1845 -0.0760
 3174SOL    HW111390   5.309   5.670   2.872  0.6251  0.5483 -1.2144
 3174SOL    HW211391   5.266   5.809   2.916 -0.6300 -0.5286  1.1792
 3175SOL     OW11392   7.020   1.900   8.976 -0.1413 -0.1123  0.1665
 3175SOL    HW111393   6.984   1.817   9.008  1.4248 -1.4646 -1.3714
 3175SOL    HW211394   6.955   1.932   8.914  0.2447 -1.3944 -0.9419
 3176SOL     OW11395   3.779   0.155   2.226  0.1018 -0.3653  0.2701
 3176SOL    HW111396   3.797   0.244   2.198  1.0103 -0.6472 -0.0940
 3176SOL    HW211397   3.859   0.128   2.271 -0.5153 -0.6754  1.2163
 3177SOL     OW11398   2.292   4.301   3.385  0.3590  0.0831 -0.1651
 3177SOL    HW111399   2.206   4.344   3.384  0.2243 -0.1535  0.5297
 3177SOL    HW211400   2.342   4.346   3.317 -0.0954  0.6805 -0.1156
 3178SOL     OW11401   7.838   3.283   3.507 -0.1313 -0.5450 -0.0430
 3178SOL    HW111402   7.886   3.279   3.424 -0.0393 -1.0662  0.0298
 3178SOL    HW211403   7.773   3.352   3.494 -0.4523 -0.9608 -0.7417
 3179SOL     OW11404   7.562   0.186   6.756 -0.1580  0.3080 -0.7517
 3179SOL    HW111405   7.488   0.233   6.793 -1.1051  0.4279 -2.6456
 3179SOL    HW211406   7.535   0.094   6.754  0.1297  0.2163 -0.5990
 3180SOL     OW11407   3.997   5.164   2.988  0.2333 -0.1631 -0.4505
 3180SOL    HW111408   4.038   5.250   2.980  3.1324 -1.2841  0.9260
 3180SOL    HW211409   3.984   5.152   3.083 -0.4093 -1.1348 -0.6404
 3181SOL     OW11410   8.230   4.210   4.039  0.0053 -0.6759 -0.0904
 3181SOL    HW111411   8.258   4.261   4.115  1.7371 -1.5728 -0.0739
 3181SOL    HW211412   8.154   4.161   4.069 -1.9373  2.0805 -0.2110
 3182SOL     OW11413   8.994   1.741   8.673  0.0956  0.1376  0.3636
 3182SOL    HW111414   9.045   1.693   8.608  0.8322  0.2718  0.8328
 3182SOL    HW211415   9.060   1.780   8.731 -0.4934  1.3627  0.2391
 3183SOL     OW11416   6.848   6.444   6.039  0.2561  0.2122 -0.1992
 3183SOL    HW111417   6.912   6.428   6.109 -0.1647  0.3934  0.2315
 3183SOL    HW211418   6.780   6.379   6.054  1.2256 -1.2648 -1.7922
 3184SOL     OW11419   7.686   0.170   4.907  0.0593 -0.2942 -0.4360
 3184SOL    HW111420   7.779   0.148   4.896  0.1720  0.3029 -0.6802
 3184SOL    HW211421   7.682   0.214   4.992 -0.2591 -1.7363  0.3296
 3185SOL     OW11422   3.892   7.751   0.114 -0.1946  0.5985  0.1336
 3185SOL    HW111423   3.970   7.805   0.129  0.6666 -0.4804 -0.3447
 3185SOL    HW211424   3.844   7.756   0.197  1.8335 -1.0276  1.5181
 3186SOL     OW11425   4.478   3.999   4.316 -0.2553 -0.1818 -0.4150
 3186SOL    HW111426   4.446   4.012   4.226 -0.9625 -0.8824 -0.2763
 3186SOL    HW211427   4.550   3.937   4.307 -0.5807 -0.5620 -0.4723
 3187SOL     OW11428   5.007   3.814   4.391  0.1301  0.4532  0.4306
 3187SOL    HW111429   5.005   3.729   4.349 -2.5196  0.4205  0.4471
 3187SOL    HW211430   4.984   3.797   4.482  0.4869  1.1004  0.6525
 3188SOL     OW11431   2.260   3.919   3.227 -0.0100 -0.2328  0.0277
 3188SOL    HW111432   2.351   3.951   3.221  0.3101 -0.3872  2.7017
 3188SOL    HW211433   2.268   3.824   3.227 -0.1592 -0.2465  0.3015
 3189SOL     OW11434   6.583   8.371   5.518 -0.0466 -0.0983 -0.2155
 3189SOL    HW111435   6.575   8.284   5.479  0.5623  0.7365 -2.3388
 3189SOL    HW211436   6.523   8.370   5.593 -0.0230 -2.3263 -0.1781
 3190SOL     OW11437   5.531   2.288   8.367  0.2108  0.3153  0.1590
 3190SOL    HW111438   5.609   2.254   8.324  1.2735  0.9198  1.5230
 3190SOL    HW211439   5.509   2.368   8.320 -0.0551 -0.2589 -0.7063
 3191SOL     OW11440   7.540   0.566   4.954  0.2392 -0.3778  0.2034
 3191SOL    HW111441   7.486   0.553   5.032 -1.3653  0.0550 -0.7754
 3191SOL    HW211442   7.477   0.586   4.885  1.4977 -2.0226 -1.5175
 3192SOL     OW11443   3.762   0.933   3.046 -0.2213 -0.2861  0.2052
 3192SOL    HW111444   3.814   1.013   3.050 -0.4026 -0.1873  0.7335
 3192SOL    HW211445   3.816   0.866   3.088 -1.2603  0.2540  2.5914
 3193SOL     OW11446   8.159   7.277   7.222 -0.0899  0.4771 -0.0442
 3193SOL    HW111447   8.085   7.314   7.271  0.6547  0.5665  1.0581
 3193SOL    HW211448   8.235   7.290   7.280  0.6558 -0.3238 -0.8079
 3194SOL     OW11449   7.098   8.352   6.063 -0.2326  0.8634  0.2472
 3194SOL    HW111450   7.107   8.281   6.127 -0.1062  0.1014 -0.5898
 3194SOL    HW211451   7.170   8.338   6.002 -1.9870 -0.1955 -1.7087
 3195SOL     OW11452   3.925   2.560   2.140  0.1790 -0.6065 -0.1154
 3195SOL    HW111453   3.902   2.548   2.232 -0.1946 -1.1265 -0.2713
 3195SOL    HW211454   3.894   2.481   2.097 -0.5723  0.0770 -0.8605
 3196SOL     OW11455   6.946   5.674   4.612  0.2641 -0.1749  1.0821
 3196SOL    HW111456   6.870   5.652   4.666  0.0006  0.5438  1.0035
 3196SOL    HW211457   6.977   5.757   4.647 -0.8698  1.1502 -0.8577
 3197SOL     OW11458   0.157   0.556   6.700  0.0358 -0.4722 -0.0223
 3197SOL    HW111459   0.162   0.629   6.638  3.4111  0.2662  0.8833
 3197SOL    HW211460   0.127   0.482   6.647 -0.6945  0.9181 -1.6631
 3198SOL     OW11461   1.443   5.902   8.224 -0.3189  0.3743 -0.0240
 3198SOL    HW111462   1.417   5.978   8.276 -3.7320 -0.9059  0.4141
 3198SOL    HW211463   1.418   5.827   8.278 -2.1823 -1.0056 -2.5951
 3199SOL     OW11464   8.055   0.480   1.014 -0.7582 -0.1898  0.2563
 3199SOL    HW111465   7.985   0.437   0.964 -0.2365 -2.4942  1.3621
 3199SOL    HW211466   8.133   0.428   0.995  0.8341  2.5551 -1.2646
 3200SOL     OW11467   0.862   5.723   8.001 -0.0653 -0.8446 -0.4828
 3200SOL    HW111468   0.887   5.793   8.061 -0.8435  1.0447 -2.2467
 3200SOL    HW211469   0.945   5.689   7.967  0.3829 -1.8892  1.5029
 3201SOL     OW11470   0.703   6.260   4.088  0.0690 -0.3129 -0.1021
 3201SOL    HW111471   0.748   6.324   4.144  0.2475  0.1039 -0.7162
 3201SOL    HW211472   0.660   6.201   4.150  1.7810 -0.9749  0.5208
 3202SOL     OW11473   6.614   0.986   1.788 -0.1630  0.5066 -0.0139
 3202SOL    HW111474   6.696   0.998   1.837 -1.4118 -0.8743  2.6476
 3202SOL    HW211475   6.614   0.894   1.762 -1.5797  0.0134  1.5603
 3203SOL     OW11476   6.144   1.677   7.950  0.7692  0.0158 -0.3077
 3203SOL    HW111477   6.151   1.626   8.031 -0.6804 -1.5218 -1.0832
 3203SOL    HW211478   6.099   1.757   7.976  1.2693  0.0297  0.5812
 3204SOL     OW11479   6.114   1.013   2.563  0.5200  0.6559  0.2025
 3204SOL    HW111480   6.074   0.943   2.512  0.9321  0.1835  0.5216
 3204SOL    HW211481   6.200   0.980   2.587  0.0774  0.5573  1.8141
 3205SOL     OW11482   6.692   0.620   2.305  0.2575 -0.5374 -0.2490
 3205SOL    HW111483   6.709   0.684   2.236 -0.5480 -0.0778 -0.0344
 3205SOL    HW211484   6.605   0.642   2.337  1.4020  0.5331  2.3183
 3206SOL     OW11485   0.565   1.704   7.191 -0.3720 -0.0785 -0.5728
 3206SOL    HW111486   0.624   1.779   7.201  0.4128 -0.7559  0.0564
 3206SOL    HW211487   0.570   1.683   7.097 -0.4785  0.5615 -0.7240
 3207SOL     OW11488   0.940   5.616   2.644 -0.0664  0.3741 -0.0461
 3207SOL    HW111489   0.960   5.523   2.648 -0.3381  0.3035 -0.2654
 3207SOL    HW211490   0.872   5.623   2.577 -1.4191  0.4998  1.2865
 3208SOL     OW11491   7.055   1.269   0.571 -0.3673 -0.7856  0.3813
 3208SOL    HW111492   7.059   1.281   0.666  1.1551 -1.6017  0.4517
 3208SOL    HW211493   7.107   1.190   0.555 -2.2216 -1.7987 -0.9479
 3209SOL     OW11494   2.589   1.622   1.572 -0.3855 -0.1145  0.5986
 3209SOL    HW111495   2.669   1.625   1.519 -1.7316 -0.8499 -1.5738
 3209SOL    HW211496   2.599   1.694   1.634  1.1300  1.0211 -0.8728
 3210SOL     OW11497   2.571   3.261   5.376 -0.1801  0.0008  0.1025
 3210SOL    HW111498   2.648   3.231   5.328  0.3132  0.7863  0.3893
 3210SOL    HW211499   2.503   3.272   5.309  0.7432  1.9014 -0.5803
 3211SOL     OW11500   2.267   1.668   3.977 -0.3806  0.3826  0.2073
 3211SOL    HW111501   2.195   1.624   4.022 -0.0244 -1.6470 -1.0972
 3211SOL    HW211502   2.343   1.613   3.993  1.3302  3.1648  2.6871
 3212SOL     OW11503   4.048   0.550   6.658  0.0161 -0.7884 -0.1757
 3212SOL    HW111504   4.079   0.624   6.606  1.1119 -1.4725 -0.5312
 3212SOL    HW211505   4.007   0.590   6.735  1.2285  0.1810 -0.0024
 3213SOL     OW11506   8.064   8.087   4.258 -0.1408  0.4467  0.1264
 3213SOL    HW111507   8.066   8.117   4.349  0.0157  1.6794 -0.2540
 3213SOL    HW211508   7.971   8.084   4.236 -0.1810  0.0743  0.3489
 3214SOL     OW11509   8.231   7.293   8.493  0.2957 -0.2726 -0.0465
 3214SOL    HW111510   8.290   7.221   8.514  0.5016 -0.2731 -0.6208
 3214SOL    HW211511   8.231   7.347   8.572  1.2164 -0.1722 -0.1038
 3215SOL     OW11512   3.647   5.432   2.166  0.1761 -0.3770  0.1016
 3215SOL    HW111513   3.566   5.383   2.182 -1.0409  1.5778  0.2873
 3215SOL    HW211514   3.695   5.379   2.102 -1.6691 -1.1743 -0.7085
 3216SOL     OW11515   8.836   7.570   2.932  0.0325  0.4177 -0.2674
 3216SOL    HW111516   8.749   7.556   2.896 -1.1953  0.2784  2.5187
 3216SOL    HW211517   8.825   7.564   3.026  3.2893 -0.9109  0.1848
 3217SOL     OW11518   6.941   7.774   0.817  0.1044  0.1831 -0.0069
 3217SOL    HW111519   6.956   7.852   0.872  1.1915  1.2388 -1.7196
 3217SOL    HW211520   6.901   7.711   0.877  1.1722  1.2827  1.9868
 3218SOL     OW11521   7.892   0.813   1.796  0.4346 -0.4774  0.2144
 3218SOL    HW111522   7.807   0.803   1.754  0.5619 -1.6426  0.1931
 3218SOL    HW211523   7.928   0.893   1.759 -0.3068 -0.4072 -0.3784
 3219SOL     OW11524   0.817   4.392   8.014  0.1404 -0.4858 -0.2135
 3219SOL    HW111525   0.782   4.457   7.953 -0.0731  1.1631  1.5453
 3219SOL    HW211526   0.783   4.419   8.099  1.1019 -2.1931  0.7588
 3220SOL     OW11527   3.299   0.166   3.090 -0.0095  0.1901  0.1975
 3220SOL    HW111528   3.316   0.137   3.180 -0.0760 -0.1090  0.1144
 3220SOL    HW211529   3.218   0.122   3.065 -1.0259  1.7352  0.6464
 3221SOL     OW11530   4.610   3.035   1.051 -0.4970  0.2041 -0.4591
 3221SOL    HW111531   4.605   3.081   0.967  0.7861 -2.8837 -2.3677
 3221SOL    HW211532   4.549   3.083   1.108 -2.2474  1.7881 -3.4391
 3222SOL     OW11533   1.213   2.493   3.764 -0.4552  0.2387 -0.5598
 3222SOL    HW111534   1.282   2.528   3.708 -1.1352  2.1080 -0.3024
 3222SOL    HW211535   1.260   2.459   3.841  0.1857  4.2460  1.0979
 3223SOL     OW11536   8.757   8.173   2.047 -0.1091 -0.7736 -0.2645
 3223SOL    HW111537   8.717   8.259   2.048  0.3568 -0.5556  0.5499
 3223SOL    HW211538   8.843   8.187   2.006  0.4384 -0.6112  0.8898
 3224SOL     OW11539   3.789   3.288   1.825 -0.1712 -0.4313  0.0290
 3224SOL    HW111540   3.796   3.273   1.919 -0.3086  0.5483  0.2057
 3224SOL    HW211541   3.830   3.373   1.811 -0.7929 -0.2348 -0.6834
 3225SOL     OW11542   5.872   4.970   2.363  0.2667 -0.3821 -0.3041
 3225SOL    HW111543   5.916   4.894   2.323  0.5924 -0.0843 -0.5182
 3225SOL    HW211544   5.873   4.951   2.457 -0.0862 -0.8690 -0.3918
 3226SOL     OW11545   2.806   3.004   0.412 -0.4721 -0.3697  0.3441
 3226SOL    HW111546   2.788   3.094   0.385  0.2714 -0.0157  1.0038
 3226SOL    HW211547   2.772   2.951   0.340  1.1657  0.5327 -1.1761
 3227SOL     OW11548   2.281   3.320   4.682 -0.6545  0.1522  0.4621
 3227SOL    HW111549   2.214   3.256   4.705 -0.0643 -0.8632 -0.5508
 3227SOL    HW211550   2.237   3.405   4.689 -1.1608 -0.2273  2.8795
 3228SOL     OW11551   7.329   7.327   2.163 -0.4487 -0.6691  0.0765
 3228SOL    HW111552   7.372   7.374   2.235 -0.7374 -0.3886  0.0677
 3228SOL    HW211553   7.238   7.319   2.192 -0.8341  0.4677 -0.7634
 3229SOL     OW11554   6.430   2.426   1.217  0.1614  0.4725 -0.4880
 3229SOL    HW111555   6.358   2.480   1.251 -0.8481 -1.2632  0.2348
 3229SOL    HW211556   6.423   2.344   1.266  1.5506 -0.3832 -1.6748
 3230SOL     OW11557   2.221   2.357   4.244 -0.9326 -0.1081  0.3044
 3230SOL    HW111558   2.217   2.284   4.305 -0.8490 -0.9039 -0.6284
 3230SOL    HW211559   2.217   2.435   4.300  1.2683 -0.7790  1.4998
 3231SOL     OW11560   4.350   5.176   3.321 -0.6311  0.0983 -0.6540
 3231SOL    HW111561   4.270   5.212   3.283 -0.3690  1.6732  0.2156
 3231SOL    HW211562   4.326   5.151   3.410  0.2008  2.3236  0.2867
 3232SOL     OW11563   8.471   6.032   0.157 -0.3467 -0.0264  0.3551
 3232SOL    HW111564   8.399   6.093   0.174  0.3384  0.3187  2.2883
 3232SOL    HW211565   8.523   6.074   0.088 -0.7654  0.8064  0.5365
 3233SOL     OW11566   7.955   5.961   5.346  0.3327  0.5551 -0.3728
 3233SOL    HW111567   7.916   5.910   5.417  1.5108  0.9783  0.6234
 3233SOL    HW211568   7.975   5.896   5.279 -1.0995  0.1951 -0.4741
 3234SOL     OW11569   4.170   6.858   3.635  0.2633 -0.0517  0.0312
 3234SOL    HW111570   4.220   6.890   3.560  0.3150  0.1560  0.1548
 3234SOL    HW211571   4.094   6.815   3.596  1.4513 -1.9952 -0.2310
 3235SOL     OW11572   4.997   7.162   6.222  0.2589 -0.5895 -0.2414
 3235SOL    HW111573   5.058   7.229   6.253  2.1850 -2.1844 -0.3926
 3235SOL    HW211574   4.942   7.142   6.298 -0.4171  1.1569 -0.2206
 3236SOL     OW11575   4.756   5.036   6.237 -0.1821 -0.3770  0.1316
 3236SOL    HW111576   4.836   4.993   6.208 -1.2640 -1.7288 -0.9481
 3236SOL    HW211577   4.715   4.973   6.297  0.0035  0.7048  1.4549
 3237SOL     OW11578   3.659   1.132   5.829  0.6844 -0.3430 -0.2301
 3237SOL    HW111579   3.705   1.177   5.900  1.9790 -0.5828 -0.8777
 3237SOL    HW211580   3.705   1.161   5.749 -0.9900  0.2390 -1.0178
 3238SOL     OW11581   2.996   0.354   5.670  0.1483 -0.4525 -0.5228
 3238SOL    HW111582   2.905   0.382   5.664  0.7600  1.8359 -0.2049
 3238SOL    HW211583   3.004   0.316   5.758 -0.0032  1.5966  0.4389
 3239SOL     OW11584   2.051   3.049   6.461  0.3934  0.1098  0.3180
 3239SOL    HW111585   1.965   3.035   6.500  0.8332  0.1311  1.3290
 3239SOL    HW211586   2.079   3.135   6.493  1.1689 -0.2840  0.7386
 3240SOL     OW11587   4.494   5.259   8.850 -0.3616  0.4374 -0.1488
 3240SOL    HW111588   4.459   5.259   8.939 -2.5917 -1.0406 -0.9268
 3240SOL    HW211589   4.539   5.175   8.841 -2.1434 -0.4894 -1.0409
 3241SOL     OW11590   1.356   6.414   3.783  0.3141  0.4191 -0.4841
 3241SOL    HW111591   1.342   6.437   3.875  0.4601 -2.3499  0.3266
 3241SOL    HW211592   1.289   6.462   3.735 -1.0597  0.3982  1.3287
 3242SOL     OW11593   4.144   3.151   2.258 -0.5028  0.2341  0.0579
 3242SOL    HW111594   4.165   3.213   2.188  0.6971  1.2070  1.2297
 3242SOL    HW211595   4.127   3.206   2.334 -1.2486 -0.8267  0.6814
 3243SOL     OW11596   3.191   5.457   8.074  0.0860 -0.4220  0.0802
 3243SOL    HW111597   3.112   5.462   8.020 -1.2637 -0.3371  1.9519
 3243SOL    HW211598   3.261   5.433   8.013 -0.4486  3.5927 -2.4946
 3244SOL     OW11599   0.976   2.989   0.328 -0.0107  0.4282 -0.0389
 3244SOL    HW111600   1.048   2.999   0.265  1.5357 -3.2236  0.8716
 3244SOL    HW211601   0.900   2.967   0.275  1.0443 -1.6238 -0.8079
 3245SOL     OW11602   2.738   6.514   3.519  0.0969 -0.3890 -0.3307
 3245SOL    HW111603   2.726   6.515   3.424 -0.3859  1.4037 -0.2950
 3245SOL    HW211604   2.656   6.548   3.554  0.5165 -0.3739  0.6853
 3246SOL     OW11605   1.315   6.945   1.177 -0.2212  0.0699  0.0321
 3246SOL    HW111606   1.270   6.911   1.100  1.9457  0.5348 -1.5388
 3246SOL    HW211607   1.380   6.878   1.198 -0.9237 -0.1425  1.6210
 3247SOL     OW11608   3.280   3.811   0.921  0.0127 -0.0528  0.1126
 3247SOL    HW111609   3.266   3.893   0.874  0.7472  0.9145  1.5396
 3247SOL    HW211610   3.296   3.837   1.012 -0.6798 -1.8300  0.7912
 3248SOL     OW11611   5.473   0.764   7.535  0.4543 -0.0877 -0.7174
 3248SOL    HW111612   5.434   0.681   7.562  0.9387 -0.5302 -1.3395
 3248SOL    HW211613   5.564   0.758   7.563  0.9204 -0.4774 -2.2087
 3249SOL     OW11614   1.189   0.525   8.024 -0.2702 -0.2996  0.3004
 3249SOL    HW111615   1.228   0.561   7.944 -0.4492 -1.9055 -0.5446
 3249SOL    HW211616   1.238   0.567   8.095 -0.1811  1.2504 -0.6271
 3250SOL     OW11617   7.898   4.683   6.870 -0.0254  0.5289  0.0184
 3250SOL    HW111618   7.894   4.702   6.964  0.9315  2.1284 -0.2268
 3250SOL    HW211619   7.946   4.600   6.863  0.5368  0.7729  0.9109
 3251SOL     OW11620   7.817   7.447   7.244  0.1380 -0.6626  0.1198
 3251SOL    HW111621   7.803   7.373   7.184 -1.5962 -0.6333  0.4471
 3251SOL    HW211622   7.797   7.524   7.191  0.5287 -0.5044  0.1968
 3252SOL     OW11623   3.969   6.714   4.269  0.0017 -0.2219  0.0373
 3252SOL    HW111624   3.893   6.754   4.229  0.9079 -0.1884 -1.7620
 3252SOL    HW211625   4.035   6.784   4.270 -0.1463 -0.0430  2.1948
 3253SOL     OW11626   7.791   5.675   1.177  0.1632  0.1634 -0.2980
 3253SOL    HW111627   7.777   5.617   1.252 -0.9267  0.3327 -0.3599
 3253SOL    HW211628   7.823   5.617   1.108  0.8970 -0.0406  0.2049
 3254SOL     OW11629   6.098   2.485   4.029  0.5187 -0.5532 -0.1996
 3254SOL    HW111630   6.021   2.540   4.039  1.9273  1.2512  1.5016
 3254SOL    HW211631   6.083   2.411   4.087  0.8323  0.7405  1.5904
 3255SOL     OW11632   3.360   8.842   3.545 -0.3269 -0.2585 -0.1507
 3255SOL    HW111633   3.296   8.786   3.589  0.2428 -1.0054 -0.2448
 3255SOL    HW211634   3.430   8.853   3.610  0.5052 -1.3420 -0.8182
 3256SOL     OW11635   6.148   6.086   4.052  0.0728 -0.3104  0.2695
 3256SOL    HW111636   6.215   6.039   4.003  0.0232  0.0155 -0.1131
 3256SOL    HW211637   6.192   6.115   4.132  0.5050  0.2557 -0.1647
 3257SOL     OW11638   7.270   1.548   8.566  0.1002 -0.3723  0.3936
 3257SOL    HW111639   7.206   1.615   8.541 -1.2097 -1.6385  0.2225
 3257SOL    HW211640   7.252   1.532   8.659 -0.2882 -1.1808  0.1919
 3258SOL     OW11641   4.364   0.214   7.194 -0.4190  0.2757 -0.0514
 3258SOL    HW111642   4.362   0.254   7.107  0.7609  1.0686  0.2509
 3258SOL    HW211643   4.436   0.152   7.190 -0.1416  0.5563  0.4461
 3259SOL     OW11644   1.981   7.778   6.524 -0.0225 -0.7614  0.4165
 3259SOL    HW111645   2.032   7.699   6.541  1.2555  0.0825  0.7028
 3259SOL    HW211646   1.974   7.782   6.428  1.2476 -0.4503  0.3119
 3260SOL     OW11647   2.973   4.201   0.487 -0.3759  0.2198  0.1239
 3260SOL    HW111648   2.994   4.182   0.396  2.8028 -0.8629  0.9408
 3260SOL    HW211649   2.938   4.118   0.521  1.8100 -0.5419  0.6732
 3261SOL     OW11650   1.433   6.388   1.488  0.6077 -0.2435  0.2014
 3261SOL    HW111651   1.418   6.380   1.582 -0.2983  0.4321  0.1220
 3261SOL    HW211652   1.363   6.444   1.456 -0.4747 -2.2823 -1.2482
 3262SOL     OW11653   0.667   0.946   6.385 -0.0732 -0.2771 -0.5428
 3262SOL    HW111654   0.670   0.859   6.347 -1.4960 -0.4232 -0.3748
 3262SOL    HW211655   0.666   0.932   6.480  1.7797  0.0241 -0.4419
 3263SOL     OW11656   7.946   4.211   2.042  0.4709  0.4239  0.3620
 3263SOL    HW111657   7.949   4.223   1.947  0.6399 -0.4261  0.2495
 3263SOL    HW211658   8.018   4.149   2.060 -0.4912 -0.5924  0.8440
 3264SOL     OW11659   0.849   8.662   5.050 -0.4282 -0.1139  0.4933
 3264SOL    HW111660   0.832   8.671   5.143 -0.5236  2.7298  0.2976
 3264SOL    HW211661   0.919   8.725   5.032 -0.2563 -0.7420 -1.3220
 3265SOL     OW11662   5.020   6.366   8.895 -0.0039  0.0654 -0.5412
 3265SOL    HW111663   5.071   6.391   8.818  0.0697 -2.9497 -1.6046
 3265SOL    HW211664   4.935   6.408   8.881  0.9125  2.0346 -0.6576
 3266SOL     OW11665   1.592   6.594   5.281  0.5497  0.4428  0.9634
 3266SOL    HW111666   1.589   6.664   5.346  0.4367  1.7529 -0.4124
 3266SOL    HW211667   1.577   6.637   5.197 -0.0057 -1.2995  0.1091
 3267SOL     OW11668   4.488   6.010   5.177 -0.2771  0.4984  0.2257
 3267SOL    HW111669   4.502   5.925   5.218  1.6571  0.4651 -0.3983
 3267SOL    HW211670   4.450   5.989   5.092  1.7963  0.0753 -0.6548
 3268SOL     OW11671   8.858   0.128   8.051  0.1468 -0.0394 -0.0477
 3268SOL    HW111672   8.767   0.147   8.072  0.0582 -0.8834  0.4190
 3268SOL    HW211673   8.863   0.132   7.956 -0.4795 -0.3957 -0.1010
 3269SOL     OW11674   8.504   6.926   5.349 -0.1741 -0.4185 -0.1105
 3269SOL    HW111675   8.513   6.839   5.387  0.9445 -1.1352 -1.8642
 3269SOL    HW211676   8.449   6.913   5.272  0.6360  0.2477 -0.8291
 3270SOL     OW11677   7.219   8.437   1.014 -0.5133  0.3839  0.1633
 3270SOL    HW111678   7.309   8.447   1.046 -0.3252  0.7615 -0.4643
 3270SOL    HW211679   7.229   8.408   0.924 -1.0426 -2.6389  0.9720
 3271SOL     OW11680   3.828   7.768   4.021  0.3884 -0.1230  0.3174
 3271SOL    HW111681   3.838   7.824   3.944  0.2622  1.0059  1.1061
 3271SOL    HW211682   3.740   7.789   4.054  0.7143 -0.0919  1.1650
 3272SOL     OW11683   2.807   2.078   5.043 -0.1639 -0.4281 -0.0041
 3272SOL    HW111684   2.877   2.054   5.104  0.3736 -1.1448 -0.8794
 3272SOL    HW211685   2.841   2.154   4.995  0.0823 -0.8595 -0.5244
 3273SOL     OW11686   0.874   8.768   0.172 -0.4734  0.1668  0.7721
 3273SOL    HW111687   0.927   8.827   0.119 -0.2637 -0.1793  0.5924
 3273SOL    HW211688   0.933   8.741   0.243 -0.0171 -1.1200 -0.0584
 3274SOL     OW11689   1.183   2.368   8.738  0.5990  0.1314 -0.6485
 3274SOL    HW111690   1.173   2.354   8.644 -0.2501  1.3149 -0.7578
 3274SOL    HW211691   1.247   2.302   8.766 -0.4393 -1.4106 -1.7335
 3275SOL     OW11692   3.993   5.796   0.148 -0.1888  0.3065  0.0757
 3275SOL    HW111693   3.907   5.756   0.143 -0.8103  1.7230 -1.6473
 3275SOL    HW211694   4.031   5.785   0.061  0.3277  1.8492  0.0679
 3276SOL     OW11695   6.501   6.300   8.582  0.1655 -0.7672  0.2796
 3276SOL    HW111696   6.571   6.236   8.585  1.5937  0.7205  0.3178
 3276SOL    HW211697   6.507   6.339   8.495  0.0976  0.1221  0.6599
 3277SOL     OW11698   1.070   8.970   6.294  0.5348 -0.2251 -0.0871
 3277SOL    HW111699   1.099   9.059   6.278  0.6653 -0.6181 -2.3968
 3277SOL    HW211700   0.996   8.957   6.235 -0.8083 -1.0382  1.6588
 3278SOL     OW11701   4.192   1.209   6.876 -0.2823 -0.3779 -0.2435
 3278SOL    HW111702   4.166   1.273   6.942 -0.0805 -0.1165 -0.4202
 3278SOL    HW211703   4.143   1.234   6.798  2.1620  1.5169 -1.2891
 3279SOL     OW11704   1.514   7.871   5.039 -0.1251 -0.5108  0.4621
 3279SOL    HW111705   1.580   7.938   5.053  0.0560 -0.3942 -0.8079
 3279SOL    HW211706   1.472   7.895   4.956 -1.4166 -0.8638  0.9782
 3280SOL     OW11707   3.798   1.559   0.005 -0.7768  0.2243  0.3167
 3280SOL    HW111708   3.849   1.628   0.048 -1.8229  1.6711 -0.6770
 3280SOL    HW211709   3.772   1.500   0.077 -0.9048  1.5404  1.3946
 3281SOL     OW11710   1.352   7.361   1.026  0.4155  0.1888 -0.2384
 3281SOL    HW111711   1.288   7.303   0.986 -0.2968 -0.6122  1.9030
 3281SOL    HW211712   1.327   7.449   0.997 -0.2990 -0.3073 -1.1608
 3282SOL     OW11713   7.453   8.025   1.004 -0.6418  0.8289  0.2781
 3282SOL    HW111714   7.541   8.050   0.979 -0.1513  0.5517  1.6309
 3282SOL    HW211715   7.459   8.007   1.098 -2.0923  0.6206  0.3558
 3283SOL     OW11716   5.502   1.134   3.928 -0.2131 -0.1530  0.1683
 3283SOL    HW111717   5.437   1.137   3.998  0.6833  2.3408  1.0042
 3283SOL    HW211718   5.576   1.087   3.965 -0.1321  0.2763  0.5648
 3284SOL     OW11719   5.426   5.831   5.140 -0.6319  0.1368  0.0041
 3284SOL    HW111720   5.339   5.871   5.139 -0.4259  0.6718 -2.3415
 3284SOL    HW211721   5.486   5.905   5.128  0.0472 -0.4014  0.0294
 3285SOL     OW11722   6.872   3.991   0.941  0.5285 -0.1345  0.1650
 3285SOL    HW111723   6.812   3.960   1.008  1.0658  1.4642  1.4359
 3285SOL    HW211724   6.943   3.927   0.941  0.1036 -0.6093  0.4924
 3286SOL     OW11725   7.383   1.535   0.214 -0.0668  0.1302 -0.0876
 3286SOL    HW111726   7.412   1.446   0.196  0.4132  0.0501  0.9712
 3286SOL    HW211727   7.302   1.546   0.164  0.1515 -0.7116 -0.6377
 3287SOL     OW11728   0.742   2.605   0.630  0.1958 -0.2041 -0.4920
 3287SOL    HW111729   0.653   2.597   0.598  0.3947  0.4000 -1.2328
 3287SOL    HW211730   0.783   2.670   0.572  0.4070  1.3585  1.2865
 3288SOL     OW11731   8.939   7.791   2.808 -0.8071  0.3806  0.1432
 3288SOL    HW111732   8.928   7.711   2.860 -2.2660  0.6467  0.2940
 3288SOL    HW211733   8.902   7.860   2.863 -0.1822  1.0624 -0.2708
 3289SOL     OW11734   1.687   4.311   7.697  0.2429 -0.0217  0.4271
 3289SOL    HW111735   1.635   4.233   7.678 -1.0390  0.7525  0.5786
 3289SOL    HW211736   1.629   4.384   7.673  1.5244  0.8863 -0.0330
 3290SOL     OW11737   4.905   0.614   3.229  0.2398 -0.2397 -0.2775
 3290SOL    HW111738   4.953   0.570   3.159  1.4709  0.2503  0.2320
 3290SOL    HW211739   4.877   0.543   3.287  0.1311 -0.5493 -0.7032
 3291SOL     OW11740   6.016   3.593   5.618 -0.3705 -0.2343  0.3125
 3291SOL    HW111741   6.046   3.554   5.700 -1.0878  0.1827  0.7837
 3291SOL    HW211742   6.025   3.523   5.554 -0.5786 -0.8257  0.9147
 3292SOL     OW11743   3.458   4.810   1.370  0.3657  0.3227 -0.3997
 3292SOL    HW111744   3.383   4.850   1.325  0.0365  0.7331  0.4781
 3292SOL    HW211745   3.503   4.885   1.410  1.3770  0.1037 -1.0925
 3293SOL     OW11746   1.496   6.654   7.419 -0.2863  0.3246  0.3105
 3293SOL    HW111747   1.506   6.725   7.482 -0.1027  1.0067 -0.4698
 3293SOL    HW211748   1.542   6.580   7.459  3.0482  1.7223 -0.5553
 3294SOL     OW11749   3.292   7.919   1.524 -0.0560  0.0858 -0.4791
 3294SOL    HW111750   3.216   7.950   1.476  0.4224  0.5063 -0.9784
 3294SOL    HW211751   3.264   7.835   1.562 -0.6738  0.1067 -0.8767
 3295SOL     OW11752   8.693   3.207   7.511 -0.2664  0.4049  0.7251
 3295SOL    HW111753   8.640   3.258   7.572 -1.0248 -0.2418  0.6172
 3295SOL    HW211754   8.650   3.122   7.506  0.2505  0.1748 -0.0880
 3296SOL     OW11755   1.976   3.199   5.875  0.1117 -0.5766  0.2193
 3296SOL    HW111756   1.888   3.220   5.842  1.1163  1.4871 -1.3740
 3296SOL    HW211757   2.034   3.218   5.802  2.1423  0.6554  2.0529
 3297SOL     OW11758   5.680   2.315   6.372 -0.2232  0.1358 -0.1539
 3297SOL    HW111759   5.618   2.299   6.301 -0.5546 -2.6361  0.6446
 3297SOL    HW211760   5.660   2.248   6.437  1.9377  0.7796  1.2890
 3298SOL     OW11761   5.595   0.005   5.760 -0.0208  0.0096  0.0049
 3298SOL    HW111762   5.603  -0.012   5.854  1.6614 -3.0734 -0.5561
 3298SOL    HW211763   5.520  -0.047   5.732  0.6376 -0.6293 -0.6180
 3299SOL     OW11764   7.250   2.086   0.107  0.2467  0.2697 -0.3693
 3299SOL    HW111765   7.328   2.061   0.156  0.5039 -0.8341 -1.2977
 3299SOL    HW211766   7.182   2.096   0.173  1.5466  3.0284  0.6635
 3300SOL     OW11767   8.899   5.046   2.757  0.3730  0.0424  0.0986
 3300SOL    HW111768   8.828   5.097   2.718  0.6664  0.5080  0.1632
 3300SOL    HW211769   8.967   5.044   2.690  0.5776  0.2033  0.2997
 3301SOL     OW11770   4.405   4.086   1.185  0.6218  0.2519 -0.9172
 3301SOL    HW111771   4.360   4.157   1.231  1.0214  0.4258 -0.7937
 3301SOL    HW211772   4.468   4.130   1.129 -0.0431  0.0513 -1.8477
 3302SOL     OW11773   4.145   2.592   4.922 -0.1298 -0.0555 -0.3754
 3302SOL    HW111774   4.110   2.601   4.833 -1.6390 -0.3377  0.1639
 3302SOL    HW211775   4.075   2.623   4.978  0.4412 -0.7762  0.7688
 3303SOL     OW11776   6.707   5.538   0.707 -0.4197  0.0764 -0.5177
 3303SOL    HW111777   6.759   5.597   0.652  0.6205 -1.1167 -0.8504
 3303SOL    HW211778   6.626   5.523   0.657  0.3073 -0.6080 -1.5119
 3304SOL     OW11779   3.892   6.228   5.898 -0.1301 -0.0316  0.3883
 3304SOL    HW111780   3.846   6.277   5.966  0.5858  1.0844  0.0846
 3304SOL    HW211781   3.844   6.250   5.818 -0.3968 -0.6061  0.3841
 3305SOL     OW11782   0.873   0.371   4.898  0.3080 -0.1177  0.0167
 3305SOL    HW111783   0.897   0.462   4.916 -0.8207 -0.1298  1.6850
 3305SOL    HW211784   0.783   0.363   4.927 -0.2638 -1.2898 -1.9002
 3306SOL     OW11785   6.030   3.508   0.902 -0.1571 -0.1088  0.3460
 3306SOL    HW111786   5.938   3.503   0.928  0.3486 -0.9284  2.1881
 3306SOL    HW211787   6.067   3.577   0.958  0.0249  1.4509 -1.5976
 3307SOL     OW11788   1.790   0.267   1.166 -0.4721  0.8605 -0.4702
 3307SOL    HW111789   1.786   0.302   1.256  0.7371 -1.6981  0.6593
 3307SOL    HW211790   1.878   0.288   1.135  0.4361 -1.3440  0.3904
 3308SOL     OW11791   4.262   5.007   7.989 -0.0250  0.1394 -0.7264
 3308SOL    HW111792   4.227   4.963   8.066  1.3090  1.4342  0.6875
 3308SOL    HW211793   4.244   4.947   7.917  1.1415 -2.4108  0.9825
 3309SOL     OW11794   3.659   4.161   1.427  0.6468 -0.1191  0.1278
 3309SOL    HW111795   3.696   4.144   1.340 -0.4422 -0.8984 -0.1957
 3309SOL    HW211796   3.584   4.219   1.411  0.3961 -0.3234  0.5422
 3310SOL     OW11797   1.652   5.110   0.098  0.5115  0.5360  0.0769
 3310SOL    HW111798   1.608   5.167   0.161  1.5384  0.8838  0.5037
 3310SOL    HW211799   1.692   5.042   0.151  0.4115  0.1730 -0.3095
 3311SOL     OW11800   4.156   1.665   8.116  0.4602  0.2396 -0.1060
 3311SOL    HW111801   4.161   1.569   8.107 -0.8012  0.1264  0.2100
 3311SOL    HW211802   4.215   1.698   8.048 -1.6106 -0.7200 -2.5251
 3312SOL     OW11803   0.208   3.638   8.082 -0.6490 -0.3242 -0.4677
 3312SOL    HW111804   0.240   3.727   8.072 -0.4285 -0.3323  0.1502
 3312SOL    HW211805   0.252   3.588   8.013 -2.1677  0.3946 -2.0205
 3313SOL     OW11806   0.801   7.245   1.456 -0.6994 -0.0016  0.5288
 3313SOL    HW111807   0.892   7.274   1.463 -0.3863 -0.3711 -1.3746
 3313SOL    HW211808   0.758   7.279   1.535  1.1367 -0.0741  1.6012
 3314SOL     OW11809   8.539   4.117   4.600  0.2615 -0.2722 -0.3093
 3314SOL    HW111810   8.609   4.158   4.550  0.9218  0.3460  1.0741
 3314SOL    HW211811   8.571   4.028   4.617  1.4174  0.4450  1.5562
 3315SOL     OW11812   0.687   8.440   5.590 -0.5861 -0.3260 -0.0788
 3315SOL    HW111813   0.743   8.399   5.656 -0.6169 -0.4175 -0.1094
 3315SOL    HW211814   0.733   8.426   5.507  0.3300  1.3137  0.1212
 3316SOL     OW11815   3.972   1.138   4.314 -0.4991 -0.0561  0.1550
 3316SOL    HW111816   3.899   1.089   4.352 -0.1401 -0.4543  0.3338
 3316SOL    HW211817   3.998   1.199   4.383  0.2264 -0.8568  0.6072
 3317SOL     OW11818   0.354   5.874   8.521 -0.0738 -0.1547  0.2216
 3317SOL    HW111819   0.427   5.837   8.571 -0.2507 -1.7725 -0.6607
 3317SOL    HW211820   0.293   5.801   8.510 -1.0125  0.7191 -0.5635
 3318SOL     OW11821   2.699   6.336   7.999 -0.1228 -0.4294  0.1209
 3318SOL    HW111822   2.707   6.428   8.024 -0.6382 -0.2024 -0.5281
 3318SOL    HW211823   2.777   6.295   8.037  1.5734  0.7615 -1.8013
 3319SOL     OW11824   0.764   7.460   5.713  0.0298 -0.1135 -0.7334
 3319SOL    HW111825   0.672   7.460   5.688  0.1937 -2.0341 -1.5219
 3319SOL    HW211826   0.812   7.462   5.630  0.7801  2.5158 -0.3167
 3320SOL     OW11827   0.056   3.627   2.517  0.0239 -0.1991 -0.6192
 3320SOL    HW111828   0.133   3.617   2.460 -0.8835  0.0548 -1.9140
 3320SOL    HW211829   0.089   3.677   2.592  1.6380 -1.9286 -0.0825
 3321SOL     OW11830   2.098   4.710   2.328 -0.0032  0.1024  0.0837
 3321SOL    HW111831   2.186   4.743   2.344 -0.6162  1.7178  0.2479
 3321SOL    HW211832   2.092   4.703   2.233  0.4519 -0.5075  0.0896
 3322SOL     OW11833   2.978   1.027   5.649 -0.8427  0.1430 -0.2023
 3322SOL    HW111834   3.033   0.957   5.614  1.0847  0.9779  1.0053
 3322SOL    HW211835   2.890   0.991   5.649 -0.1932 -1.5605 -1.4253
 3323SOL     OW11836   2.633   6.123   8.862 -0.8293 -0.3158 -0.7818
 3323SOL    HW111837   2.613   6.049   8.805 -0.3974 -1.7923  0.8718
 3323SOL    HW211838   2.549   6.165   8.877 -0.9985 -0.1195 -2.1779
 3324SOL     OW11839   4.640   0.690   6.818 -0.2298  0.0078  0.4187
 3324SOL    HW111840   4.619   0.601   6.848 -0.3377 -0.5958 -1.3499
 3324SOL    HW211841   4.554   0.731   6.805 -0.2106 -0.0712  0.0193
 3325SOL     OW11842   0.365   7.286   8.112  0.3518  0.1521 -0.3562
 3325SOL    HW111843   0.392   7.301   8.202  1.2318  0.3900 -0.6555
 3325SOL    HW211844   0.269   7.292   8.114  0.4440  1.7170  0.2764
 3326SOL     OW11845   2.385   6.211   8.918 -0.2430 -0.0094  0.1010
 3326SOL    HW111846   2.393   6.294   8.965  0.6094  1.1364 -1.9546
 3326SOL    HW211847   2.294   6.210   8.888 -0.6174 -0.4628  1.1755
 3327SOL     OW11848   7.491   8.105   1.769  0.1132  0.9053 -0.0085
 3327SOL    HW111849   7.490   8.010   1.759 -1.0467  0.7656  1.2364
 3327SOL    HW211850   7.519   8.137   1.683  0.3798 -0.5434 -0.4910
 3328SOL     OW11851   1.307   7.848   7.464 -0.8635  0.2426 -0.0137
 3328SOL    HW111852   1.247   7.922   7.451  0.9813  2.1011  1.3069
 3328SOL    HW211853   1.355   7.870   7.545 -0.6658 -2.7461  0.8127
 3329SOL     OW11854   7.633   6.742   3.915  0.2440  0.0102  0.7152
 3329SOL    HW111855   7.620   6.813   3.851  1.0788 -0.2351  0.2622
 3329SOL    HW211856   7.676   6.673   3.865 -2.8452 -1.9179  0.4423
 3330SOL     OW11857   4.950   5.386   7.749 -0.0140  0.1418  0.4071
 3330SOL    HW111858   5.027   5.366   7.802  0.7819 -3.3002 -1.6652
 3330SOL    HW211859   4.876   5.353   7.800  0.4813 -0.9511  0.4665
 3331SOL     OW11860   4.535   6.331   6.517 -0.3327 -0.0809 -0.6755
 3331SOL    HW111861   4.594   6.407   6.512 -0.1347 -0.1239  0.6872
 3331SOL    HW211862   4.451   6.364   6.484 -0.5367  1.0653  0.8854
 3332SOL     OW11863   6.028   4.127   7.610  0.1016 -0.4918  0.2285
 3332SOL    HW111864   5.946   4.139   7.658 -0.5870 -0.7453 -0.8293
 3332SOL    HW211865   6.061   4.042   7.639 -0.5569 -0.8651 -0.0650
 3333SOL     OW11866   8.877   1.239   1.149 -0.3423 -0.2405 -0.0825
 3333SOL    HW111867   8.807   1.252   1.213 -0.4029  0.9582 -0.3517
 3333SOL    HW211868   8.957   1.238   1.200 -0.1489  3.1698 -0.0831
 3334SOL     OW11869   6.954   6.217   3.308 -0.1574 -0.2555  0.3267
 3334SOL    HW111870   6.915   6.279   3.369  0.8304 -0.1206  0.8352
 3334SOL    HW211871   7.041   6.253   3.289 -0.8862  0.4182 -2.1808
 3335SOL     OW11872   7.693   2.365   6.971  0.0970 -0.0486 -0.6593
 3335SOL    HW111873   7.641   2.306   7.026  0.8009 -0.9347 -0.9166
 3335SOL    HW211874   7.657   2.452   6.989  0.1431 -0.3334  1.0211
 3336SOL     OW11875   0.783   4.874   1.904 -0.3281 -0.5252  0.0836
 3336SOL    HW111876   0.703   4.923   1.924  0.3931  0.5499  0.4710
 3336SOL    HW211877   0.800   4.892   1.812 -1.6375 -2.4600 -0.5883
 3337SOL     OW11878   8.126   6.521   3.228 -0.2864 -0.5024 -0.2592
 3337SOL    HW111879   8.126   6.438   3.277  0.1860  0.0115  0.6322
 3337SOL    HW211880   8.188   6.507   3.157 -0.0740 -0.8568 -0.0096
 3338SOL     OW11881   1.956   7.652   8.824 -0.1730  0.1061  0.2941
 3338SOL    HW111882   1.914   7.672   8.740  1.2055 -1.8200 -0.9481
 3338SOL    HW211883   1.895   7.593   8.868  0.4450 -1.4702 -0.8420
 3339SOL     OW11884   7.855   2.599   0.239  0.0157 -0.1667 -0.4706
 3339SOL    HW111885   7.763   2.573   0.237  0.0936 -0.4311 -0.6621
 3339SOL    HW211886   7.854   2.688   0.275 -0.3220 -0.1270 -0.5723
 3340SOL     OW11887   5.053   0.847   0.933  0.6836 -0.4071 -0.1344
 3340SOL    HW111888   5.032   0.934   0.898 -0.0758 -0.4847  0.1043
 3340SOL    HW211889   4.973   0.820   0.978  0.4920 -1.7430 -1.2291
 3341SOL     OW11890   5.571   7.667   2.815 -0.0647  0.1660  0.1265
 3341SOL    HW111891   5.583   7.701   2.726 -0.1657 -0.8868 -0.3108
 3341SOL    HW211892   5.659   7.663   2.851  0.0271  0.1580 -0.0979
 3342SOL     OW11893   8.144   5.807   5.629  0.2433 -0.3575 -0.4273
 3342SOL    HW111894   8.192   5.789   5.549  1.1068  1.3080 -0.3096
 3342SOL    HW211895   8.053   5.788   5.607  0.6714 -1.5477 -1.2681
 3343SOL     OW11896   1.962   5.345   2.593 -0.7859 -0.4128 -0.3005
 3343SOL    HW111897   1.941   5.368   2.683  0.2170 -0.1904 -0.1114
 3343SOL    HW211898   1.890   5.288   2.565 -0.2197 -1.9746  1.2503
 3344SOL     OW11899   3.326   5.454   3.230 -0.0884 -0.8159  0.0596
 3344SOL    HW111900   3.301   5.362   3.231 -0.1134 -0.8298 -0.8334
 3344SOL    HW211901   3.245   5.501   3.211 -0.7388 -0.3311  3.4410
 3345SOL     OW11902   0.253   4.412   8.684 -0.0673  0.2213 -0.0536
 3345SOL    HW111903   0.287   4.447   8.602 -0.2799  0.2255 -0.1401
 3345SOL    HW211904   0.222   4.488   8.732 -0.4633  0.1572 -0.2105
 3346SOL     OW11905   4.803   6.935   1.061 -0.1253 -0.6838  0.0006
 3346SOL    HW111906   4.846   6.999   1.119 -0.7771 -0.2603  0.0203
 3346SOL    HW211907   4.800   6.979   0.976 -0.8264 -0.5718  0.0805
 3347SOL     OW11908   5.211   5.331   6.121  0.9650  0.4081 -0.3535
 3347SOL    HW111909   5.179   5.241   6.110 -0.6714  0.7985  0.8357
 3347SOL    HW211910   5.263   5.347   6.042 -0.4633 -0.8592 -1.6326
 3348SOL     OW11911   6.913   5.153   0.956  0.2818 -0.0359 -0.1504
 3348SOL    HW111912   6.857   5.168   0.880 -0.0010  0.8263  0.2198
 3348SOL    HW211913   6.939   5.061   0.949 -0.3999 -0.1828 -0.8477
 3349SOL     OW11914   6.390   6.684   3.991 -0.7990  0.1440  0.0141
 3349SOL    HW111915   6.462   6.716   4.045  1.0317 -0.5178 -1.8827
 3349SOL    HW211916   6.333   6.637   4.052  0.0571  1.1546  1.6758
 3350SOL     OW11917   4.182   1.854   0.978  0.4456 -0.5299 -0.4326
 3350SOL    HW111918   4.234   1.800   0.918  0.0079 -1.7037  0.1960
 3350SOL    HW211919   4.092   1.842   0.947  0.2673 -0.7746  0.1601
 3351SOL     OW11920   4.912   8.019   5.690 -0.1972  0.5868 -1.0189
 3351SOL    HW111921   4.820   7.992   5.693 -0.0958  0.2791 -0.6581
 3351SOL    HW211922   4.947   7.995   5.775 -0.4954  3.3736 -0.0223
 3352SOL     OW11923   0.043   2.868   2.307  0.3314 -0.2205 -0.1234
 3352SOL    HW111924   0.090   2.798   2.352  0.5293  0.5717  0.9258
 3352SOL    HW211925   0.030   2.935   2.373 -0.3617  0.5062 -0.9677
 3353SOL     OW11926   1.574   5.884   6.154 -0.6969  0.2551  0.1860
 3353SOL    HW111927   1.636   5.948   6.119 -0.2046 -0.4670 -0.3064
 3353SOL    HW211928   1.515   5.935   6.210  0.3416  0.9452  0.6654
 3354SOL     OW11929   8.775   5.018   4.660  0.2028  0.1793  0.6654
 3354SOL    HW111930   8.726   4.996   4.739 -0.0800 -0.4167  0.3295
 3354SOL    HW211931   8.860   5.049   4.692 -0.0816  0.4083  1.2146
 3355SOL     OW11932   4.634   8.765   0.922 -0.4272  0.1749 -0.2057
 3355SOL    HW111933   4.569   8.696   0.910 -3.3848  2.6539  0.1856
 3355SOL    HW211934   4.660   8.790   0.833 -0.1038 -0.7156 -0.3702
 3356SOL     OW11935   3.705   1.099   3.365 -0.0092  0.1553  0.2144
 3356SOL    HW111936   3.713   1.005   3.350  0.3255  0.1517  0.4029
 3356SOL    HW211937   3.731   1.111   3.457  1.1676  0.5822 -0.1474
 3357SOL     OW11938   2.968   0.307   8.322 -0.1627  0.3746 -0.0685
 3357SOL    HW111939   2.977   0.368   8.395 -1.3252  0.9788 -0.4171
 3357SOL    HW211940   2.966   0.221   8.364  2.6778  0.4055  0.3477
 3358SOL     OW11941   4.944   4.067   4.357  0.0613 -0.1673 -0.0743
 3358SOL    HW111942   4.931   4.065   4.262  0.0675 -0.4915 -0.0694
 3358SOL    HW211943   4.969   3.977   4.380  0.1029 -0.0804  0.2281
 3359SOL     OW11944   8.669   8.197   0.688  0.0259  0.1119  0.3763
 3359SOL    HW111945   8.743   8.188   0.629 -0.5204  0.1730 -0.3370
 3359SOL    HW211946   8.632   8.109   0.695 -1.2088  0.4629 -1.1319
 3360SOL     OW11947   2.278   8.514   8.921  0.0603 -0.0762 -0.1371
 3360SOL    HW111948   2.328   8.432   8.926  1.5647  0.7251 -1.1163
 3360SOL    HW211949   2.294   8.557   9.005  2.1783  0.7635 -0.9148
 3361SOL     OW11950   6.340   0.915   8.351 -0.4516  0.1668  0.0379
 3361SOL    HW111951   6.410   0.876   8.403 -0.0193  0.8294 -0.0446
 3361SOL    HW211952   6.271   0.848   8.351  0.6985 -1.0982 -1.0235
 3362SOL     OW11953   8.176   8.025   6.570 -0.8194 -0.5476 -0.2772
 3362SOL    HW111954   8.137   7.986   6.647  0.9102 -0.1388  0.8729
 3362SOL    HW211955   8.193   8.116   6.595 -0.6888 -0.2734 -1.3152
 3363SOL     OW11956   5.913   8.814   5.266 -0.2634 -0.0534 -0.3027
 3363SOL    HW111957   5.979   8.799   5.198 -0.3276 -2.7172  0.1079
 3363SOL    HW211958   5.956   8.791   5.348 -0.9398  0.6762  0.2781
 3364SOL     OW11959   2.318   3.873   5.846 -0.1696 -0.1761 -0.1051
 3364SOL    HW111960   2.369   3.828   5.914  0.7472 -0.8061 -1.1750
 3364SOL    HW211961   2.268   3.939   5.894  1.1083 -0.0146  1.0790
 3365SOL     OW11962   2.103   4.229   7.142 -0.1563 -0.1783 -0.0846
 3365SOL    HW111963   2.042   4.247   7.071 -1.0412 -0.0688  0.6805
 3365SOL    HW211964   2.188   4.256   7.108 -0.8074  1.4265 -0.5217
 3366SOL     OW11965   4.097   2.691   6.179 -0.3831  0.2088 -0.0916
 3366SOL    HW111966   4.185   2.727   6.185  0.5547 -1.7834 -1.0111
 3366SOL    HW211967   4.071   2.705   6.088 -0.5599 -0.1837 -0.1053
 3367SOL     OW11968   2.855   5.806   7.581  0.3438 -0.2955  0.5037
 3367SOL    HW111969   2.909   5.819   7.503  0.8426 -1.8335  0.5559
 3367SOL    HW211970   2.851   5.892   7.622  0.2624  0.4963 -1.0886
 3368SOL     OW11971   8.526   6.490   5.585  0.1838  0.1624  0.1155
 3368SOL    HW111972   8.434   6.464   5.579  0.5087 -1.1583  0.7082
 3368SOL    HW211973   8.570   6.436   5.519  0.9283 -1.1578  1.6412
 3369SOL     OW11974   7.142   2.291   3.335 -0.3977 -0.0346  0.0608
 3369SOL    HW111975   7.057   2.274   3.375  0.5172  0.4051  2.3536
 3369SOL    HW211976   7.134   2.380   3.298 -0.5906  0.4839  1.3198
 3370SOL     OW11977   6.342   2.912   5.833  0.6223 -0.1993  0.0240
 3370SOL    HW111978   6.300   2.829   5.812 -0.9737  0.8672 -1.2843
 3370SOL    HW211979   6.436   2.895   5.823  0.3735 -1.9290  0.2742
 3371SOL     OW11980   3.845   1.265   6.017  0.0001 -0.5101  0.4806
 3371SOL    HW111981   3.902   1.271   6.094  0.7912  0.0004 -0.1246
 3371SOL    HW211982   3.890   1.317   5.951 -0.4919 -1.2466 -0.4437
 3372SOL     OW11983   4.765   1.048   7.864  0.0913  0.0668  0.1164
 3372SOL    HW111984   4.755   1.070   7.771 -1.4252 -1.0543 -0.0237
 3372SOL    HW211985   4.716   0.966   7.874  1.2271 -0.4581  1.6684
 3373SOL     OW11986   2.946   1.627   7.678 -0.3242  0.2183 -0.4253
 3373SOL    HW111987   2.864   1.581   7.666  0.3070 -0.3434 -3.0845
 3373SOL    HW211988   2.921   1.711   7.717 -1.8044 -1.0072  1.4260
 3374SOL     OW11989   5.414   4.273   5.821  0.2398  0.9130  0.4159
 3374SOL    HW111990   5.417   4.208   5.750 -2.2246 -1.1145  1.9948
 3374SOL    HW211991   5.446   4.226   5.898  0.0189  2.1189  1.2763
 3375SOL     OW11992   5.575   3.524   7.263 -0.0881 -0.5603  0.1623
 3375SOL    HW111993   5.591   3.603   7.316  1.0634 -0.4303 -0.3547
 3375SOL    HW211994   5.655   3.471   7.275  0.0768 -0.6462 -1.2318
 3376SOL     OW11995   3.160   0.784   1.563 -0.3280  0.0242  0.4744
 3376SOL    HW111996   3.225   0.784   1.492  0.7114  0.7629  1.4059
 3376SOL    HW211997   3.203   0.738   1.635 -0.8578  0.4759  1.0888
 3377SOL     OW11998   1.787   6.115   8.709 -0.3016 -0.1720 -0.4616
 3377SOL    HW111999   1.723   6.185   8.701 -0.0733 -0.0253 -1.0679
 3377SOL    HW212000   1.754   6.060   8.780  0.6963  1.7683  1.6424
 3378SOL     OW12001   1.883   7.630   3.268 -0.5561 -0.2117 -0.3329
 3378SOL    HW112002   1.886   7.661   3.178  0.0479 -2.2223 -1.0431
 3378SOL    HW212003   1.824   7.691   3.312 -1.8744  0.0597 -2.3708
 3379SOL     OW12004   3.417   8.711   3.326 -0.3694 -0.1703  0.5246
 3379SOL    HW112005   3.405   8.738   3.417  1.8499  1.2735  0.4488
 3379SOL    HW212006   3.456   8.786   3.283 -0.0244 -1.3308 -1.3046
 3380SOL     OW12007   8.531   3.001   4.805 -0.3969 -0.0675  0.0233
 3380SOL    HW112008   8.519   3.093   4.829  0.4919 -0.1719  0.9473
 3380SOL    HW212009   8.511   2.953   4.885  2.4349 -0.4479  0.6176
 3381SOL     OW12010   7.097   7.229   7.398  0.0661  0.2882  0.1366
 3381SOL    HW112011   7.141   7.296   7.346 -1.1577  1.1286  0.1489
 3381SOL    HW212012   7.151   7.221   7.477  1.1557  0.0209 -0.6094
 3382SOL     OW12013   4.418   4.154   8.561  0.1874 -0.1795 -0.5948
 3382SOL    HW112014   4.368   4.227   8.526 -0.9733 -0.2567  0.7925
 3382SOL    HW212015   4.483   4.196   8.618  1.0116 -0.1339 -1.5517
 3383SOL     OW12016   1.779   6.283   1.766  0.3008 -0.9683  0.4377
 3383SOL    HW112017   1.831   6.315   1.692 -0.2092  1.1569  0.9344
 3383SOL    HW212018   1.844   6.265   1.835  0.5916 -0.8701  0.1897
 3384SOL     OW12019   0.431   6.920   1.421  0.0346 -0.3463 -0.2273
 3384SOL    HW112020   0.351   6.964   1.451 -1.5309 -2.8246 -0.4670
 3384SOL    HW212021   0.486   6.916   1.499 -1.7161 -1.9282  1.0212
 3385SOL     OW12022   6.486   7.091   1.779 -0.1952 -0.4356  0.0620
 3385SOL    HW112023   6.390   7.093   1.777 -0.2077 -1.1384 -0.8621
 3385SOL    HW212024   6.513   7.155   1.714 -0.0677 -1.0158 -0.4723
 3386SOL     OW12025   6.346   5.999   8.205  0.3056  0.4610 -0.0885
 3386SOL    HW112026   6.430   5.985   8.249  1.7237  2.4134 -1.9644
 3386SOL    HW212027   6.356   5.954   8.121 -1.0848 -0.4018  0.1784
 3387SOL     OW12028   5.225   0.861   8.497 -0.1028  0.0668  0.6091
 3387SOL    HW112029   5.262   0.830   8.415  1.6334 -0.8182  1.6642
 3387SOL    HW212030   5.210   0.781   8.548  1.5500  0.7174  2.2169
 3388SOL     OW12031   8.439   6.490   3.857  0.7991 -0.0069  0.3007
 3388SOL    HW112032   8.370   6.479   3.791 -1.0097 -0.2050  2.1370
 3388SOL    HW212033   8.424   6.420   3.920  0.7708  1.7341  2.3425
 3389SOL     OW12034   6.258   6.277   7.218 -0.3811  0.8469  0.1815
 3389SOL    HW112035   6.266   6.358   7.168 -0.6925  0.4007 -0.6156
 3389SOL    HW212036   6.168   6.247   7.200 -0.1365  0.1184  0.1355
 3390SOL     OW12037   2.327   7.938   0.368  0.2647 -0.6092 -0.1107
 3390SOL    HW112038   2.358   8.025   0.395  0.7326  0.0258 -2.4471
 3390SOL    HW212039   2.233   7.949   0.354 -0.1177 -1.1199  1.7117
 3391SOL     OW12040   4.753   8.958   3.814  0.0105  0.2692  0.1419
 3391SOL    HW112041   4.796   8.905   3.747  0.9202  1.4578 -0.2593
 3391SOL    HW212042   4.816   8.962   3.886 -0.5972 -0.2616  0.7239
 3392SOL     OW12043   8.802   5.716   3.242 -0.0681 -0.0870 -0.2157
 3392SOL    HW112044   8.865   5.777   3.202  0.3764 -1.2475 -1.3805
 3392SOL    HW212045   8.847   5.632   3.240 -1.1155 -0.6714  0.2752
 3393SOL     OW12046   3.277   0.794   8.720 -0.1039 -0.3414 -0.0213
 3393SOL    HW112047   3.193   0.822   8.685 -0.1447 -0.7030 -0.2170
 3393SOL    HW212048   3.337   0.866   8.703 -0.2607 -0.2838 -0.3137
 3394SOL     OW12049   3.536   2.350   7.760 -0.0513 -0.1472  0.0146
 3394SOL    HW112050   3.524   2.257   7.781  1.7097 -0.6151 -0.8912
 3394SOL    HW212051   3.561   2.390   7.843 -0.4284 -0.5480  0.3295
 3395SOL     OW12052   2.942   7.226   1.188  0.4461  0.1099  0.3295
 3395SOL    HW112053   2.993   7.246   1.266 -0.7791 -1.2176  1.5431
 3395SOL    HW212054   2.916   7.134   1.200 -2.5750  0.8132  0.0469
 3396SOL     OW12055   1.188   4.413   7.202  0.0831 -0.2774 -0.3851
 3396SOL    HW112056   1.126   4.449   7.139  0.5008  0.0969 -0.5874
 3396SOL    HW212057   1.201   4.322   7.174 -0.9973 -0.6133  0.1437
 3397SOL     OW12058   5.554   1.549   8.782 -0.8344  0.0132 -0.1195
 3397SOL    HW112059   5.551   1.531   8.876 -0.1093 -0.6492 -0.2205
 3397SOL    HW212060   5.501   1.628   8.772 -1.1217 -0.0458  0.8124
 3398SOL     OW12061   8.730   1.938   2.183 -0.2959 -0.1647  0.0469
 3398SOL    HW112062   8.724   1.983   2.267 -0.7823 -1.9724  1.0327
 3398SOL    HW212063   8.640   1.927   2.153 -0.3836 -2.2629  0.8767
 3399SOL     OW12064   5.236   6.314   6.376  0.5910 -0.4048  0.5071
 3399SOL    HW112065   5.175   6.252   6.415  1.1385 -2.1796 -1.2399
 3399SOL    HW212066   5.270   6.268   6.298  2.5307  1.3268  0.2309
 3400SOL     OW12067   8.309   3.997   0.811 -0.5789 -0.1585  0.2431
 3400SOL    HW112068   8.262   4.049   0.877 -1.1315  0.6287 -0.7385
 3400SOL    HW212069   8.369   4.060   0.770  2.2647 -1.3818  2.2435
 3401SOL     OW12070   3.765   4.768   1.849  0.1497 -0.7445  0.2430
 3401SOL    HW112071   3.671   4.762   1.867  0.3044  0.6287  1.7847
 3401SOL    HW212072   3.778   4.857   1.817  0.9473 -0.8830  0.1527
 3402SOL     OW12073   4.747   7.228   3.351  0.2221  0.2104 -0.0347
 3402SOL    HW112074   4.697   7.248   3.272 -0.3071  0.1123  0.2728
 3402SOL    HW212075   4.768   7.135   3.342  2.0011  0.6630 -1.0793
 3403SOL     OW12076   1.125   8.119   1.386 -0.0833 -0.5982 -0.2393
 3403SOL    HW112077   1.050   8.067   1.355 -0.6107  0.1954 -0.3063
 3403SOL    HW212078   1.094   8.209   1.384  0.9102 -0.2520 -0.3498
 3404SOL     OW12079   5.265   4.600   3.595 -0.1452 -0.0663 -0.4097
 3404SOL    HW112080   5.301   4.519   3.558  1.6702  1.0831 -1.3435
 3404SOL    HW212081   5.212   4.637   3.525 -2.1897 -1.1030  0.5166
 3405SOL     OW12082   3.985   0.075   2.685 -0.0610  0.3325 -0.5414
 3405SOL    HW112083   4.042   0.140   2.724  2.1256 -2.6286  1.6022
 3405SOL    HW212084   3.907   0.073   2.741  0.4906  0.1335  0.2220
 3406SOL     OW12085   7.101   5.568   5.903 -0.1675 -0.3081 -0.5263
 3406SOL    HW112086   7.121   5.474   5.905 -0.3203 -0.3661 -1.2456
 3406SOL    HW212087   7.084   5.586   5.811  0.5752  0.5859 -0.4946
 3407SOL     OW12088   7.150   0.853   8.196 -0.5638  0.4090  0.0528
 3407SOL    HW112089   7.099   0.847   8.276 -0.7137 -0.1842 -0.0882
 3407SOL    HW212090   7.103   0.918   8.143 -2.4509 -1.6884 -0.9916
 3408SOL     OW12091   6.612   1.860   0.292  0.4491  0.0816 -0.1222
 3408SOL    HW112092   6.573   1.793   0.235  0.4454 -0.4690  0.5202
 3408SOL    HW212093   6.672   1.908   0.234 -0.1338  0.0338 -0.7759
 3409SOL     OW12094   5.113   2.039   3.841 -0.4889  0.1256 -0.5196
 3409SOL    HW112095   5.093   2.076   3.927  0.6496  0.4682 -0.3883
 3409SOL    HW212096   5.099   2.111   3.780  0.8583  0.5536 -0.3603
 3410SOL     OW12097   4.283   1.271   4.213  0.0485  0.3440  0.3211
 3410SOL    HW112098   4.336   1.226   4.278 -3.5184  0.1671  3.4725
 3410SOL    HW212099   4.285   1.363   4.240  0.2292  0.6690 -0.7252
 3411SOL     OW12100   4.819   1.992   3.984 -0.0747  0.5262 -0.3517
 3411SOL    HW112101   4.807   1.996   3.889 -0.5381  1.7365 -0.2566
 3411SOL    HW212102   4.891   2.053   4.002 -0.4819  0.8638  0.1511
 3412SOL     OW12103   6.796   0.263   6.691 -0.5080  0.0105  0.0512
 3412SOL    HW112104   6.812   0.312   6.771 -0.9074 -0.7654  0.6123
 3412SOL    HW212105   6.703   0.276   6.673  0.0035  2.1165 -1.6138
 3413SOL     OW12106   5.817   3.457   7.423 -0.5487  0.3910  0.1709
 3413SOL    HW112107   5.861   3.469   7.507  0.8349  2.1886 -0.7350
 3413SOL    HW212108   5.853   3.376   7.388 -0.2949  0.2167  0.8356
 3414SOL     OW12109   8.861   6.107   0.886 -0.2064  0.0368 -0.0759
 3414SOL    HW112110   8.804   6.035   0.914 -1.5289  1.5110  1.2146
 3414SOL    HW212111   8.801   6.170   0.846  0.6935  1.1120  0.2402
 3415SOL     OW12112   4.014   0.852   1.157 -1.0370  0.2021 -0.0493
 3415SOL    HW112113   3.992   0.945   1.159 -0.2913  0.3802  0.0233
 3415SOL    HW212114   4.058   0.839   1.073 -0.2642  0.1254  0.3567
 3416SOL     OW12115   0.099   3.671   2.079  0.5193  0.1446 -0.0036
 3416SOL    HW112116   0.135   3.637   2.161  1.2277  0.2590 -0.2583
 3416SOL    HW212117   0.159   3.638   2.012  0.1228  0.3127 -0.4416
 3417SOL     OW12118   0.761   0.345   4.528 -0.0803  0.3505  0.8658
 3417SOL    HW112119   0.698   0.351   4.456 -1.4105 -0.3175  1.9273
 3417SOL    HW212120   0.846   0.334   4.484 -0.4663  2.6874 -0.6252
 3418SOL     OW12121   8.745   8.288   4.296 -0.5518  0.0545 -0.1218
 3418SOL    HW112122   8.785   8.374   4.307 -0.1271  0.1016 -1.6966
 3418SOL    HW212123   8.665   8.306   4.247 -2.3355 -0.0958  2.5640
 3419SOL     OW12124   0.056   8.656   8.729 -0.1977  0.0288  0.6581
 3419SOL    HW112125   0.047   8.620   8.817 -0.0493  0.8260  1.0124
 3419SOL    HW212126   0.146   8.688   8.726  0.1043 -0.8703 -0.1319
 3420SOL     OW12127   8.596   3.392   4.034  0.7166  0.3546  0.0604
 3420SOL    HW112128   8.675   3.360   3.991  0.9741 -1.3999  1.7496
 3420SOL    HW212129   8.524   3.351   3.986  0.8621  0.7527 -0.5165
 3421SOL     OW12130   7.064   8.893   7.500 -0.2495  0.4749 -0.4712
 3421SOL    HW112131   7.132   8.826   7.492  0.4856  0.9683  1.2412
 3421SOL    HW212132   6.984   8.849   7.471 -0.0301 -1.5979  1.7323
 3422SOL     OW12133   1.662   3.046   7.317  0.3730 -0.0880 -0.8458
 3422SOL    HW112134   1.583   3.064   7.266  0.2398 -0.3551 -0.7342
 3422SOL    HW212135   1.734   3.071   7.259  0.2741 -1.5374 -1.6601
 3423SOL     OW12136   4.287   6.590   7.834  0.0975 -0.3746  0.1485
 3423SOL    HW112137   4.242   6.555   7.911  1.2140 -1.7381  0.2279
 3423SOL    HW212138   4.380   6.573   7.852  0.4148 -0.1416 -1.2240
 3424SOL     OW12139   8.389   1.860   3.284  0.1102  0.0166  0.8054
 3424SOL    HW112140   8.483   1.870   3.269  0.0066  0.5141  0.4603
 3424SOL    HW212141   8.367   1.776   3.244  0.6368 -0.7098  2.0008
 3425SOL     OW12142   6.996   4.659   3.188 -0.0527 -0.5975  0.1102
 3425SOL    HW112143   7.010   4.708   3.269  2.8581  1.1558 -1.2852
 3425SOL    HW212144   7.076   4.607   3.178 -0.8420 -1.6328 -1.0965
 3426SOL     OW12145   8.319   2.598   5.884 -0.2942 -0.3094 -0.5041
 3426SOL    HW112146   8.375   2.666   5.846 -1.9720  1.7478  0.5115
 3426SOL    HW212147   8.351   2.589   5.974  1.3515 -2.5688 -1.2322
 3427SOL     OW12148   2.075   3.990   5.640 -0.0343  0.0097  0.4172
 3427SOL    HW112149   2.107   4.040   5.715  0.5359 -0.8087  0.7321
 3427SOL    HW212150   2.139   3.919   5.629 -0.6474 -0.4578 -0.2261
 3428SOL     OW12151   0.566   3.853   7.016 -0.0622  0.2683  0.2960
 3428SOL    HW112152   0.491   3.911   7.018 -0.5339 -0.2758 -0.7667
 3428SOL    HW212153   0.634   3.900   7.064 -0.6381  1.3917  0.0430
 3429SOL     OW12154   7.691   5.029   3.837  0.0443 -0.3822  0.6231
 3429SOL    HW112155   7.785   5.048   3.846  0.0376  0.1273 -0.2593
 3429SOL    HW212156   7.648   5.097   3.887  0.1614 -1.2021  1.8711
 3430SOL     OW12157   0.230   6.906   6.824  0.0526 -0.6194  0.2694
 3430SOL    HW112158   0.296   6.897   6.892  1.3790 -2.1614 -1.1490
 3430SOL    HW212159   0.180   6.824   6.828  0.6067 -1.0574 -1.0198
 3431SOL     OW12160   0.987   8.962   8.956  0.1143 -0.1377 -0.5228
 3431SOL    HW112161   1.081   8.959   8.974 -0.1092  0.3750  0.8775
 3431SOL    HW212162   0.966   9.056   8.954 -0.4181 -0.2523 -0.5643
 3432SOL     OW12163   7.665   1.085   3.667 -0.0574  0.3507 -0.0288
 3432SOL    HW112164   7.603   1.144   3.624 -0.9146 -1.0246 -0.7798
 3432SOL    HW212165   7.735   1.142   3.700 -0.8247  1.7497 -0.7369
 3433SOL     OW12166   7.032   7.895   5.876  0.0356  0.5790 -0.1541
 3433SOL    HW112167   6.954   7.851   5.909  1.3796 -0.8044  1.3375
 3433SOL    HW212168   7.011   7.988   5.882 -1.2713  0.2579  0.7835
 3434SOL     OW12169   7.625   5.491   8.900  0.2806 -0.3504  0.5886
 3434SOL    HW112170   7.540   5.522   8.868  0.3259  0.2199  1.0193
 3434SOL    HW212171   7.619   5.395   8.894 -0.1028 -0.2877 -0.1145
 3435SOL     OW12172   6.032   4.096   2.933  0.5459  0.1383 -0.1500
 3435SOL    HW112173   6.106   4.108   2.873 -0.1951 -2.1365 -1.6181
 3435SOL    HW212174   5.955   4.102   2.878 -0.4233  1.8481  1.2688
 3436SOL     OW12175   0.225   2.453   3.670  0.0634  0.1316 -0.0631
 3436SOL    HW112176   0.225   2.514   3.596 -0.2977  0.1426 -0.0540
 3436SOL    HW212177   0.227   2.510   3.747 -0.3383  0.1350 -0.0536
 3437SOL     OW12178   7.512   5.597   4.070  0.0969  0.1061 -0.0938
 3437SOL    HW112179   7.430   5.648   4.070  0.4378  0.6782 -0.8891
 3437SOL    HW212180   7.571   5.648   4.125  0.2327  0.2301 -0.3527
 3438SOL     OW12181   0.610   2.794   8.094 -0.3871 -0.4817 -0.3511
 3438SOL    HW112182   0.661   2.862   8.139 -0.2833 -0.0166 -1.1530
 3438SOL    HW212183   0.562   2.841   8.026 -0.8659 -1.1136 -0.4565
 3439SOL     OW12184   3.941   1.427   2.728  0.2696 -0.7026 -0.4194
 3439SOL    HW112185   3.904   1.507   2.765 -0.1447 -1.3979  0.7279
 3439SOL    HW212186   4.013   1.456   2.673 -0.4418  0.5160 -0.7252
 3440SOL     OW12187   0.850   5.778   6.915 -0.9843  0.5200  0.0871
 3440SOL    HW112188   0.892   5.816   6.992 -0.9905 -0.1524  0.4284
 3440SOL    HW212189   0.757   5.798   6.927 -1.0313  0.1249  0.4380
 3441SOL     OW12190   7.437   7.718   3.578  0.0787  0.1327 -0.1015
 3441SOL    HW112191   7.522   7.754   3.604 -0.6630  0.6152  1.7856
 3441SOL    HW212192   7.428   7.745   3.487  2.3480 -0.7446 -0.6668
 3442SOL     OW12193   6.156   3.309   4.104  0.7201 -0.1118 -0.1607
 3442SOL    HW112194   6.228   3.369   4.123 -1.0795  1.9945  0.3722
 3442SOL    HW212195   6.133   3.271   4.189 -0.4730  1.2713  0.1781
 3443SOL     OW12196   0.422   2.877   3.751 -0.4348 -0.4281  0.6691
 3443SOL    HW112197   0.396   2.821   3.824  1.3949 -0.3513  1.4403
 3443SOL    HW212198   0.498   2.833   3.714  1.2904  1.6553  1.5252
 3444SOL     OW12199   0.159   1.153   4.958  0.0291  0.2999 -0.1200
 3444SOL    HW112200   0.228   1.180   5.018  0.4678  1.1770 -0.9899
 3444SOL    HW212201   0.182   1.063   4.934 -0.9978 -0.6495  2.1762
 3445SOL     OW12202   2.368   3.870   0.732  0.7027  0.2855 -1.1818
 3445SOL    HW112203   2.277   3.894   0.750  0.9425  0.5387 -0.2859
 3445SOL    HW212204   2.395   3.817   0.807  1.3221  0.2812 -1.3994
 3446SOL     OW12205   1.155   7.684   5.303  0.3718  0.7405  0.3306
 3446SOL    HW112206   1.248   7.659   5.309  0.5576  1.1005 -0.8238
 3446SOL    HW212207   1.157   7.778   5.288 -0.1186  0.5332 -1.1698
 3447SOL     OW12208   2.194   4.011   3.483 -0.6500 -0.4500 -0.2361
 3447SOL    HW112209   2.200   3.965   3.399 -0.5266  1.4047 -1.3068
 3447SOL    HW212210   2.247   4.090   3.471 -2.0960  0.7735  0.9260
 3448SOL     OW12211   6.726   5.835   8.087 -0.5884  0.5033  0.3258
 3448SOL    HW112212   6.640   5.849   8.128  0.7081  1.5180  2.9437
 3448SOL    HW212213   6.743   5.917   8.041 -1.3326 -0.0125 -0.9209
 3449SOL     OW12214   2.039   7.745   5.288 -0.2356 -0.0347  0.0202
 3449SOL    HW112215   2.075   7.824   5.330 -2.2469 -1.0441  4.1508
 3449SOL    HW212216   1.964   7.776   5.238 -0.1229  0.8303  0.3688
 3450SOL     OW12217   4.821   7.504   7.152 -0.3935  0.4083 -0.4822
 3450SOL    HW112218   4.793   7.458   7.232 -2.1847 -1.2839 -1.9915
 3450SOL    HW212219   4.857   7.436   7.096  2.9792  1.9059 -0.3759
 3451SOL     OW12220   5.615   7.407   7.193 -0.1355 -0.2688  0.6187
 3451SOL    HW112221   5.603   7.397   7.098  0.7013  0.9440  0.3537
 3451SOL    HW212222   5.536   7.452   7.222  0.3074  0.7911  0.2132
 3452SOL     OW12223   8.193   3.715   1.308 -0.1719  0.4276 -0.3784
 3452SOL    HW112224   8.121   3.724   1.370 -0.9623 -0.8476 -1.0711
 3452SOL    HW212225   8.218   3.623   1.313 -0.7525  0.1102 -2.4757
 3453SOL     OW12226   1.072   0.423   4.259 -0.7965  1.0230 -0.9661
 3453SOL    HW112227   0.996   0.418   4.202 -0.2079 -3.0532 -1.7054
 3453SOL    HW212228   1.099   0.331   4.272  1.5465  1.9935  2.5931
 3454SOL     OW12229   3.933   6.728   5.178 -0.0377  0.0559  0.1033
 3454SOL    HW112230   3.963   6.638   5.165 -0.6115  0.0062 -1.0385
 3454SOL    HW212231   3.878   6.724   5.256 -0.2742 -0.6440 -0.0893
 3455SOL     OW12232   0.196   1.963   1.190 -0.2833  0.1697 -1.1477
 3455SOL    HW112233   0.283   1.971   1.150  0.4178 -0.4238  0.2061
 3455SOL    HW212234   0.175   2.053   1.217  0.7380  0.0743  0.1181
 3456SOL     OW12235   8.437   7.866   8.458  0.1262 -0.7056 -0.3975
 3456SOL    HW112236   8.473   7.949   8.428 -0.1099 -0.3173  0.3700
 3456SOL    HW212237   8.367   7.846   8.395  1.4633 -1.3400 -1.7423
 3457SOL     OW12238   0.365   5.736   4.715  0.1023 -0.1900  0.5631
 3457SOL    HW112239   0.312   5.812   4.737 -0.4216 -0.3696 -0.0414
 3457SOL    HW212240   0.453   5.771   4.699 -0.4214  0.4930 -0.9970
 3458SOL     OW12241   2.617   5.288   1.561  0.4699  0.1551 -0.5576
 3458SOL    HW112242   2.681   5.350   1.525  1.9400 -1.1886 -0.3263
 3458SOL    HW212243   2.611   5.218   1.496 -0.1667 -0.1406 -0.1938
 3459SOL     OW12244   2.609   8.037   2.870  0.0903 -0.0352 -0.1679
 3459SOL    HW112245   2.555   8.115   2.884 -3.1329 -2.1194  0.0686
 3459SOL    HW212246   2.634   8.009   2.958  0.4951  0.2043 -0.2021
 3460SOL     OW12247   5.480   1.327   3.738  0.7519 -0.2615 -0.1217
 3460SOL    HW112248   5.468   1.258   3.803  0.5669 -0.9363 -0.8578
 3460SOL    HW212249   5.565   1.309   3.698  0.2267 -0.7420 -1.0805
 3461SOL     OW12250   1.967   4.639   0.639 -0.6468  0.3003 -0.3238
 3461SOL    HW112251   2.015   4.703   0.587 -2.0481  0.5371 -1.4056
 3461SOL    HW212252   1.956   4.680   0.724  1.7626 -0.1273  0.2591
 3462SOL     OW12253   4.618   5.867   2.886 -0.5351 -0.2242 -0.2122
 3462SOL    HW112254   4.695   5.836   2.838 -0.8825 -0.5348 -0.5727
 3462SOL    HW212255   4.544   5.821   2.846 -0.8673 -0.2502  0.4172
 3463SOL     OW12256   1.174   0.953   0.940 -0.2185  0.0610 -0.1181
 3463SOL    HW112257   1.092   0.923   0.901 -1.2296 -0.0648  1.9711
 3463SOL    HW212258   1.188   1.041   0.905 -0.1448 -0.6812 -2.0459
 3464SOL     OW12259   3.301   2.483   8.366  0.3805 -0.2959 -0.1097
 3464SOL    HW112260   3.344   2.542   8.304 -0.8900  0.4860 -0.3076
 3464SOL    HW212261   3.341   2.503   8.450 -0.7740  1.7053  0.0285
 3465SOL     OW12262   4.806   4.729   7.050  0.0211  0.1000 -0.1517
 3465SOL    HW112263   4.874   4.721   7.118 -0.0687  0.1668 -0.0529
 3465SOL    HW212264   4.740   4.665   7.075  0.4640 -0.5961 -0.7474
 3466SOL     OW12265   4.189   0.191   8.662  0.1169  0.2339 -0.4372
 3466SOL    HW112266   4.177   0.101   8.634  0.2168  0.0069  0.2306
 3466SOL    HW212267   4.135   0.242   8.602  1.0099 -0.1316 -1.6144
 3467SOL     OW12268   3.668   6.761   8.596 -0.6918  0.4011 -0.4452
 3467SOL    HW112269   3.724   6.765   8.673  0.3650 -2.3329 -0.9723
 3467SOL    HW212270   3.703   6.828   8.537 -1.2112  2.1886  1.1785
 3468SOL     OW12271   5.739   6.628   6.740 -0.0609  0.2831 -0.7511
 3468SOL    HW112272   5.825   6.669   6.739  1.0856 -1.4570  3.5788
 3468SOL    HW212273   5.677   6.701   6.742  1.6020  1.7558  1.0066
 3469SOL     OW12274   8.135   1.894   2.369 -0.3825  0.3150  0.2928
 3469SOL    HW112275   8.129   1.878   2.274 -0.2237  0.2485  0.2932
 3469SOL    HW212276   8.227   1.879   2.389 -0.6245 -0.7394  0.6583
 3470SOL     OW12277   6.816   7.752   5.960  0.2860 -0.0624 -0.2237
 3470SOL    HW112278   6.734   7.736   5.914  0.0268 -0.8964  0.5233
 3470SOL    HW212279   6.826   7.679   6.020  0.5038  1.1100  1.2447
 3471SOL     OW12280   4.642   6.898   4.986 -0.2399  0.6089 -0.1949
 3471SOL    HW112281   4.603   6.813   4.967 -0.4626  0.6719 -0.0218
 3471SOL    HW212282   4.668   6.892   5.078 -0.8060  0.9414 -0.0124
 3472SOL     OW12283   4.203   8.416   3.823  0.6946  0.6608  0.2833
 3472SOL    HW112284   4.190   8.504   3.858  1.0399  1.2783 -1.0709
 3472SOL    HW212285   4.283   8.422   3.771  1.0791 -0.6241  0.6802
 3473SOL     OW12286   7.467   0.507   8.809  0.0525  0.0476  0.0773
 3473SOL    HW112287   7.499   0.463   8.887  0.6312 -2.0372 -1.2396
 3473SOL    HW212288   7.400   0.447   8.774 -0.1510  0.8965 -1.0513
 3474SOL     OW12289   1.983   0.204   5.841  0.1517 -0.2233  0.4529
 3474SOL    HW112290   1.890   0.186   5.827  0.2572 -0.4096 -0.0232
 3474SOL    HW212291   1.991   0.218   5.936 -0.1979 -1.1156  0.6192
 3475SOL     OW12292   8.386   2.948   2.110  0.2695 -0.2446 -0.5974
 3475SOL    HW112293   8.339   3.015   2.159 -0.3263 -0.7384 -0.4836
 3475SOL    HW212294   8.478   2.961   2.134 -0.1749 -2.1577  2.8697
 3476SOL     OW12295   4.975   2.122   7.157 -0.1319  0.3698 -0.2769
 3476SOL    HW112296   4.965   2.027   7.147  0.4651  0.4051 -1.3412
 3476SOL    HW212297   5.003   2.133   7.248 -1.8322 -0.3221  0.3798
 3477SOL     OW12298   5.820   5.507   4.202  0.0799  0.1448 -0.2564
 3477SOL    HW112299   5.803   5.421   4.164  0.4169 -1.2453  2.4844
 3477SOL    HW212300   5.902   5.496   4.250 -0.6432  1.5239  1.3892
 3478SOL     OW12301   7.107   7.073   1.675  0.2695 -0.3370 -0.0609
 3478SOL    HW112302   7.114   7.145   1.613 -2.0995  0.0529  0.0442
 3478SOL    HW212303   7.132   6.995   1.625  0.4120  0.2242 -0.8782
 3479SOL     OW12304   5.180   5.964   5.100 -0.0410  0.0097 -1.0677
 3479SOL    HW112305   5.158   5.982   5.008 -2.2352 -0.0491 -0.6031
 3479SOL    HW212306   5.144   6.039   5.148  1.4211  0.2265 -0.2523
 3480SOL     OW12307   0.091   2.250   7.610 -0.9822 -0.2430  0.0664
 3480SOL    HW112308   0.080   2.343   7.631  0.2517 -0.5353  2.3345
 3480SOL    HW212309   0.178   2.228   7.643 -1.7438 -2.4910  0.7938
 3481SOL     OW12310   2.792   3.011   6.519  0.0922 -0.4654  0.0718
 3481SOL    HW112311   2.807   2.921   6.491 -1.1603 -0.6570 -0.0105
 3481SOL    HW212312   2.710   3.036   6.477  0.9817  1.1101 -0.8184
 3482SOL     OW12313   6.785   8.620   2.362 -0.2102  0.2411 -0.0785
 3482SOL    HW112314   6.822   8.563   2.295  0.7380  1.6961 -0.8640
 3482SOL    HW212315   6.824   8.706   2.344  1.0579  0.4539  3.0893
 3483SOL     OW12316   0.475   1.373   5.272 -0.6721 -0.6107 -0.4466
 3483SOL    HW112317   0.450   1.284   5.247 -1.9044 -0.5975  0.6032
 3483SOL    HW212318   0.462   1.375   5.367  2.3171 -0.2104  0.0399
 3484SOL     OW12319   0.320   0.796   3.193 -0.3087  0.5486  0.1526
 3484SOL    HW112320   0.387   0.857   3.224  1.1985 -1.7517  1.7119
 3484SOL    HW212321   0.365   0.742   3.128 -0.2706 -1.6234  1.8779
 3485SOL     OW12322   2.333   6.396   2.713  0.3486 -0.2590  0.6918
 3485SOL    HW112323   2.396   6.325   2.698  0.5928 -0.2986  1.8205
 3485SOL    HW212324   2.253   6.352   2.739  0.0436 -0.1749 -0.0763
 3486SOL     OW12325   6.493   7.426   5.164 -0.5812  0.0735 -0.0763
 3486SOL    HW112326   6.510   7.450   5.073 -0.0124  0.4847  0.1270
 3486SOL    HW212327   6.517   7.505   5.214 -0.8302 -0.1671  0.4329
 3487SOL     OW12328   2.890   4.583   1.032 -0.2199 -0.5485 -0.1530
 3487SOL    HW112329   2.845   4.515   0.981 -0.1786 -1.0235  0.4403
 3487SOL    HW212330   2.894   4.548   1.121  2.2523 -1.0109 -0.3880
 3488SOL     OW12331   6.372   8.707   3.022  0.3531  0.9421  0.1146
 3488SOL    HW112332   6.431   8.682   2.951  1.1929  0.6677  0.8938
 3488SOL    HW212333   6.430   8.728   3.096 -0.4450 -2.8762  2.1239
 3489SOL     OW12334   5.916   3.875   5.410  0.1323 -0.5561 -0.1236
 3489SOL    HW112335   5.950   3.804   5.354 -1.1513 -1.8224  0.6253
 3489SOL    HW212336   5.836   3.838   5.448  1.5705 -0.2808  3.5924
 3490SOL     OW12337   8.471   5.359   1.441 -0.3005 -0.3954  0.3570
 3490SOL    HW112338   8.529   5.363   1.365 -0.7129  2.3236  0.0828
 3490SOL    HW212339   8.399   5.302   1.414  1.0506 -1.9802 -0.1056
 3491SOL     OW12340   0.368   4.082   4.762  0.1866  0.2443  0.3348
 3491SOL    HW112341   0.363   4.054   4.671  0.4742  0.1365  0.3504
 3491SOL    HW212342   0.432   4.023   4.801 -0.9320 -0.6177  0.9452
 3492SOL     OW12343   0.380   8.977   0.901  0.3663  0.3601 -0.9031
 3492SOL    HW112344   0.345   8.915   0.965  0.3447  0.7261 -0.5577
 3492SOL    HW212345   0.468   8.997   0.933  0.7567 -0.2507 -1.5507
 3493SOL     OW12346   2.484   8.544   3.198  0.0413 -0.7343 -0.0932
 3493SOL    HW112347   2.510   8.635   3.188 -0.9189 -0.4295  0.0551
 3493SOL    HW212348   2.566   8.494   3.193  0.7825  0.2526  1.4908
 3494SOL     OW12349   3.163   5.543   4.231  0.3043  0.1599  0.2831
 3494SOL    HW112350   3.234   5.583   4.181 -0.7935 -0.4800 -1.8866
 3494SOL    HW212351   3.107   5.502   4.165  0.9295 -4.3756  2.1879
 3495SOL     OW12352   5.281   8.443   5.334 -0.2651  0.2465  0.6953
 3495SOL    HW112353   5.302   8.530   5.302  1.1351 -0.1798  0.3900
 3495SOL    HW212354   5.205   8.416   5.282 -0.3332  1.0402  0.3728
 3496SOL     OW12355   0.474   5.260   2.260  0.2829 -0.0988 -0.4433
 3496SOL    HW112356   0.558   5.267   2.214 -0.2353  3.2418 -1.1447
 3496SOL    HW212357   0.498   5.242   2.351  1.7484  0.4515 -0.6970
 3497SOL     OW12358   1.489   0.250   8.269  0.3446  0.5508 -0.2855
 3497SOL    HW112359   1.522   0.167   8.301  1.4361  1.9622  2.6656
 3497SOL    HW212360   1.407   0.264   8.317 -0.4112  0.7330 -1.5621
 3498SOL     OW12361   0.261   6.776   7.875 -0.2056 -0.8305 -0.5696
 3498SOL    HW112362   0.278   6.705   7.937  1.6131 -0.2994 -0.4205
 3498SOL    HW212363   0.272   6.735   7.789 -0.3600 -1.0012 -0.5105
 3499SOL     OW12364   3.217   7.195   7.246 -0.6225 -0.2111 -0.8233
 3499SOL    HW112365   3.165   7.115   7.246 -1.8085  0.4345  2.1014
 3499SOL    HW212366   3.299   7.170   7.289 -2.4400  0.7264  3.7781
 3500SOL     OW12367   8.412   1.499   7.688  0.0606 -0.2152  0.1607
 3500SOL    HW112368   8.424   1.541   7.774  1.7943 -1.5567  0.6187
 3500SOL    HW212369   8.377   1.412   7.709 -0.2844 -0.2571 -0.5621
 3501SOL     OW12370   2.499   6.363   5.910 -0.3184 -0.0471 -0.4572
 3501SOL    HW112371   2.583   6.371   5.864  0.6748  1.3643  1.4474
 3501SOL    HW212372   2.524   6.353   6.002 -2.2421  0.8781  0.2076
 3502SOL     OW12373   6.611   4.355   1.140  0.1856  0.3936 -0.3460
 3502SOL    HW112374   6.594   4.291   1.209  2.2760  0.1754  0.0282
 3502SOL    HW212375   6.606   4.304   1.058 -0.7182  0.3197 -0.2539
 3503SOL     OW12376   4.116   6.956   5.369 -0.5936  0.5395 -0.2077
 3503SOL    HW112377   4.076   6.945   5.455 -1.9464  1.4080 -0.7004
 3503SOL    HW212378   4.144   6.868   5.344 -2.2654 -0.1193  0.1406
 3504SOL     OW12379   3.699   4.533   3.905  0.3120  0.3324 -0.3984
 3504SOL    HW112380   3.767   4.480   3.864  0.1053  0.8050 -1.3855
 3504SOL    HW212381   3.618   4.485   3.889  0.4293 -0.4828  1.2058
 3505SOL     OW12382   4.892   5.664   4.151 -0.0370 -0.2329 -0.3205
 3505SOL    HW112383   4.806   5.679   4.111  1.2803  0.4083 -3.1502
 3505SOL    HW212384   4.928   5.751   4.165  0.1889 -0.4958  0.8510
 3506SOL     OW12385   6.131   1.508   6.409  0.5039 -0.2480  0.2392
 3506SOL    HW112386   6.220   1.474   6.407  0.9530  0.9072 -0.9945
 3506SOL    HW212387   6.127   1.568   6.335 -1.1786  0.0365  0.5292
 3507SOL     OW12388   4.104   3.392   3.303  0.7548  0.3721  0.4634
 3507SOL    HW112389   4.121   3.464   3.365  0.2652  0.6621  0.2666
 3507SOL    HW212390   4.097   3.314   3.359 -2.6358  1.0214  1.2070
 3508SOL     OW12391   2.629   8.837   7.674  0.0605 -0.0914  0.0191
 3508SOL    HW112392   2.549   8.866   7.717 -0.2080 -0.5250 -0.1735
 3508SOL    HW212393   2.662   8.914   7.628 -0.3155  0.0560 -0.0013
 3509SOL     OW12394   1.800   8.132   6.364 -0.6563 -0.4063  0.1341
 3509SOL    HW112395   1.828   8.113   6.275 -0.8431  0.1816 -0.0542
 3509SOL    HW212396   1.740   8.206   6.355  0.0172  0.2352  0.8376
 3510SOL     OW12397   6.193   6.285   3.857 -0.0675 -0.0355  0.0430
 3510SOL    HW112398   6.160   6.222   3.920 -1.2743 -0.6491 -1.1582
 3510SOL    HW212399   6.144   6.267   3.776  2.6099 -0.4374 -1.6115
 3511SOL     OW12400   7.571   5.197   8.366  0.3270  0.2568 -0.0674
 3511SOL    HW112401   7.497   5.214   8.424  0.9534  0.6133  0.6498
 3511SOL    HW212402   7.531   5.184   8.279 -0.8074 -2.3010  0.7600
 3512SOL     OW12403   7.528   3.122   1.722  0.0626  0.0285  0.1969
 3512SOL    HW112404   7.560   3.179   1.792  1.8502  0.5663 -0.9836
 3512SOL    HW212405   7.566   3.158   1.642 -1.5617 -0.8325 -1.0223
 3513SOL     OW12406   4.490   8.565   6.236 -0.1138  0.3681 -0.6063
 3513SOL    HW112407   4.540   8.495   6.278 -0.0776 -0.0916 -1.3853
 3513SOL    HW212408   4.430   8.596   6.304 -0.1287 -0.4228 -0.2408
 3514SOL     OW12409   0.440   3.558   7.019 -0.2031 -0.1196 -0.0569
 3514SOL    HW112410   0.472   3.599   6.939  0.6026  0.9768  0.7956
 3514SOL    HW212411   0.504   3.583   7.086 -2.0282  0.8696  1.3939
 3515SOL     OW12412   3.585   8.337   5.429  0.5884  0.1734 -0.3510
 3515SOL    HW112413   3.585   8.338   5.524  1.0417  0.8999 -0.3516
 3515SOL    HW212414   3.516   8.397   5.403 -0.7739 -1.3955 -0.4988
 3516SOL     OW12415   0.369   3.384   0.387  0.1118  0.4820 -0.5012
 3516SOL    HW112416   0.300   3.350   0.444  0.7863 -0.8334 -0.4418
 3516SOL    HW212417   0.322   3.427   0.316 -0.8305 -1.6652 -1.2413
 3517SOL     OW12418   0.660   5.472   4.075  0.0415 -0.0339  0.4857
 3517SOL    HW112419   0.590   5.421   4.116  0.0065 -0.1647  0.2678
 3517SOL    HW212420   0.628   5.487   3.986  0.0268  0.4168  0.5638
 3518SOL     OW12421   1.385   4.518   8.420 -0.1190 -0.1956 -0.3563
 3518SOL    HW112422   1.367   4.609   8.442  1.4819  0.2228 -0.6468
 3518SOL    HW212423   1.409   4.478   8.504  0.8369  0.0883 -0.4838
 3519SOL     OW12424   8.593   0.250   4.725  0.4567  0.0297 -0.0362
 3519SOL    HW112425   8.596   0.211   4.813 -0.0946 -0.5052 -0.2437
 3519SOL    HW212426   8.648   0.328   4.731  0.4553 -0.0227  0.7757
 3520SOL     OW12427   4.429   8.547   8.655 -0.4033 -0.1546  0.4455
 3520SOL    HW112428   4.362   8.598   8.609  0.7666  0.5256 -0.5573
 3520SOL    HW212429   4.397   8.457   8.652 -0.9873  0.0701 -0.5307
 3521SOL     OW12430   6.081   5.648   2.001 -0.3585 -0.0443  0.2185
 3521SOL    HW112431   6.136   5.619   1.928  0.3575  1.3430  0.1676
 3521SOL    HW212432   6.141   5.691   2.061 -1.0904 -0.3247  1.1713
 3522SOL     OW12433   0.907   2.557   7.949 -0.3928  0.1108 -0.4110
 3522SOL    HW112434   0.837   2.602   7.902 -1.3038  2.0377  2.5295
 3522SOL    HW212435   0.970   2.626   7.969  1.7673 -1.3369 -1.8034
 3523SOL     OW12436   0.987   6.472   6.248 -0.0067  0.4365  0.3149
 3523SOL    HW112437   0.909   6.524   6.265 -2.0726 -3.2052  3.6377
 3523SOL    HW212438   1.031   6.466   6.333  0.8080 -2.0211 -0.1931
 3524SOL     OW12439   4.365   4.781   3.955  0.1391 -0.2025 -0.3412
 3524SOL    HW112440   4.311   4.820   4.023 -0.7453  0.3845 -1.3523
 3524SOL    HW212441   4.451   4.820   3.966  0.7209 -1.9075  1.9458
 3525SOL     OW12442   0.814   2.864   5.722  0.4328  0.5831  0.2208
 3525SOL    HW112443   0.786   2.949   5.754  0.4676  1.5566 -2.1462
 3525SOL    HW212444   0.909   2.864   5.734  0.3561  0.5447  0.8966
 3526SOL     OW12445   2.752   5.556   3.775  0.1613  0.1413  0.2930
 3526SOL    HW112446   2.705   5.608   3.841 -2.0475 -0.2731 -0.8418
 3526SOL    HW212447   2.787   5.621   3.714 -0.0230  0.4334  0.4939
 3527SOL     OW12448   2.289   6.146   1.993 -0.7730  0.1588  0.0729
 3527SOL    HW112449   2.342   6.203   1.937  2.6528 -1.0424  1.7662
 3527SOL    HW212450   2.270   6.070   1.937  0.3068  0.1362 -0.3025
 3528SOL     OW12451   8.617   6.033   6.697  0.0790  0.8199  0.2480
 3528SOL    HW112452   8.605   5.995   6.610  0.4490 -0.1549  0.6034
 3528SOL    HW212453   8.625   6.127   6.682 -0.0514  0.6778 -0.7503
 3529SOL     OW12454   1.282   5.650   6.113 -0.2673  0.2146  0.5422
 3529SOL    HW112455   1.293   5.729   6.061 -0.8142 -0.2598 -0.3274
 3529SOL    HW212456   1.334   5.583   6.068 -0.7882 -0.2167  0.5622
 3530SOL     OW12457   2.329   4.433   5.059  0.4602 -0.2901  0.3986
 3530SOL    HW112458   2.318   4.528   5.061  2.5583  0.0166 -0.1800
 3530SOL    HW212459   2.361   4.414   4.971 -0.0883 -1.5651  0.4537
 3531SOL     OW12460   8.077   8.434   6.673 -0.0479 -0.3637 -0.5430
 3531SOL    HW112461   8.020   8.486   6.729  1.6057  1.0306 -0.0835
 3531SOL    HW212462   8.156   8.487   6.663  1.3963 -2.4296 -0.7264
 3532SOL     OW12463   2.276   4.846   4.040 -0.4848  0.2467  0.3377
 3532SOL    HW112464   2.314   4.759   4.052 -2.9912 -0.9200  0.5422
 3532SOL    HW212465   2.184   4.829   4.019 -0.6684  2.8247 -1.4078
 3533SOL     OW12466   6.540   5.169   0.664  0.1522 -0.1768 -0.4505
 3533SOL    HW112467   6.470   5.108   0.639  0.4103 -1.0849  0.9465
 3533SOL    HW212468   6.498   5.255   0.663 -0.9843 -0.6952  0.2483
 3534SOL     OW12469   3.267   7.045   5.110 -0.1861  0.0455  0.0626
 3534SOL    HW112470   3.195   6.984   5.094  0.2197 -0.1619 -1.1019
 3534SOL    HW212471   3.235   7.104   5.178 -0.6902 -1.2855  1.0045
 3535SOL     OW12472   1.195   2.850   3.461 -0.1424  0.0702  0.0237
 3535SOL    HW112473   1.167   2.760   3.450  0.6792 -0.3590  1.2878
 3535SOL    HW212474   1.123   2.893   3.507  0.2792 -0.4411  1.1746
 3536SOL     OW12475   2.501   3.714   5.987 -0.4134 -0.0198  0.3591
 3536SOL    HW112476   2.530   3.623   5.995  1.5789  0.6250  1.0906
 3536SOL    HW212477   2.556   3.750   5.918 -1.3029  0.6128 -0.0377
 3537SOL     OW12478   3.183   0.145   1.219 -0.1131  0.0979 -0.4995
 3537SOL    HW112479   3.251   0.088   1.183 -0.1853 -0.6604  0.5103
 3537SOL    HW212480   3.228   0.201   1.281 -0.4149 -0.4757  0.2480
 3538SOL     OW12481   0.060   5.328   6.048 -0.1974 -0.1314  0.3983
 3538SOL    HW112482   0.076   5.422   6.053  0.0131 -0.1841  0.7541
 3538SOL    HW212483   0.125   5.290   6.107 -0.5317 -0.4747  0.5468
 3539SOL     OW12484   6.986   8.110   0.506  0.0616 -0.3091 -0.6580
 3539SOL    HW112485   7.048   8.050   0.547  0.1603  0.4407  0.3322
 3539SOL    HW212486   7.032   8.144   0.429 -0.0298 -1.5421 -1.2806
 3540SOL     OW12487   3.249   6.180   2.208  0.2254 -0.4496 -0.1526
 3540SOL    HW112488   3.165   6.191   2.164  0.5457  1.8558 -0.3427
 3540SOL    HW212489   3.282   6.095   2.178 -1.7142 -1.0958 -0.5812
 3541SOL     OW12490   6.165   8.963   0.672 -0.0153  0.4539 -0.1628
 3541SOL    HW112491   6.095   9.022   0.644 -1.1045 -0.9141 -0.4481
 3541SOL    HW212492   6.121   8.878   0.683  1.5135 -0.3237  0.1418
 3542SOL     OW12493   8.495   8.665   0.840  0.0426  0.6836  0.1082
 3542SOL    HW112494   8.555   8.680   0.913 -0.0280  0.8138  0.1409
 3542SOL    HW212495   8.417   8.716   0.863  0.2480  1.2094 -0.3380
 3543SOL     OW12496   7.269   6.301   6.124 -0.1478 -0.2153  0.2128
 3543SOL    HW112497   7.339   6.237   6.108  0.0571  0.3164 -1.1348
 3543SOL    HW212498   7.306   6.361   6.190 -0.0746 -1.0451  0.9401
 3544SOL     OW12499   6.938   3.731   3.512  0.1264  0.2635 -0.3684
 3544SOL    HW112500   7.029   3.753   3.529 -0.4659  1.5024  1.5467
 3544SOL    HW212501   6.890   3.813   3.522 -1.2824 -0.4812 -0.6171
 3545SOL     OW12502   2.729   2.156   3.085  0.4133 -0.0937 -0.0015
 3545SOL    HW112503   2.655   2.145   3.144 -0.1170 -0.2476 -0.6915
 3545SOL    HW212504   2.799   2.191   3.141 -0.4528  0.9358  0.4802
 3546SOL     OW12505   0.851   3.244   2.029  0.0903  0.0752 -0.1438
 3546SOL    HW112506   0.854   3.210   1.940 -1.5890  2.2662 -1.1336
 3546SOL    HW212507   0.776   3.200   2.069  1.5163 -1.7538  0.6315
 3547SOL     OW12508   2.168   7.436   5.934 -0.4563 -0.2940 -0.1891
 3547SOL    HW112509   2.247   7.397   5.897 -0.2925  0.1707 -0.3372
 3547SOL    HW212510   2.165   7.403   6.024  0.6108  0.6838  0.2228
 3548SOL     OW12511   7.558   2.446   1.786 -0.3891  0.3003 -0.1321
 3548SOL    HW112512   7.477   2.459   1.835 -0.7328  0.3553 -0.7002
 3548SOL    HW212513   7.569   2.351   1.783 -0.2113  0.3074  0.2984
 3549SOL     OW12514   0.488   2.621   0.519  0.0141  0.0353  0.1811
 3549SOL    HW112515   0.410   2.607   0.465  0.5970  0.1728 -0.7185
 3549SOL    HW212516   0.454   2.641   0.606 -0.9396 -0.8976  0.0398
 3550SOL     OW12517   2.151   6.047   5.478 -0.0557  0.3389 -0.0766
 3550SOL    HW112518   2.242   6.046   5.508 -0.4830  0.8390  1.3404
 3550SOL    HW212519   2.109   5.977   5.528 -0.4755  0.2012 -0.6162
 3551SOL     OW12520   0.069   3.314   7.668 -0.4230 -0.1355 -0.7746
 3551SOL    HW112521   0.128   3.253   7.624 -0.2667 -0.0835 -0.6375
 3551SOL    HW212522   0.071   3.288   7.760  0.3656  0.6489 -0.5541
 3552SOL     OW12523   3.327   6.052   0.743 -0.2974  0.2704 -0.4307
 3552SOL    HW112524   3.363   6.071   0.830  1.2145 -1.2768 -0.6535
 3552SOL    HW212525   3.237   6.084   0.746 -0.0884  0.7912  1.4952
 3553SOL     OW12526   4.176   2.600   3.758 -0.7689 -0.0686 -0.1827
 3553SOL    HW112527   4.181   2.506   3.776 -0.1429  0.3247  1.8898
 3553SOL    HW212528   4.267   2.627   3.747 -0.5227  0.9346  3.2032
 3554SOL     OW12529   8.094   6.229   8.162 -0.3388 -0.1446 -0.4779
 3554SOL    HW112530   8.171   6.172   8.168 -1.0636 -1.0755  0.2936
 3554SOL    HW212531   8.097   6.281   8.243 -0.4755 -0.1390 -0.4751
 3555SOL     OW12532   1.408   6.631   0.525 -0.2496 -0.1824  0.3413
 3555SOL    HW112533   1.432   6.577   0.600 -1.4743  0.0015  0.8976
 3555SOL    HW212534   1.490   6.671   0.497  0.4216 -1.1495  0.8554
 3556SOL     OW12535   1.677   3.994   4.094  0.6985 -0.6525  0.3888
 3556SOL    HW112536   1.729   4.033   4.165 -0.5215 -2.4674  2.3728
 3556SOL    HW212537   1.644   4.070   4.045  2.9303  0.6118  0.6956
 3557SOL     OW12538   2.241   7.801   6.313  0.2582  0.5442 -0.2052
 3557SOL    HW112539   2.153   7.774   6.287  0.4565  0.5090 -0.8571
 3557SOL    HW212540   2.262   7.874   6.256  0.0315  1.6182  1.0366
 3558SOL     OW12541   5.581   0.704   0.246  0.5586  0.4798  0.0819
 3558SOL    HW112542   5.586   0.749   0.161 -1.5364 -1.4869 -1.2223
 3558SOL    HW212543   5.510   0.748   0.292  1.4981  1.3527  0.7382
 3559SOL     OW12544   4.447   0.656   4.645  0.1717 -0.0270 -0.1386
 3559SOL    HW112545   4.410   0.600   4.713  0.8811 -2.0883 -1.3863
 3559SOL    HW212546   4.538   0.629   4.637  0.9274  2.2289  0.1057
 3560SOL     OW12547   6.753   2.705   8.631  0.4763  0.0581  0.2840
 3560SOL    HW112548   6.823   2.758   8.670  0.4102 -0.2332  0.7949
 3560SOL    HW212549   6.676   2.762   8.635  0.8170  0.6463 -0.9059
 3561SOL     OW12550   6.385   5.019   5.797  0.1469 -0.0119  0.4259
 3561SOL    HW112551   6.397   4.982   5.710 -0.1323 -1.7764  1.0949
 3561SOL    HW212552   6.473   5.048   5.823  0.3799 -0.2097 -0.1202
 3562SOL     OW12553   2.311   1.014   8.885 -0.4577  0.4800 -0.4074
 3562SOL    HW112554   2.289   1.014   8.792  1.4338 -0.4393 -0.8969
 3562SOL    HW212555   2.329   1.106   8.906  0.6582  0.5042 -1.3772
 3563SOL     OW12556   1.603   4.291   2.071 -0.2060  0.2631 -0.2710
 3563SOL    HW112557   1.645   4.207   2.052 -0.4804 -0.0323  0.4015
 3563SOL    HW212558   1.581   4.327   1.984 -0.3858 -0.5145 -0.5569
 3564SOL     OW12559   7.530   4.807   0.418 -0.0675  0.6731 -0.0046
 3564SOL    HW112560   7.451   4.859   0.403  0.1040  1.0304  0.3010
 3564SOL    HW212561   7.509   4.753   0.494  0.1127  1.0511  0.3199
 3565SOL     OW12562   0.977   3.143   8.782 -0.5871  0.6209 -0.2286
 3565SOL    HW112563   0.928   3.074   8.826  1.1486 -0.4309  0.1669
 3565SOL    HW212564   1.060   3.102   8.757 -0.5418  1.8685 -2.3477
 3566SOL     OW12565   7.820   7.506   5.313  0.0742 -0.1201 -0.6091
 3566SOL    HW112566   7.844   7.414   5.314  1.2429  0.1637 -1.0364
 3566SOL    HW212567   7.758   7.516   5.386  1.0739 -0.9471  0.3896
 3567SOL     OW12568   4.327   4.948   5.367  0.5920  0.0201  0.0936
 3567SOL    HW112569   4.380   4.886   5.417  1.0454 -0.9524 -1.5285
 3567SOL    HW212570   4.350   4.931   5.275 -0.1137  1.8246 -0.4597
 3568SOL     OW12571   5.156   8.537   1.672  0.4376  0.3407 -0.4352
 3568SOL    HW112572   5.084   8.494   1.716  1.1134 -0.1768  0.1907
 3568SOL    HW212573   5.176   8.613   1.728 -0.2782  1.0769 -1.1509
 3569SOL     OW12574   7.058   1.328   1.934  0.2875  0.0499  0.2014
 3569SOL    HW112575   7.097   1.380   1.863 -0.6879 -0.5233 -0.7811
 3569SOL    HW212576   7.072   1.237   1.907 -1.2581 -0.1683  0.0742
 3570SOL     OW12577   2.836   7.990   1.284 -0.0189  0.0332  0.1203
 3570SOL    HW112578   2.755   8.040   1.284  0.4461  0.8331 -1.0263
 3570SOL    HW212579   2.853   7.971   1.192  0.1870 -1.6540  0.4777
 3571SOL     OW12580   2.381   6.901   6.270  0.0076  0.3084 -0.1148
 3571SOL    HW112581   2.335   6.830   6.225 -0.3429 -0.2240  1.0478
 3571SOL    HW212582   2.465   6.907   6.225 -0.1516 -0.5095 -0.5461
 3572SOL     OW12583   8.153   4.900   7.487 -0.0118 -0.3824  0.0053
 3572SOL    HW112584   8.147   4.820   7.435  0.3678 -1.0062  0.8987
 3572SOL    HW212585   8.238   4.894   7.530  0.1479  0.6496 -0.1337
 3573SOL     OW12586   7.001   4.494   2.729  0.9801 -0.6003  0.1312
 3573SOL    HW112587   6.999   4.400   2.745  1.8030 -0.4608  1.1400
 3573SOL    HW212588   7.072   4.527   2.784  1.4402  0.4594 -1.0465
 3574SOL     OW12589   0.891   5.946   8.787  0.5630  0.0522  0.2454
 3574SOL    HW112590   0.862   6.019   8.733 -0.4429 -0.6813 -0.2377
 3574SOL    HW212591   0.946   5.893   8.729 -1.5915 -1.4548 -0.5582
 3575SOL     OW12592   1.796   4.474   2.316 -0.3169 -0.3270 -0.1128
 3575SOL    HW112593   1.847   4.417   2.258 -0.7357 -0.5280 -0.2970
 3575SOL    HW212594   1.805   4.435   2.403  0.4838  0.0944 -0.0050
 3576SOL     OW12595   7.965   6.763   6.319 -0.0389  0.1754 -0.4708
 3576SOL    HW112596   7.999   6.675   6.301 -0.1635 -0.4269  1.9462
 3576SOL    HW212597   8.029   6.802   6.379 -1.3740  0.6913  0.6501
 3577SOL     OW12598   5.171   1.265   3.950 -0.2903 -0.5942 -0.4001
 3577SOL    HW112599   5.181   1.355   3.920  1.5528  0.0826  1.8973
 3577SOL    HW212600   5.078   1.256   3.970 -0.4356  0.9649 -0.2832
 3578SOL     OW12601   1.635   2.247   3.033  0.4274 -0.0109  0.0244
 3578SOL    HW112602   1.569   2.245   2.963 -0.7136  0.0367  1.0519
 3578SOL    HW212603   1.687   2.168   3.018 -0.0738 -0.2342 -0.6198
 3579SOL     OW12604   7.847   4.673   5.943 -0.1206  0.2293 -0.0902
 3579SOL    HW112605   7.942   4.669   5.929 -0.0869  1.0915 -0.1661
 3579SOL    HW212606   7.827   4.595   5.995  0.5721 -0.1531 -0.3774
 3580SOL     OW12607   0.163   8.649   0.814 -0.5610  0.1132 -0.2203
 3580SOL    HW112608   0.179   8.742   0.795 -0.6028  0.6514  2.0364
 3580SOL    HW212609   0.087   8.650   0.872  0.1817 -1.2319  0.8047
 3581SOL     OW12610   8.262   3.765   2.443 -0.1429 -0.0797 -0.1193
 3581SOL    HW112611   8.225   3.710   2.512  1.9038 -2.5592 -0.8543
 3581SOL    HW212612   8.276   3.850   2.486 -3.0751 -0.1066  1.1562
 3582SOL     OW12613   6.775   1.131   6.709 -0.2649  0.3348 -0.0555
 3582SOL    HW112614   6.712   1.142   6.781 -0.3936  2.3166 -0.3971
 3582SOL    HW212615   6.838   1.067   6.742 -1.4122 -0.2856  1.0410
 3583SOL     OW12616   1.245   5.856   0.791  0.2897  0.6224  0.0710
 3583SOL    HW112617   1.207   5.781   0.837  2.0500 -0.7128 -0.5664
 3583SOL    HW212618   1.330   5.869   0.833  0.8153  1.0273 -1.0737
 3584SOL     OW12619   3.447   8.833   1.384  0.3103  0.5243 -0.0363
 3584SOL    HW112620   3.474   8.924   1.394 -1.3093  1.0502 -0.2674
 3584SOL    HW212621   3.412   8.808   1.470 -0.4939  0.5607 -0.3446
 3585SOL     OW12622   0.686   7.901   7.303  0.0415 -0.8344 -0.1679
 3585SOL    HW112623   0.728   7.954   7.371 -0.3014  0.6424 -1.0587
 3585SOL    HW212624   0.595   7.930   7.303 -0.0816 -1.1967 -0.8982
 3586SOL     OW12625   0.050   8.156   7.356 -0.2751  0.2103 -0.6917
 3586SOL    HW112626   0.118   8.213   7.320  0.1073 -0.9510 -1.8571
 3586SOL    HW212627   0.068   8.154   7.450  1.8189 -0.7166 -1.0538
 3587SOL     OW12628   4.787   2.110   3.375  0.0116 -0.3273  0.2165
 3587SOL    HW112629   4.794   2.076   3.286  0.3675 -1.5881  0.7073
 3587SOL    HW212630   4.829   2.196   3.371  0.7768 -0.7241 -0.6493
 3588SOL     OW12631   3.835   2.372   3.241 -0.2033  0.1307  0.3050
 3588SOL    HW112632   3.772   2.354   3.171 -0.0711 -0.3693  0.3109
 3588SOL    HW212633   3.880   2.288   3.255  0.4973  0.4977  0.2692
 3589SOL     OW12634   7.580   7.972   6.612 -0.4987  0.3428 -0.0949
 3589SOL    HW112635   7.585   8.056   6.657 -0.9560 -0.1666  0.9719
 3589SOL    HW212636   7.660   7.926   6.638 -0.3743  0.3546 -0.4617
 3590SOL     OW12637   7.340   6.187   5.783  0.4285 -0.2945 -0.9577
 3590SOL    HW112638   7.273   6.130   5.822  0.9858 -2.1457 -2.5306
 3590SOL    HW212639   7.296   6.270   5.769 -0.9693 -0.8674 -0.1868
 3591SOL     OW12640   6.207   2.491   7.883  0.4344  0.5864  0.0922
 3591SOL    HW112641   6.301   2.482   7.868  0.5146 -1.5500  1.5250
 3591SOL    HW212642   6.199   2.571   7.936  1.4966  0.4663  0.4604
 3592SOL     OW12643   1.967   1.378   6.703  0.0060 -0.1173 -0.1672
 3592SOL    HW112644   1.947   1.451   6.762  1.7222 -0.5826  1.0887
 3592SOL    HW212645   1.939   1.300   6.751 -0.4395 -0.3843 -0.8518
 3593SOL     OW12646   1.453   3.964   2.151  0.3345  0.2203 -0.3219
 3593SOL    HW112647   1.410   4.047   2.173 -0.0346 -0.3157  1.1251
 3593SOL    HW212648   1.470   3.923   2.236  3.5413  0.2828 -0.7846
 3594SOL     OW12649   7.695   6.058   0.670  0.2063  0.6168 -0.3744
 3594SOL    HW112650   7.639   6.092   0.739  0.6630  0.4069  0.1093
 3594SOL    HW212651   7.773   6.027   0.716  0.7265  0.9228 -1.0326
 3595SOL     OW12652   7.409   1.250   1.289  0.2151  0.3832 -0.0083
 3595SOL    HW112653   7.348   1.290   1.227 -0.2589 -0.2121  0.0674
 3595SOL    HW212654   7.357   1.235   1.368  0.8660  1.3400  0.6277
 3596SOL     OW12655   6.716   0.356   1.222 -0.8566 -0.5947  0.2934
 3596SOL    HW112656   6.737   0.272   1.182 -0.2414 -0.1503 -0.3491
 3596SOL    HW212657   6.781   0.366   1.292  0.8210  0.5300 -1.3417
 3597SOL     OW12658   5.153   1.375   6.732 -0.3886 -0.4368  0.9798
 3597SOL    HW112659   5.097   1.310   6.773  0.0712 -1.8552 -0.5192
 3597SOL    HW212660   5.219   1.323   6.685 -0.5900  1.0609 -1.0984
 3598SOL     OW12661   1.241   2.219   6.367 -0.3702 -0.3306 -0.0708
 3598SOL    HW112662   1.281   2.289   6.418  1.4231 -0.0182 -1.8183
 3598SOL    HW212663   1.231   2.147   6.430  0.5666  0.4625  1.0321
 3599SOL     OW12664   4.203   2.711   6.776  0.3557  0.3969 -0.8928
 3599SOL    HW112665   4.172   2.623   6.758  0.7954  0.3064 -1.2180
 3599SOL    HW212666   4.211   2.752   6.690  0.1908  0.7415 -0.7464
 3600SOL     OW12667   3.187   0.777   2.821 -0.0624 -0.1299  0.3328
 3600SOL    HW112668   3.194   0.702   2.762 -0.8012 -0.3936  0.5715
 3600SOL    HW212669   3.201   0.741   2.908  2.1916  0.4493  0.2582
 3601SOL     OW12670   6.573   8.781   6.193  0.2000 -0.0368 -0.3593
 3601SOL    HW112671   6.487   8.741   6.208  0.5334 -0.8821 -0.6446
 3601SOL    HW212672   6.581   8.786   6.098 -0.0528  1.2127 -0.3243
 3602SOL     OW12673   7.732   3.554   3.319 -0.0009  0.4977  0.1026
 3602SOL    HW112674   7.656   3.507   3.286  0.4543 -1.0534  1.1770
 3602SOL    HW212675   7.803   3.531   3.259 -0.2974  1.7998 -0.7924
 3603SOL     OW12676   8.242   7.753   8.272  0.1575 -0.1939  0.1107
 3603SOL    HW112677   8.236   7.659   8.253 -0.2291 -0.1274 -0.1063
 3603SOL    HW212678   8.165   7.772   8.324  0.5295 -0.1060  0.6322
 3604SOL     OW12679   8.590   3.743   6.697  0.1891 -0.1856  0.5659
 3604SOL    HW112680   8.530   3.687   6.648 -0.3727  1.2225 -0.4148
 3604SOL    HW212681   8.637   3.683   6.755 -0.0417 -1.7352 -0.7740
 3605SOL     OW12682   3.344   7.719   3.923  0.1729  0.2046 -0.0015
 3605SOL    HW112683   3.262   7.673   3.905  0.4612 -0.4937  0.4211
 3605SOL    HW212684   3.361   7.769   3.844  0.2748 -1.0577 -0.8025
 3606SOL     OW12685   5.621   2.941   4.549 -0.5264 -0.0882 -0.7442
 3606SOL    HW112686   5.661   2.907   4.469 -0.6612 -0.6356 -0.5846
 3606SOL    HW212687   5.533   2.968   4.522 -0.1435  0.9057 -1.0451
 3607SOL     OW12688   7.054   6.443   6.231 -0.5988  0.1580 -0.4338
 3607SOL    HW112689   7.106   6.377   6.184  0.9306  0.4453  0.7555
 3607SOL    HW212690   7.110   6.521   6.230 -1.4565  0.7858  0.0294
 3608SOL     OW12691   7.851   0.839   6.682  0.1549  0.1685 -0.0905
 3608SOL    HW112692   7.846   0.771   6.615  0.9307  0.5976 -0.6038
 3608SOL    HW212693   7.938   0.828   6.721 -0.6989 -0.7705  1.6151
 3609SOL     OW12694   2.428   3.373   4.913 -0.3319  0.1379 -0.1951
 3609SOL    HW112695   2.388   3.332   4.989  0.4717 -1.6585 -0.6877
 3609SOL    HW212696   2.371   3.348   4.840  1.1672 -1.7828 -0.7830
 3610SOL     OW12697   3.093   7.947   5.422  0.1813  0.6625  0.2442
 3610SOL    HW112698   3.021   7.997   5.382 -1.0457  1.4254  3.1395
 3610SOL    HW212699   3.172   7.981   5.381 -0.8461  2.7351 -0.1342
 3611SOL     OW12700   4.824   4.168   1.214 -0.2401  0.3560 -0.9247
 3611SOL    HW112701   4.752   4.123   1.258  2.5245 -1.7634  1.8415
 3611SOL    HW212702   4.824   4.257   1.251 -1.0197  0.1728 -0.4679
 3612SOL     OW12703   2.158   1.311   5.020 -0.2183 -0.2007  0.8414
 3612SOL    HW112704   2.212   1.233   5.033  0.9265  0.7110  1.8137
 3612SOL    HW212705   2.068   1.281   5.030  0.2004 -1.4065  1.0653
 3613SOL     OW12706   3.195   1.087   8.890  0.2012 -0.2690 -0.2924
 3613SOL    HW112707   3.226   1.175   8.911  4.2723  0.1016 -5.6891
 3613SOL    HW212708   3.099   1.093   8.897  0.3995  3.6023  2.2952
 3614SOL     OW12709   0.260   2.139   6.833  0.1060 -0.4830 -0.2739
 3614SOL    HW112710   0.324   2.068   6.829  0.0739 -0.5059 -0.3926
 3614SOL    HW212711   0.202   2.115   6.906 -0.1710 -0.8047 -0.5949
 3615SOL     OW12712   5.638   8.975   0.195  0.2066 -0.1410  0.4323
 3615SOL    HW112713   5.710   8.937   0.144  1.1654  1.8640  0.1890
 3615SOL    HW212714   5.609   9.050   0.143 -1.4487 -0.3500  0.9937
 3616SOL     OW12715   0.838   4.765   0.928 -0.0170 -0.3946 -0.0591
 3616SOL    HW112716   0.873   4.675   0.925 -2.3129 -1.4309  1.3916
 3616SOL    HW212717   0.856   4.794   1.017  0.0668  0.3176 -0.3078
 3617SOL     OW12718   8.880   3.295   8.849  0.3109 -0.1923 -0.5383
 3617SOL    HW112719   8.816   3.224   8.857  0.3856 -0.5093 -2.2691
 3617SOL    HW212720   8.963   3.250   8.833  0.4001  0.2540 -1.4249
 3618SOL     OW12721   2.663   4.390   8.571  0.3214 -0.4745 -0.2011
 3618SOL    HW112722   2.626   4.305   8.594 -0.4588 -0.3086 -0.8058
 3618SOL    HW212723   2.757   4.373   8.557 -0.0168 -1.4630 -1.4336
 3619SOL     OW12724   5.904   6.478   2.608 -0.1117  0.3179  0.8275
 3619SOL    HW112725   5.919   6.415   2.538 -0.9516 -0.0719  0.9939
 3619SOL    HW212726   5.939   6.560   2.573 -1.6636  0.4434 -0.5999
 3620SOL     OW12727   2.921   4.468   5.823  0.1013  0.1383  0.1563
 3620SOL    HW112728   2.986   4.458   5.754  0.9706  0.1644  0.9660
 3620SOL    HW212729   2.883   4.555   5.807 -0.6707 -0.3880 -1.0788
 3621SOL     OW12730   0.083   8.720   3.726  0.3003 -0.1874 -0.2805
 3621SOL    HW112731   0.023   8.718   3.651 -1.1887 -1.9715  0.8667
 3621SOL    HW212732   0.170   8.721   3.687 -0.4325  0.9727 -2.0179
 3622SOL     OW12733   2.065   3.992   8.525  0.5461 -0.9422  0.6417
 3622SOL    HW112734   2.104   4.040   8.598  1.2064 -2.2888  1.2097
 3622SOL    HW212735   2.137   3.981   8.462  0.5394 -1.6243  0.7487
 3623SOL     OW12736   0.120   4.056   4.161 -0.1728 -0.5916 -0.3749
 3623SOL    HW112737   0.202   4.086   4.201 -1.5996  0.7854  1.7488
 3623SOL    HW212738   0.099   3.975   4.208 -1.6555  0.8247  1.5546
 3624SOL     OW12739   5.305   5.627   5.751 -0.0956  0.0677  0.2399
 3624SOL    HW112740   5.319   5.578   5.832  0.4663  0.8129  0.6089
 3624SOL    HW212741   5.344   5.573   5.683  1.0224  0.2525  0.7169
 3625SOL     OW12742   5.203   0.756   5.065 -0.5139  0.4409  0.5660
 3625SOL    HW112743   5.157   0.839   5.050 -2.9747 -1.1069 -1.2180
 3625SOL    HW212744   5.287   0.782   5.103 -1.4398  3.6857  0.7198
 3626SOL     OW12745   3.263   6.933   3.254  0.2310 -0.7469  0.1688
 3626SOL    HW112746   3.205   6.914   3.180 -0.8181 -0.5815  0.9284
 3626SOL    HW212747   3.246   7.025   3.275  1.3225 -0.4744 -0.0576
 3627SOL     OW12748   5.403   0.324   4.112  0.0863 -0.2672 -0.6869
 3627SOL    HW112749   5.404   0.245   4.167 -0.2783 -0.5855 -1.1365
 3627SOL    HW212750   5.485   0.321   4.064 -0.6051 -1.2159 -1.8779
 3628SOL     OW12751   1.725   6.931   4.404  0.4370 -0.0237 -0.1218
 3628SOL    HW112752   1.818   6.929   4.425  0.3151 -1.6218  0.3496
 3628SOL    HW212753   1.720   6.901   4.313  0.3940  0.3841 -0.2586
 3629SOL     OW12754   6.607   8.569   8.693 -0.3358 -0.4516 -0.1520
 3629SOL    HW112755   6.669   8.569   8.620 -1.8369  0.7765 -1.5046
 3629SOL    HW212756   6.591   8.477   8.712  0.3294 -0.7919 -1.1631
 3630SOL     OW12757   4.038   5.330   5.854 -0.3983 -0.0788  0.0530
 3630SOL    HW112758   4.037   5.426   5.846  2.1749 -0.0899 -1.9216
 3630SOL    HW212759   4.076   5.314   5.940  0.8825  0.7571 -0.3164
 3631SOL     OW12760   7.101   0.373   1.172  0.1806 -0.1682  0.0754
 3631SOL    HW112761   7.181   0.321   1.170 -1.5826 -3.0651 -0.9150
 3631SOL    HW212762   7.089   0.401   1.081  0.2895  0.6420  0.3083
 3632SOL     OW12763   3.446   1.124   3.812  0.2019  0.1987  0.1785
 3632SOL    HW112764   3.413   1.209   3.783  0.5344  1.1090  2.3357
 3632SOL    HW212765   3.367   1.070   3.823 -0.0322  0.2963 -0.8911
 3633SOL     OW12766   1.729   6.546   1.173  0.2548  0.2624  0.2313
 3633SOL    HW112767   1.648   6.565   1.126  0.3683  1.5003  0.4948
 3633SOL    HW212768   1.759   6.463   1.138 -0.6645  0.2343 -0.5091
 3634SOL     OW12769   8.118   1.415   0.649 -0.2032 -0.4875 -0.5891
 3634SOL    HW112770   8.166   1.445   0.726 -1.5652 -0.3399  0.2335
 3634SOL    HW212771   8.133   1.482   0.583 -2.3063  1.5771  0.8747
 3635SOL     OW12772   8.813   0.597   7.578  0.4074  0.2174 -0.1884
 3635SOL    HW112773   8.856   0.642   7.651 -0.4423  0.7854 -0.0286
 3635SOL    HW212774   8.864   0.623   7.501  3.1726 -2.6656  0.4246
 3636SOL     OW12775   2.441   6.178   3.667  0.3834 -0.1550  0.4958
 3636SOL    HW112776   2.471   6.230   3.741  0.6820 -0.8179  0.8452
 3636SOL    HW212777   2.355   6.216   3.645  2.0220  2.7802 -1.5190
 3637SOL     OW12778   0.833   6.663   8.771  0.2555 -0.4103  0.0965
 3637SOL    HW112779   0.912   6.618   8.801 -0.1480 -1.0004  0.2938
 3637SOL    HW212780   0.865   6.728   8.709  0.8445 -1.0345 -0.2696
 3638SOL     OW12781   6.291   3.877   5.369 -0.0838 -0.0134 -0.3105
 3638SOL    HW112782   6.246   3.909   5.447  0.0665  3.1695 -1.3990
 3638SOL    HW212783   6.379   3.854   5.400 -0.7657 -1.2630  0.8493
 3639SOL     OW12784   5.580   8.291   1.778  0.4984 -0.7912 -0.0243
 3639SOL    HW112785   5.594   8.354   1.849  2.0582  0.5754 -1.4576
 3639SOL    HW212786   5.487   8.271   1.782 -0.2808  2.2632  0.0180
 3640SOL     OW12787   8.005   8.720   3.288  0.6357  0.1281  0.1145
 3640SOL    HW112788   7.914   8.745   3.304  0.5058 -0.6528  0.6337
 3640SOL    HW212789   8.008   8.701   3.194  0.7913  2.2311 -0.3604
 3641SOL     OW12790   4.104   5.132   2.579  0.3427 -0.0455 -0.6164
 3641SOL    HW112791   4.139   5.160   2.664  0.5961 -0.9475 -0.4035
 3641SOL    HW212792   4.088   5.213   2.531 -0.2960  0.5162  0.4842
 3642SOL     OW12793   8.369   0.412   4.972 -0.1386  0.3264 -0.2629
 3642SOL    HW112794   8.304   0.398   5.041 -1.0331 -1.6221 -1.4128
 3642SOL    HW212795   8.449   0.437   5.018 -0.6129 -1.2651  1.5120
 3643SOL     OW12796   2.589   6.530   1.716 -0.2127 -0.1378  0.2125
 3643SOL    HW112797   2.537   6.505   1.639  1.7209 -4.1859 -0.0480
 3643SOL    HW212798   2.581   6.456   1.776  2.0258  0.8462  1.8930
 3644SOL     OW12799   3.318   4.641   7.053 -0.2031  0.0806  0.5390
 3644SOL    HW112800   3.250   4.694   7.094 -0.8507 -0.6544  0.4366
 3644SOL    HW212801   3.270   4.575   7.003  0.5828  0.0270 -0.1619
 3645SOL     OW12802   6.494   4.044   7.356 -0.3058 -0.0238 -0.7918
 3645SOL    HW112803   6.437   4.039   7.433  0.3370  0.7036 -0.2559
 3645SOL    HW212804   6.438   4.020   7.283 -0.3525 -3.3727  0.1500
 3646SOL     OW12805   4.767   8.202   2.392  0.1490  0.0733 -0.1667
 3646SOL    HW112806   4.759   8.164   2.479 -0.3899  0.4264 -0.0564
 3646SOL    HW212807   4.727   8.289   2.400 -1.6497 -0.6112 -1.2301
 3647SOL     OW12808   7.412   2.574   3.535 -0.0568 -0.2547 -0.0301
 3647SOL    HW112809   7.375   2.644   3.482  0.4696  0.4655  0.5332
 3647SOL    HW212810   7.414   2.498   3.477  1.1246  0.6736 -1.2603
 3648SOL     OW12811   7.998   2.104   6.077  0.5481  0.5325  0.6825
 3648SOL    HW112812   7.952   2.151   6.146  0.1219 -1.5205  1.8881
 3648SOL    HW212813   8.081   2.078   6.118 -0.2723 -1.8865  0.9912
 3649SOL     OW12814   7.985   5.741   5.174 -0.0984 -0.2170  0.3879
 3649SOL    HW112815   7.891   5.733   5.164 -0.1197 -1.3342  1.3314
 3649SOL    HW212816   8.022   5.689   5.103 -0.2045 -1.0182  0.9155
 3650SOL     OW12817   7.203   0.484   0.249  0.2511  0.0117 -0.3363
 3650SOL    HW112818   7.292   0.513   0.269 -0.0214  1.7394 -1.3500
 3650SOL    HW212819   7.215   0.415   0.184  0.8663  0.3700 -0.6220
 3651SOL     OW12820   0.450   4.669   5.393  0.2363 -0.3249 -0.5471
 3651SOL    HW112821   0.535   4.652   5.432  0.2532  0.1870 -0.3430
 3651SOL    HW212822   0.390   4.611   5.440  0.2152  0.4619  0.4353
 3652SOL     OW12823   6.052   0.183   8.340 -0.0123  0.1564  0.4803
 3652SOL    HW112824   5.963   0.183   8.305  0.3585 -0.3792 -0.5143
 3652SOL    HW212825   6.044   0.219   8.428 -1.4360 -1.2541  0.9655
 3653SOL     OW12826   5.360   3.591   3.543 -0.1003  0.2388 -0.3695
 3653SOL    HW112827   5.363   3.617   3.451  0.6510  0.5300 -0.2686
 3653SOL    HW212828   5.318   3.504   3.542  1.3707 -0.4926 -1.1594
 3654SOL     OW12829   6.005   2.294   4.191 -0.0565  0.1524  0.1153
 3654SOL    HW112830   6.010   2.247   4.275 -2.1960  1.0637  0.8189
 3654SOL    HW212831   5.935   2.249   4.143  0.7055  0.0529 -0.9437
 3655SOL     OW12832   6.369   5.479   2.344  0.2717  0.3425 -0.3013
 3655SOL    HW112833   6.387   5.452   2.254  0.2908 -0.0673 -0.1762
 3655SOL    HW212834   6.308   5.552   2.335  1.0177  0.9329 -0.6799
 3656SOL     OW12835   4.334   7.454   5.441 -0.4605  0.7130  0.4705
 3656SOL    HW112836   4.389   7.477   5.516  0.0124 -1.7739  0.9623
 3656SOL    HW212837   4.387   7.478   5.365  0.4902  0.1420  0.9415
 3657SOL     OW12838   3.044   8.870   1.262 -0.1564  0.4257 -0.0203
 3657SOL    HW112839   2.992   8.911   1.193 -0.4365 -1.6130 -1.1068
 3657SOL    HW212840   3.134   8.892   1.240 -0.2508 -0.1286 -1.0372
 3658SOL     OW12841   5.362   8.145   3.393 -0.7429 -0.2129 -0.0356
 3658SOL    HW112842   5.398   8.234   3.387  1.0277 -0.8946  0.0461
 3658SOL    HW212843   5.304   8.138   3.318  0.8653  0.2515 -1.3863
 3659SOL     OW12844   6.625   3.908   5.899 -1.0045  0.0016  0.4279
 3659SOL    HW112845   6.606   3.844   5.830 -0.5626 -0.7271  0.9571
 3659SOL    HW212846   6.697   3.961   5.864 -0.8906 -0.2603  0.2622
 3660SOL     OW12847   4.202   6.428   3.314 -0.0104 -0.2844 -0.3589
 3660SOL    HW112848   4.142   6.460   3.247  0.4410  1.1748 -0.1034
 3660SOL    HW212849   4.193   6.332   3.311 -2.5745 -0.1101 -0.0874
 3661SOL     OW12850   3.156   5.010   6.199 -0.4812  0.3626 -0.0892
 3661SOL    HW112851   3.240   5.056   6.198 -0.5451  0.4998  0.3930
 3661SOL    HW212852   3.115   5.037   6.281 -0.3957 -0.7625  0.3535
 3662SOL     OW12853   4.612   5.342   4.369  0.4768 -0.1562 -0.7953
 3662SOL    HW112854   4.593   5.428   4.405 -2.1463 -1.0153  0.1431
 3662SOL    HW212855   4.647   5.359   4.282  1.8769  1.8492  0.0785
 3663SOL     OW12856   8.006   6.262   4.630 -0.3506 -0.8449  0.5988
 3663SOL    HW112857   8.008   6.182   4.577 -0.4621 -1.4986  1.5657
 3663SOL    HW212858   8.067   6.246   4.701  1.2369  0.7565 -0.3032
 3664SOL     OW12859   8.209   5.330   7.973 -0.2267 -0.2686 -0.4978
 3664SOL    HW112860   8.212   5.325   7.878 -0.2713 -0.6799 -0.4779
 3664SOL    HW212861   8.130   5.283   7.997 -0.1481 -0.2735 -0.2465
 3665SOL     OW12862   4.532   8.410   8.944  0.2103  0.0229 -0.1956
 3665SOL    HW112863   4.442   8.422   8.912  0.5204  1.1503 -0.6955
 3665SOL    HW212864   4.575   8.360   8.874 -0.3822 -1.8021  0.6918
 3666SOL     OW12865   3.405   2.690   6.260 -0.2403  0.0885  0.0287
 3666SOL    HW112866   3.408   2.623   6.329  0.8228 -0.2154 -0.3003
 3666SOL    HW212867   3.329   2.744   6.283 -0.9944 -1.0992  0.4139
 3667SOL     OW12868   0.024   2.104   2.359 -0.5440  0.0131  0.4374
 3667SOL    HW112869   0.046   2.016   2.330  0.8124 -0.3285  2.2813
 3667SOL    HW212870  -0.031   2.091   2.436 -1.9519  0.8405 -0.3782
 3668SOL     OW12871   3.606   7.395   8.403 -0.0961 -0.5531  0.1277
 3668SOL    HW112872   3.612   7.329   8.334 -0.8451 -0.5093  0.0121
 3668SOL    HW212873   3.518   7.383   8.440  0.2293 -0.4674  0.9648
 3669SOL     OW12874   3.095   1.137   2.538 -0.0153 -0.6126 -0.1101
 3669SOL    HW112875   3.162   1.205   2.544 -1.6348  1.1188 -0.7808
 3669SOL    HW212876   3.145   1.055   2.535  2.1021  0.6375 -1.5529
 3670SOL     OW12877   4.277   5.875   0.908 -0.3842 -0.2778  0.7925
 3670SOL    HW112878   4.250   5.916   0.990 -2.3800  1.0672 -0.4394
 3670SOL    HW212879   4.242   5.933   0.840  1.4583 -1.1708 -1.0420
 3671SOL     OW12880   2.918   7.352   4.654  0.3983  0.4913  0.5682
 3671SOL    HW112881   2.881   7.312   4.732 -0.0462  1.5917  0.9337
 3671SOL    HW212882   2.932   7.279   4.594 -1.5523 -0.0551  0.7369
 3672SOL     OW12883   2.882   2.588   0.711  0.1691 -0.2511 -0.3674
 3672SOL    HW112884   2.904   2.571   0.620 -1.3900  0.5375 -0.9230
 3672SOL    HW212885   2.788   2.572   0.717  0.2816 -0.4897  1.1529
 3673SOL     OW12886   8.252   2.114   0.262  0.6501  0.1576  0.5658
 3673SOL    HW112887   8.287   2.040   0.212  1.9844  1.4542 -0.5042
 3673SOL    HW212888   8.317   2.127   0.332  0.1392  0.0107  1.0783
 3674SOL     OW12889   0.057   2.730   2.633  0.2728  0.3290  0.4178
 3674SOL    HW112890   0.012   2.800   2.681 -1.6675  0.2596 -1.1982
 3674SOL    HW212891   0.126   2.701   2.693 -1.2259  1.0930  2.6442
 3675SOL     OW12892   8.693   0.886   4.734 -0.1003  0.2690 -0.1807
 3675SOL    HW112893   8.678   0.920   4.822 -0.0486  0.1063 -0.1079
 3675SOL    HW212894   8.718   0.795   4.748  1.3315  0.6271 -0.2628
 3676SOL     OW12895   1.776   5.644   8.663 -0.0245  0.0246 -0.2621
 3676SOL    HW112896   1.799   5.706   8.593 -0.4131  0.4478 -0.0224
 3676SOL    HW212897   1.859   5.628   8.708 -0.1733  1.6150  0.6495
 3677SOL     OW12898   2.620   5.306   4.706  0.9107  0.6301 -0.0066
 3677SOL    HW112899   2.638   5.276   4.616 -0.8791  1.8065 -0.8056
 3677SOL    HW212900   2.584   5.394   4.695 -1.4532 -0.0350  1.6913
 3678SOL     OW12901   3.818   5.524   8.825  0.0916  0.0613  0.4436
 3678SOL    HW112902   3.730   5.486   8.827 -0.4465  1.2574  1.8658
 3678SOL    HW212903   3.820   5.577   8.746 -0.2529 -0.4541  0.0859
 3679SOL     OW12904   2.375   3.990   6.972  0.6194  0.5155  0.3421
 3679SOL    HW112905   2.291   3.944   6.977 -0.6653  2.6283 -0.2447
 3679SOL    HW212906   2.439   3.927   7.003 -0.9305 -1.8177 -0.8678
 3680SOL     OW12907   8.323   7.940   7.839 -0.0055 -0.1577 -0.4165
 3680SOL    HW112908   8.392   8.005   7.847 -1.0981  0.8637  1.3790
 3680SOL    HW212909   8.367   7.856   7.856  0.5366  0.6294  2.7125
 3681SOL     OW12910   0.151   1.294   8.664  0.4936 -0.5464  0.4789
 3681SOL    HW112911   0.202   1.315   8.743  0.9021 -1.8331  0.5830
 3681SOL    HW212912   0.196   1.340   8.594  0.1258  0.6210  0.9733
 3682SOL     OW12913   6.812   1.008   7.503 -0.2319 -0.1769 -0.1298
 3682SOL    HW112914   6.739   0.996   7.563 -0.0661  4.6807  1.4670
 3682SOL    HW212915   6.778   1.066   7.435  1.3902 -0.2376 -1.0426
 3683SOL     OW12916   7.960   6.212   8.795  0.5030 -0.5693  0.2802
 3683SOL    HW112917   8.005   6.269   8.858  0.1971  0.6101 -0.5287
 3683SOL    HW212918   8.024   6.145   8.773  0.7784 -0.7168  1.4734
 3684SOL     OW12919   0.047   4.954   8.678  0.2879 -0.0264  0.4588
 3684SOL    HW112920  -0.009   4.877   8.690  0.4385 -0.0780  0.8531
 3684SOL    HW212921   0.067   4.983   8.767 -0.0310  0.6661  0.3061
 3685SOL     OW12922   5.555   5.853   8.827 -0.2885 -0.3771  0.0529
 3685SOL    HW112923   5.555   5.766   8.788  0.0632  0.2687 -1.4631
 3685SOL    HW212924   5.506   5.907   8.765  0.5874  0.7674  0.3337
 3686SOL     OW12925   1.506   1.639   8.629  0.2135 -0.3276 -0.0278
 3686SOL    HW112926   1.507   1.713   8.568 -0.7068  0.4464  0.8728
 3686SOL    HW212927   1.488   1.678   8.714  0.6349 -1.4947  0.6201
 3687SOL     OW12928   1.721   1.761   3.862  0.2582  0.1630 -0.2778
 3687SOL    HW112929   1.730   1.681   3.913  0.9083  0.4947  0.1389
 3687SOL    HW212930   1.627   1.775   3.855  0.1512  0.2075  0.9912
 3688SOL     OW12931   2.005   0.521   1.807  0.0110 -0.1578 -0.0817
 3688SOL    HW112932   2.050   0.604   1.793 -1.1282  0.7612  1.3662
 3688SOL    HW212933   2.018   0.503   1.900  0.0962 -1.5230 -0.3448
 3689SOL     OW12934   3.496   4.612   6.805 -0.3163  0.7333  0.2687
 3689SOL    HW112935   3.413   4.564   6.809 -0.9925  1.7637 -0.7296
 3689SOL    HW212936   3.561   4.549   6.835 -1.4845 -0.0225  1.3246
 3690SOL     OW12937   0.396   6.441   1.814 -0.2461 -0.5050 -0.5754
 3690SOL    HW112938   0.453   6.510   1.783  1.0780 -0.0649  2.4397
 3690SOL    HW212939   0.455   6.373   1.846 -1.5133 -2.2487 -1.7691
 3691SOL     OW12940   6.162   1.685   6.172  0.3050  0.6090  0.1810
 3691SOL    HW112941   6.072   1.716   6.162  0.5890  1.0786 -1.1768
 3691SOL    HW212942   6.216   1.764   6.163  0.8928  0.1632 -0.3424
 3692SOL     OW12943   3.078   6.937   3.062 -0.2914  0.0388 -0.0679
 3692SOL    HW112944   2.986   6.911   3.057 -0.0363 -0.6599 -1.6436
 3692SOL    HW212945   3.094   6.982   2.979  1.2765 -1.5330 -0.6665
 3693SOL     OW12946   3.521   7.786   0.268  0.7187 -0.0058  0.3240
 3693SOL    HW112947   3.531   7.694   0.244  0.4863 -0.1478  0.7643
 3693SOL    HW212948   3.607   7.812   0.302  1.3221  0.4438 -1.4475
 3694SOL     OW12949   5.321   2.217   4.385  0.3371  0.3704 -0.1975
 3694SOL    HW112950   5.307   2.302   4.344  0.6541  0.1592 -0.7561
 3694SOL    HW212951   5.357   2.237   4.471 -3.1623  0.9654  1.3066
 3695SOL     OW12952   2.901   1.090   2.222 -0.3116 -0.2897 -0.7831
 3695SOL    HW112953   2.975   1.096   2.283 -1.4845 -2.9485  1.0870
 3695SOL    HW212954   2.932   1.031   2.153 -0.1386 -0.0490 -0.9131
 3696SOL     OW12955   6.181   5.955   0.681 -0.4556  0.2046  0.3123
 3696SOL    HW112956   6.152   5.864   0.682  1.2299 -0.3568  1.6760
 3696SOL    HW212957   6.204   5.975   0.771 -1.0820  2.1138  0.1032
 3697SOL     OW12958   4.999   0.987   5.148 -0.0668 -0.5722  0.5048
 3697SOL    HW112959   4.938   1.050   5.188 -0.6134 -0.7809  0.0114
 3697SOL    HW212960   5.045   0.949   5.222 -0.2871 -0.1550  0.8657
 3698SOL     OW12961   0.499   5.645   7.237  0.1085  0.3501  0.2689
 3698SOL    HW112962   0.520   5.596   7.316 -1.3648 -0.5993  0.1125
 3698SOL    HW212963   0.507   5.737   7.263 -0.0563  0.0491  1.4432
 3699SOL     OW12964   2.183   2.228   6.797  0.0255  0.7837  0.2076
 3699SOL    HW112965   2.231   2.182   6.728 -0.6764  2.4712 -1.4979
 3699SOL    HW212966   2.236   2.305   6.817 -0.5215  1.1119  0.4274
 3700SOL     OW12967   5.661   1.975   1.280  0.3109  0.0156  0.6644
 3700SOL    HW112968   5.646   2.026   1.200  2.2867 -0.5322 -0.1274
 3700SOL    HW212969   5.665   1.884   1.250 -0.2478 -0.3347  1.6127
 3701SOL     OW12970   6.535   3.953   4.480 -0.8138  0.2128 -0.0448
 3701SOL    HW112971   6.527   4.046   4.461  0.2172  0.0148 -1.5892
 3701SOL    HW212972   6.570   3.914   4.400  0.0636 -1.2991  1.0065
 3702SOL     OW12973   8.631   0.046   4.199 -0.4159  0.0399  0.1152
 3702SOL    HW112974   8.556  -0.012   4.212  0.1513 -0.3993  1.6723
 3702SOL    HW212975   8.612   0.123   4.254  0.3495 -0.1752  0.7041
 3703SOL     OW12976   2.293   5.004   6.212  0.1665  0.4827  0.1835
 3703SOL    HW112977   2.240   4.984   6.135  1.4305 -1.2044 -0.3110
 3703SOL    HW212978   2.380   4.969   6.191  0.9256  1.2955  1.7959
 3704SOL     OW12979   5.091   8.902   2.042  0.6865  0.4735 -0.1940
 3704SOL    HW112980   5.156   8.904   2.112  0.1057  0.0995  0.3630
 3704SOL    HW212981   5.012   8.941   2.080  0.4348  0.4899 -0.7137
 3705SOL     OW12982   2.901   3.909   0.561 -0.2547 -0.1175  0.2899
 3705SOL    HW112983   2.863   3.878   0.479 -0.5807 -1.5428  0.9316
 3705SOL    HW212984   2.826   3.917   0.620 -0.0514  1.1042  0.3973
 3706SOL     OW12985   8.951   7.343   8.965  0.2920 -0.0120  0.0984
 3706SOL    HW112986   8.913   7.273   9.016  0.0333 -1.0777 -1.4753
 3706SOL    HW212987   8.877   7.383   8.919  0.4736  1.1342  0.7551
 3707SOL     OW12988   7.555   1.479   6.583  0.6208  0.1275  0.4657
 3707SOL    HW112989   7.632   1.445   6.537  0.8266  0.0590  0.8519
 3707SOL    HW212990   7.557   1.573   6.567  1.4082  0.2825  1.3621
 3708SOL     OW12991   1.472   8.329   5.674  0.2492 -0.3589 -0.5376
 3708SOL    HW112992   1.520   8.255   5.710  0.4185  1.7834  4.5116
 3708SOL    HW212993   1.380   8.308   5.691  0.2710  0.3092  0.5036
 3709SOL     OW12994   5.153   8.957   6.666  0.1820  0.1785  0.5686
 3709SOL    HW112995   5.177   9.009   6.743 -1.2712  1.6809  0.0802
 3709SOL    HW212996   5.180   9.011   6.591  1.4560 -1.1941  0.0000
 3710SOL     OW12997   4.170   6.502   0.867  0.3981 -0.3189 -0.3156
 3710SOL    HW112998   4.107   6.543   0.927 -0.1846  0.6788 -1.5657
 3710SOL    HW212999   4.154   6.408   0.876  1.2278 -0.2933  2.0391
 3711SOL     OW13000   5.825   6.754   1.967 -0.4032  0.5926 -0.4371
 3711SOL    HW113001   5.733   6.757   1.942 -0.3488  0.6287 -0.6298
 3711SOL    HW213002   5.823   6.739   2.062 -0.5816 -1.9419 -0.7863
 3712SOL     OW13003   6.180   2.504   2.203  0.0432  0.2527  0.4318
 3712SOL    HW113004   6.087   2.503   2.177 -0.6496  2.6623  2.4623
 3712SOL    HW213005   6.220   2.566   2.142  0.4298 -0.9677 -0.5997
 3713SOL     OW13006   3.426   7.083   7.355  0.2102  0.3347  0.2835
 3713SOL    HW113007   3.418   6.988   7.351  1.0306  0.2618  0.2901
 3713SOL    HW213008   3.495   7.099   7.419 -0.5285  0.9646  0.9338
 3714SOL     OW13009   3.751   6.774   1.632  0.2133  0.1132 -0.0172
 3714SOL    HW113010   3.835   6.727   1.631 -0.3279 -0.9107 -1.6542
 3714SOL    HW213011   3.688   6.710   1.599 -1.1109  1.0738  0.5907
 3715SOL     OW13012   5.264   5.822   4.072 -0.5281 -0.1308  0.1451
 3715SOL    HW113013   5.237   5.853   3.985  0.8466 -3.7115 -1.7763
 3715SOL    HW213014   5.351   5.860   4.086 -0.9011  0.7383  0.1389
 3716SOL     OW13015   5.559   5.317   4.330 -0.5653 -0.2570  0.1360
 3716SOL    HW113016   5.466   5.333   4.340 -0.9486 -1.6583 -0.8441
 3716SOL    HW213017   5.574   5.320   4.235  0.5323  0.6792  0.3126
 3717SOL     OW13018   2.844   2.728   6.502 -0.1768  0.2643  0.2879
 3717SOL    HW113019   2.829   2.675   6.580  1.2491  1.6560  1.5778
 3717SOL    HW213020   2.853   2.664   6.432 -0.3389 -1.0964  1.4587
 3718SOL     OW13021   8.683   4.581   7.083  0.0501  0.0442 -0.1631
 3718SOL    HW113022   8.661   4.506   7.027 -1.2186 -0.7594  1.3518
 3718SOL    HW213023   8.758   4.552   7.134  0.3215  0.2731 -0.4226
 3719SOL     OW13024   4.325   0.319   0.763  0.3003 -0.1984  0.3306
 3719SOL    HW113025   4.377   0.336   0.842 -1.0306 -2.5322  1.8357
 3719SOL    HW213026   4.372   0.250   0.717  1.3808  1.5507 -1.3335
 3720SOL     OW13027   2.410   2.858   0.484  0.5039 -0.3610 -0.7275
 3720SOL    HW113028   2.356   2.877   0.561  0.7207 -0.0581 -0.6473
 3720SOL    HW213029   2.360   2.893   0.411 -0.2955 -1.7536 -0.8843
 3721SOL     OW13030   5.286   2.736   1.091  0.3357  0.4445  0.5980
 3721SOL    HW113031   5.244   2.693   1.166  0.9977  0.7882  1.1816
 3721SOL    HW213032   5.346   2.670   1.056  0.4459  0.4766  0.7256
 3722SOL     OW13033   7.601   0.661   3.089 -0.2881 -0.1965 -0.3838
 3722SOL    HW113034   7.539   0.603   3.132 -1.6163  1.5105  0.0870
 3722SOL    HW213035   7.550   0.708   3.024  0.7202  0.5773 -0.6494
 3723SOL     OW13036   2.563   5.820   4.298 -0.7263  0.5549 -0.2118
 3723SOL    HW113037   2.473   5.795   4.275 -0.8434 -0.9186  1.6024
 3723SOL    HW213038   2.559   5.915   4.311 -2.0535  0.4959 -0.0407
 3724SOL     OW13039   7.454   5.568   1.050 -0.0626  0.4770 -0.0877
 3724SOL    HW113040   7.446   5.543   0.958 -1.6572  0.7588 -0.0518
 3724SOL    HW213041   7.529   5.626   1.053  0.0790  0.3675 -1.1909
 3725SOL     OW13042   0.927   5.712   5.219  0.3112 -0.2047 -0.8195
 3725SOL    HW113043   0.922   5.801   5.184  1.1989 -0.6671 -2.1632
 3725SOL    HW213044   0.836   5.685   5.228  0.0314 -0.3648 -3.5696
 3726SOL     OW13045   5.377   7.197   0.794 -0.3542  0.2677  0.3001
 3726SOL    HW113046   5.332   7.113   0.802  0.1335  0.0320  0.6617
 3726SOL    HW213047   5.390   7.227   0.884  1.8943 -0.6142  0.3552
 3727SOL     OW13048   7.171   7.219   3.946  0.1161  0.1590  0.1542
 3727SOL    HW113049   7.264   7.199   3.960 -0.0566  0.2760  1.6072
 3727SOL    HW213050   7.162   7.310   3.974 -0.1862  0.5858 -1.2686
 3728SOL     OW13051   4.888   0.392   6.856  0.3609  0.3385  0.1763
 3728SOL    HW113052   4.883   0.297   6.858  2.4901  0.1139  3.5841
 3728SOL    HW213053   4.962   0.412   6.800  1.7026 -0.2770  1.6521
 3729SOL     OW13054   7.376   8.820   7.309  0.1776 -0.1882 -0.0242
 3729SOL    HW113055   7.373   8.892   7.246  0.5573 -0.0359  0.1273
 3729SOL    HW213056   7.465   8.823   7.345 -0.4034  0.5105  1.4160
 3730SOL     OW13057   0.586   5.937   3.021  0.0479  0.1976  0.1231
 3730SOL    HW113058   0.556   6.027   3.031  2.2691  1.1245 -0.8227
 3730SOL    HW213059   0.661   5.930   3.081  0.2917 -0.8084 -0.2812
 3731SOL     OW13060   2.109   1.025   6.101  0.0236 -0.3696 -0.1818
 3731SOL    HW113061   2.182   1.086   6.085 -0.5030  0.6359  1.0555
 3731SOL    HW213062   2.094   0.983   6.017  1.8434 -0.3842 -0.5412
 3732SOL     OW13063   0.636   0.611   3.167 -0.2804  0.3557 -0.1901
 3732SOL    HW113064   0.544   0.585   3.169 -0.2648  0.3475  1.4658
 3732SOL    HW213065   0.648   0.650   3.080 -1.5075 -0.8012 -0.9120
 3733SOL     OW13066   4.476   2.113   8.397  0.4616 -0.8536 -0.1724
 3733SOL    HW113067   4.426   2.149   8.471 -0.0575 -0.0268 -0.9150
 3733SOL    HW213068   4.536   2.182   8.372 -0.9149 -0.2376 -1.9537
 3734SOL     OW13069   1.248   2.527   5.927  0.3366  0.5130 -0.2016
 3734SOL    HW113070   1.266   2.458   5.992  2.0034  0.0426 -1.1141
 3734SOL    HW213071   1.228   2.605   5.980  0.8970 -0.0508  0.8734
 3735SOL     OW13072   7.559   6.640   1.387 -0.0235 -0.4305  0.0208
 3735SOL    HW113073   7.648   6.625   1.354  0.1855  0.0120  0.3739
 3735SOL    HW213074   7.526   6.553   1.407 -0.4549 -0.8072 -2.0979
 3736SOL     OW13075   0.450   7.074   7.046  0.2388 -0.0277 -0.0540
 3736SOL    HW113076   0.511   7.112   6.983  0.5224  0.4016  0.4677
 3736SOL    HW213077   0.382   7.141   7.057  1.5400  1.0434  2.0206
 3737SOL     OW13078   1.888   2.826   2.883 -0.3313 -0.2237 -0.5338
 3737SOL    HW113079   1.974   2.847   2.847 -0.5025  0.1491 -0.7378
 3737SOL    HW213080   1.889   2.731   2.895  0.3942 -0.1428  0.2093
 3738SOL     OW13081   1.331   3.003   5.763  0.5312  0.5491 -0.0164
 3738SOL    HW113082   1.260   3.027   5.703  1.3829 -1.6648 -2.0782
 3738SOL    HW213083   1.409   2.996   5.707  1.2647 -2.1503  1.1854
 3739SOL     OW13084   8.080   8.986   3.689 -0.2296  0.2447  0.2785
 3739SOL    HW113085   8.114   8.952   3.607 -0.3640  0.7122  0.0211
 3739SOL    HW213086   7.996   9.027   3.665  0.4475  1.7516  0.3547
 3740SOL     OW13087   7.797   6.700   8.858  0.2726  0.2820 -0.0317
 3740SOL    HW113088   7.816   6.692   8.765  2.4836 -0.0532  0.3985
 3740SOL    HW213089   7.755   6.617   8.881  0.5831 -0.0166 -0.5322
 3741SOL     OW13090   2.810   3.330   2.344 -0.0735  0.1922  0.0914
 3741SOL    HW113091   2.739   3.287   2.393 -0.0268  1.6035  1.4749
 3741SOL    HW213092   2.781   3.326   2.253 -0.8602 -1.2244  0.3594
 3742SOL     OW13093   2.177   4.963   0.267 -0.5735  0.0306 -0.2155
 3742SOL    HW113094   2.089   5.001   0.259 -0.1275  1.0210 -0.4793
 3742SOL    HW213095   2.224   5.024   0.324  0.1586 -0.1138 -0.6626
 3743SOL     OW13096   4.507   1.504   1.102  0.7697 -0.1900  0.2958
 3743SOL    HW113097   4.418   1.483   1.075  0.1768  1.4041  0.8422
 3743SOL    HW213098   4.541   1.561   1.033  0.6894  0.6659  0.9414
 3744SOL     OW13099   1.275   4.060   8.174 -0.1516  0.4150  0.4023
 3744SOL    HW113100   1.342   4.022   8.116  0.5317 -0.7542  1.8871
 3744SOL    HW213101   1.316   4.140   8.207  0.5284 -0.2659  1.2611
 3745SOL     OW13102   1.658   6.149   4.724  0.4030 -0.5895  0.2412
 3745SOL    HW113103   1.584   6.109   4.771  0.8391 -0.7291  0.8277
 3745SOL    HW213104   1.728   6.153   4.790  1.0020 -0.7093 -0.3774
 3746SOL     OW13105   5.140   2.401   3.013  0.2424  0.4115  0.1162
 3746SOL    HW113106   5.170   2.332   3.072  0.7882  0.4913 -0.0640
 3746SOL    HW213107   5.091   2.461   3.069  1.0660  0.6783  0.5683
 3747SOL     OW13108   4.751   8.462   7.392 -0.0074  0.0238 -0.0512
 3747SOL    HW113109   4.805   8.509   7.456  1.4996 -2.7468  0.8814
 3747SOL    HW213110   4.799   8.471   7.309 -0.7286  1.6424 -0.3219
 3748SOL     OW13111   8.666   4.111   4.249  0.1537 -0.3522 -0.1552
 3748SOL    HW113112   8.626   4.034   4.211  0.9198 -1.7608  1.7054
 3748SOL    HW213113   8.737   4.134   4.189  0.4005 -1.5834 -0.3622
 3749SOL     OW13114   3.845   7.425   1.551 -0.3233 -0.0830  0.3177
 3749SOL    HW113115   3.763   7.433   1.501 -1.0060 -0.3533  1.3640
 3749SOL    HW213116   3.842   7.497   1.613  0.9874  0.8369 -0.6381
 3750SOL     OW13117   4.067   7.688   6.244 -0.0509 -0.2229 -0.0389
 3750SOL    HW113118   4.057   7.693   6.149  3.0867 -0.8197 -0.5066
 3750SOL    HW213119   4.117   7.766   6.268  0.3807 -0.7734  0.9170
 3751SOL     OW13120   0.083   1.821   7.252  0.0016  0.4470  0.3207
 3751SOL    HW113121  -0.002   1.778   7.244 -1.2838  2.8187  0.4154
 3751SOL    HW213122   0.139   1.774   7.190 -1.5968 -0.6261 -0.3880
 3752SOL     OW13123   7.657   2.136   6.118 -0.5770  0.0955 -0.3883
 3752SOL    HW113124   7.613   2.053   6.098 -0.9629  0.2852 -0.3493
 3752SOL    HW213125   7.664   2.180   6.033  1.5053 -0.8450 -0.7740
 3753SOL     OW13126   4.858   6.563   7.314  0.0596 -0.1241  0.1367
 3753SOL    HW113127   4.946   6.544   7.347 -0.8572 -2.3629  1.5115
 3753SOL    HW213128   4.824   6.478   7.286 -2.2819  0.3440  1.3100
 3754SOL     OW13129   7.305   8.876   0.099  0.0784  0.3663 -0.3885
 3754SOL    HW113130   7.283   8.871   0.192 -3.0199  1.8100 -0.9295
 3754SOL    HW213131   7.269   8.795   0.062  1.5464 -0.3400 -0.3826
 3755SOL     OW13132   0.393   7.902   8.649 -0.4413 -0.3356  0.1108
 3755SOL    HW113133   0.436   7.828   8.606 -1.2054 -0.6533 -0.1253
 3755SOL    HW213134   0.414   7.977   8.593  0.9181 -0.2268  0.7291
 3756SOL     OW13135   3.246   2.990   2.652 -0.2332 -0.6958  0.4557
 3756SOL    HW113136   3.315   2.925   2.638  0.3596 -0.1911  0.9483
 3756SOL    HW213137   3.284   3.051   2.716 -0.9885 -0.1833  0.4236
 3757SOL     OW13138   5.587   4.214   3.409  0.6406 -0.3553  0.6014
 3757SOL    HW113139   5.552   4.159   3.339 -1.1848  1.0351  0.3588
 3757SOL    HW213140   5.566   4.167   3.489 -0.1135 -0.4476  0.3583
 3758SOL     OW13141   1.577   2.270   6.050  0.6870 -0.3014  0.5518
 3758SOL    HW113142   1.665   2.283   6.015  0.4893  0.4476  0.3195
 3758SOL    HW213143   1.571   2.330   6.124  0.4176 -0.4450  0.6490
 3759SOL     OW13144   5.660   0.812   1.255 -0.2268  0.1016 -0.3730
 3759SOL    HW113145   5.609   0.734   1.235 -0.2402  0.0163 -0.0186
 3759SOL    HW213146   5.599   0.869   1.303 -0.5338  0.7784 -1.5226
 3760SOL     OW13147   2.461   0.442   4.032 -0.1249  0.1549  0.1606
 3760SOL    HW113148   2.406   0.464   4.107 -1.2226  1.0297 -0.8654
 3760SOL    HW213149   2.400   0.413   3.965  0.7674  0.0852 -0.6399
 3761SOL     OW13150   0.984   5.263   5.813 -1.2294 -0.3620  0.7449
 3761SOL    HW113151   1.054   5.328   5.806 -1.2602 -0.3129  0.8873
 3761SOL    HW213152   0.922   5.286   5.744  0.0646 -1.8456 -0.9966
 3762SOL     OW13153   3.424   4.329   1.408  0.0496 -0.2374  1.0826
 3762SOL    HW113154   3.414   4.416   1.370 -0.4534  0.0118  1.7473
 3762SOL    HW213155   3.383   4.336   1.495  0.4707 -0.9898  1.3578
 3763SOL     OW13156   6.559   6.995   1.501  0.4429  1.0500 -0.7538
 3763SOL    HW113157   6.560   7.080   1.544  0.4351 -0.0999  1.6921
 3763SOL    HW213158   6.472   6.959   1.520  1.7439 -1.0902  1.7661
 3764SOL     OW13159   7.768   4.610   8.087 -0.2909 -0.1758 -0.3816
 3764SOL    HW113160   7.850   4.636   8.129 -1.3094  1.0785  0.9339
 3764SOL    HW213161   7.794   4.578   8.001  1.4824  1.2760 -0.4426
 3765SOL     OW13162   2.194   4.680   5.020  0.5214 -0.0458 -0.4901
 3765SOL    HW113163   2.238   4.721   4.946 -1.4205  1.3377 -0.9780
 3765SOL    HW213164   2.179   4.752   5.082  0.5864 -0.8373  0.4613
 3766SOL     OW13165   0.128   8.794   0.301 -0.0130 -0.1668 -0.3830
 3766SOL    HW113166   0.197   8.729   0.303 -0.5815 -0.8575 -2.0575
 3766SOL    HW213167   0.129   8.829   0.212 -1.1714  0.5077 -0.1591
 3767SOL     OW13168   7.690   7.399   3.767 -0.4587 -0.1083 -0.4843
 3767SOL    HW113169   7.611   7.346   3.772 -0.5219  0.0653  0.9069
 3767SOL    HW213170   7.726   7.382   3.680 -1.0146 -1.6341 -0.4420
 3768SOL     OW13171   7.863   3.244   2.027  0.0375 -0.2570  0.2327
 3768SOL    HW113172   7.879   3.171   2.085  0.5568 -1.5687 -1.4826
 3768SOL    HW213173   7.945   3.294   2.027 -0.0681 -0.0810  0.8367
 3769SOL     OW13174   2.345   0.582   1.844  0.2396  0.3423 -0.0558
 3769SOL    HW113175   2.283   0.604   1.914 -0.8008 -0.5398 -0.6753
 3769SOL    HW213176   2.431   0.596   1.884 -0.2410 -1.8778  2.0436
 3770SOL     OW13177   3.626   1.149   8.272 -0.4122 -0.3433  0.8321
 3770SOL    HW113178   3.549   1.149   8.215 -0.0931  1.7977  0.3489
 3770SOL    HW213179   3.690   1.096   8.224 -0.1474  1.4106 -0.8756
 3771SOL     OW13180   3.356   3.861   5.745  0.4042 -0.2430 -0.2337
 3771SOL    HW113181   3.361   3.928   5.677 -0.4316 -0.5440 -0.5979
 3771SOL    HW213182   3.361   3.910   5.828 -1.7281  0.4370 -0.4626
 3772SOL     OW13183   3.214   3.534   2.449 -0.4349  0.5586 -0.0592
 3772SOL    HW113184   3.128   3.497   2.472 -0.4468  0.3793 -0.3956
 3772SOL    HW213185   3.194   3.603   2.386 -0.2423 -0.2021 -0.9665
 3773SOL     OW13186   4.445   5.150   8.149 -0.2027 -0.2081 -0.0094
 3773SOL    HW113187   4.517   5.088   8.160 -2.2844 -2.7466  0.4074
 3773SOL    HW213188   4.395   5.115   8.075 -1.9081  0.5034  0.7547
 3774SOL     OW13189   8.720   4.738   3.128  0.4045 -0.3532  0.1433
 3774SOL    HW113190   8.637   4.781   3.152 -0.1896 -2.0475  1.2943
 3774SOL    HW213191   8.737   4.768   3.038 -0.9318  0.7973  0.2355
 3775SOL     OW13192   4.287   4.540   4.907  0.4047 -0.1137  0.0360
 3775SOL    HW113193   4.366   4.542   4.852 -1.3049  0.1193 -2.5891
 3775SOL    HW213194   4.239   4.619   4.884 -0.8566 -0.5059  1.1796
 3776SOL     OW13195   6.748   4.890   3.442  0.1069 -0.1939 -0.3301
 3776SOL    HW113196   6.789   4.805   3.426  0.1043  0.1667 -2.4151
 3776SOL    HW213197   6.816   4.942   3.484 -0.3590 -1.6333  2.5336
 3777SOL     OW13198   3.055   2.216   3.075  0.8762 -0.9920  0.0890
 3777SOL    HW113199   3.015   2.222   3.162 -1.0502 -1.3490 -0.7216
 3777SOL    HW213200   3.090   2.127   3.071 -0.3675 -1.5034 -0.0088
 3778SOL     OW13201   3.162   0.883   4.839  0.4867  0.1591 -0.3326
 3778SOL    HW113202   3.115   0.834   4.906 -1.4090  0.5343 -1.3267
 3778SOL    HW213203   3.249   0.843   4.836 -0.1008 -1.2766  0.8119
 3779SOL     OW13204   1.760   8.725   0.714  0.2434 -0.2423  0.0746
 3779SOL    HW113205   1.713   8.642   0.712 -1.1628  0.5118 -0.6913
 3779SOL    HW213206   1.737   8.764   0.798 -1.5367  0.6308 -0.7567
 3780SOL     OW13207   5.424   3.189   4.969  0.2783 -0.6953  0.0311
 3780SOL    HW113208   5.420   3.279   4.936  2.1207 -0.2107  0.9815
 3780SOL    HW213209   5.510   3.158   4.942  0.0062 -1.8747  0.4814
 3781SOL     OW13210   6.353   7.609   8.224 -0.0346  0.6003 -0.0650
 3781SOL    HW113211   6.307   7.674   8.277  0.3002  0.2569  0.6522
 3781SOL    HW213212   6.400   7.661   8.158 -0.9298  0.9896 -0.4099
 3782SOL     OW13213   8.580   6.340   5.249 -0.1263  0.1382  0.1214
 3782SOL    HW113214   8.643   6.314   5.181  1.1078  0.0252  1.2786
 3782SOL    HW213215   8.621   6.316   5.331 -1.4792  0.5331  0.9525
 3783SOL     OW13216   6.450   5.364   6.251  0.0018 -0.3759  0.3537
 3783SOL    HW113217   6.362   5.332   6.231  0.4409 -0.8628 -0.8735
 3783SOL    HW213218   6.455   5.362   6.347 -1.0634 -1.0239  0.4105
 3784SOL     OW13219   5.312   4.579   0.305 -0.2335 -0.3709 -0.2968
 3784SOL    HW113220   5.370   4.564   0.231  1.4587 -0.6351  1.0339
 3784SOL    HW213221   5.326   4.670   0.330  1.5903 -1.0773  1.5743
 3785SOL     OW13222   4.010   3.273   3.701 -0.5912 -0.7268 -0.0867
 3785SOL    HW113223   3.962   3.353   3.681 -0.2124 -0.2748  0.7527
 3785SOL    HW213224   3.944   3.204   3.702 -0.8814 -0.4797 -1.0755
 3786SOL     OW13225   6.543   8.075   6.564  0.0679  0.1488  0.2876
 3786SOL    HW113226   6.455   8.074   6.524  0.1178 -0.2028  0.1806
 3786SOL    HW213227   6.598   8.028   6.501 -0.2036 -2.0013  1.5687
 3787SOL     OW13228   7.448   5.625   3.705  0.3506 -0.3055  0.2297
 3787SOL    HW113229   7.400   5.653   3.783  1.0909 -0.4832  0.7601
 3787SOL    HW213230   7.451   5.530   3.712 -0.7100 -0.4320 -0.7040
 3788SOL     OW13231   0.929   0.812   1.880  0.0894 -0.4065  0.8038
 3788SOL    HW113232   0.983   0.740   1.846  3.8725  1.5563  1.9994
 3788SOL    HW213233   0.847   0.805   1.832  1.4579 -3.5462 -1.4761
 3789SOL     OW13234   0.448   1.346   4.917  0.3202 -0.2606  0.0388
 3789SOL    HW113235   0.493   1.339   5.001  0.4366 -0.0697 -0.0072
 3789SOL    HW213236   0.390   1.422   4.927  1.4980  0.7637 -0.5852
 3790SOL     OW13237   4.011   3.499   0.797  0.0348  0.4237 -0.1269
 3790SOL    HW113238   4.069   3.424   0.786  0.3170  0.6960 -0.5281
 3790SOL    HW213239   3.932   3.476   0.747  0.8572  1.1707 -1.8385
 3791SOL     OW13240   7.210   1.258   7.921  0.0978 -0.1202  0.7084
 3791SOL    HW113241   7.135   1.270   7.863  0.3564  2.2977  0.7898
 3791SOL    HW213242   7.286   1.261   7.863  0.2560  0.0590  0.9256
 3792SOL     OW13243   4.024   8.870   1.693  0.6429 -0.2248  0.3107
 3792SOL    HW113244   3.994   8.942   1.749 -0.4824  0.3808 -1.0024
 3792SOL    HW213245   3.968   8.796   1.716  0.8346 -0.2601  0.6635
 3793SOL     OW13246   3.599   8.498   6.536 -0.5485 -0.0174  0.3278
 3793SOL    HW113247   3.567   8.560   6.471 -1.0671  0.8100  1.3291
 3793SOL    HW213248   3.520   8.471   6.584 -0.0749  0.0583  1.1641
 3794SOL     OW13249   0.658   4.618   8.457  0.0847  0.0668  0.2745
 3794SOL    HW113250   0.713   4.696   8.452  0.1124  0.0223 -0.2191
 3794SOL    HW213251   0.571   4.652   8.479  0.2977  0.1383  1.0449
 3795SOL     OW13252   2.117   3.263   5.599 -0.0133 -0.2946 -0.2525
 3795SOL    HW113253   2.117   3.181   5.550 -0.7712 -0.1916 -0.4390
 3795SOL    HW213254   2.207   3.272   5.631  0.7838  0.1377 -2.4342
 3796SOL     OW13255   7.742   6.266   1.442 -0.3304 -0.1412 -0.2146
 3796SOL    HW113256   7.707   6.322   1.511 -2.4852  0.4566 -1.6929
 3796SOL    HW213257   7.793   6.326   1.387  1.8685 -0.7228  1.0902
 3797SOL     OW13258   0.813   7.601   1.672  0.0202 -0.4336 -0.0742
 3797SOL    HW113259   0.800   7.506   1.668  0.3412 -0.5623  1.5065
 3797SOL    HW213260   0.729   7.638   1.645 -0.1579 -1.1530 -0.5394
 3798SOL     OW13261   0.480   8.201   5.848 -0.2625  0.0781  0.2340
 3798SOL    HW113262   0.462   8.125   5.903 -0.2599 -0.7864 -0.9316
 3798SOL    HW213263   0.395   8.226   5.812 -0.2695  0.6656  0.6307
 3799SOL     OW13264   4.587   1.330   0.166  0.4479  0.3417  0.5549
 3799SOL    HW113265   4.607   1.368   0.252  3.0183  0.5863 -0.0681
 3799SOL    HW213266   4.673   1.313   0.127 -0.6482  0.0707 -1.9029
 3800SOL     OW13267   4.056   3.713   7.564 -0.4247 -0.2851 -0.4787
 3800SOL    HW113268   4.003   3.697   7.642 -0.4623  2.0953  0.0625
 3800SOL    HW213269   4.145   3.723   7.598 -0.3399  0.0806 -0.8006
 3801SOL     OW13270   3.664   2.637   7.959  0.0490 -0.1762  0.0653
 3801SOL    HW113271   3.719   2.599   7.891  1.1732  0.2293  0.7246
 3801SOL    HW213272   3.596   2.685   7.911  1.8837  1.6643 -0.8495
 3802SOL     OW13273   0.250   2.631   2.767 -0.2887 -0.2821 -0.3058
 3802SOL    HW113274   0.291   2.545   2.765 -0.1006 -0.4633  3.4572
 3802SOL    HW213275   0.316   2.688   2.807 -1.6134  0.7802  0.4742
 3803SOL     OW13276   3.029   2.237   2.796 -0.2696 -0.2282  0.0429
 3803SOL    HW113277   3.051   2.215   2.887  1.5020  0.0252 -0.2750
 3803SOL    HW213278   2.935   2.253   2.797 -0.4414 -1.1156  1.6455
 3804SOL     OW13279   7.556   2.015   0.553  0.7431 -1.2703  0.4568
 3804SOL    HW113280   7.528   2.099   0.517 -1.2563 -2.3691 -0.6958
 3804SOL    HW213281   7.631   1.990   0.499  0.3677 -0.9471 -0.2315
 3805SOL     OW13282   6.968   0.685   2.784 -0.5318  0.4344  0.5998
 3805SOL    HW113283   6.907   0.721   2.720  0.8640  0.8516 -0.5389
 3805SOL    HW213284   7.010   0.762   2.822 -0.3355  0.1333  0.9978
 3806SOL     OW13285   4.547   6.025   1.475 -0.6567 -0.4739 -0.1028
 3806SOL    HW113286   4.593   6.047   1.394  0.6030 -1.2401  0.3723
 3806SOL    HW213287   4.555   5.930   1.482  0.3238 -0.3081  1.5331
 3807SOL     OW13288   2.009   5.984   7.910 -0.0988 -0.2123  0.2937
 3807SOL    HW113289   1.937   6.031   7.868  1.0257  1.5982  0.2694
 3807SOL    HW213290   1.974   5.898   7.929 -1.8741  0.2130 -0.8260
 3808SOL     OW13291   3.439   0.780   4.314 -0.7563  0.0224 -0.0452
 3808SOL    HW113292   3.388   0.857   4.289 -0.9943 -0.3173 -0.6280
 3808SOL    HW213293   3.404   0.754   4.399 -1.6016 -0.2411 -0.4664
 3809SOL     OW13294   3.061   7.013   5.453 -0.3707  0.0746  0.1967
 3809SOL    HW113295   3.004   6.940   5.428 -1.3652  0.6707  0.6676
 3809SOL    HW213296   3.150   6.981   5.437 -0.8397 -0.8106 -0.7365
 3810SOL     OW13297   3.820   2.781   2.405 -0.1305  0.4766 -0.2310
 3810SOL    HW113298   3.825   2.688   2.384  0.8932  0.1946  1.1362
 3810SOL    HW213299   3.785   2.821   2.325  0.7234 -0.8949 -1.3544
 3811SOL     OW13300   7.032   6.133   1.234 -0.0331  0.1000 -0.3201
 3811SOL    HW113301   7.029   6.213   1.286  0.5533  0.1813 -0.4033
 3811SOL    HW213302   6.943   6.123   1.200  0.2176  1.5243 -1.5167
 3812SOL     OW13303   4.700   8.226   1.257  0.1636  0.4326 -0.7660
 3812SOL    HW113304   4.762   8.206   1.327 -2.4186 -0.2067  1.4925
 3812SOL    HW213305   4.755   8.258   1.185  3.0302  0.3789  1.2322
 3813SOL     OW13306   4.151   8.954   6.475 -0.2089  0.2591 -0.3761
 3813SOL    HW113307   4.087   8.928   6.541  0.0713  0.9684  0.1884
 3813SOL    HW213308   4.216   9.005   6.523  0.5327 -0.0469 -1.0244
 3814SOL     OW13309   3.447   0.859   7.125  0.1899  1.0384  0.3643
 3814SOL    HW113310   3.527   0.855   7.074 -1.0511  2.3396 -1.8534
 3814SOL    HW213311   3.476   0.856   7.216  2.3819 -3.6224 -0.2259
 3815SOL     OW13312   0.892   0.153   5.182  0.0772  0.2262  0.1891
 3815SOL    HW113313   0.899   0.061   5.205 -2.1364  0.2800  1.3653
 3815SOL    HW213314   0.979   0.176   5.148  0.0908 -2.7704 -2.2209
 3816SOL     OW13315   1.401   1.863   3.015  0.0002  0.1766  0.1130
 3816SOL    HW113316   1.495   1.878   3.029 -0.1113  1.2683 -0.2095
 3816SOL    HW213317   1.398   1.786   2.959  0.7766  0.8443 -0.8952
 3817SOL     OW13318   2.813   4.600   6.456 -0.2273  0.3278 -0.0211
 3817SOL    HW113319   2.811   4.625   6.549  1.0790  0.9855 -0.1463
 3817SOL    HW213320   2.780   4.677   6.410  0.2556  0.4570 -0.1638
 3818SOL     OW13321   4.153   3.403   0.483  0.5022 -0.4204  0.4211
 3818SOL    HW113322   4.095   3.341   0.527  0.6580  1.3903  3.4930
 3818SOL    HW213323   4.241   3.372   0.502  0.5987  0.7993  2.3957
 3819SOL     OW13324   2.605   5.284   8.311 -0.2853 -0.0374  0.4275
 3819SOL    HW113325   2.610   5.204   8.363 -2.5756 -1.5619 -1.5261
 3819SOL    HW213326   2.684   5.282   8.257 -0.2239 -0.8802  0.5356
 3820SOL     OW13327   7.946   0.062   4.266 -0.1394 -0.2447  0.1892
 3820SOL    HW113328   8.006   0.108   4.208 -1.4812  0.6117 -0.5773
 3820SOL    HW213329   7.988   0.065   4.352  2.0590 -1.8632 -0.7409
 3821SOL     OW13330   4.837   4.810   8.050 -0.1608  0.6337 -0.1506
 3821SOL    HW113331   4.847   4.848   7.962 -0.4962 -0.7789 -0.8292
 3821SOL    HW213332   4.924   4.816   8.088  0.6443 -1.0366 -1.5790
 3822SOL     OW13333   3.854   2.358   4.574  0.2340  0.3379  0.3858
 3822SOL    HW113334   3.848   2.272   4.617 -2.8656  0.0497 -0.3878
 3822SOL    HW213335   3.929   2.400   4.615  2.2582 -2.9234  0.3989
 3823SOL     OW13336   5.744   1.417   8.154  0.1378 -0.1285 -0.2180
 3823SOL    HW113337   5.671   1.363   8.184 -0.2418  0.6856  0.3535
 3823SOL    HW213338   5.814   1.355   8.136 -0.3160 -0.8187  0.3449
 3824SOL     OW13339   4.321   0.448   0.067 -0.0655 -0.2219 -0.1320
 3824SOL    HW113340   4.235   0.458   0.107 -0.1305  0.1820 -0.3788
 3824SOL    HW213341   4.304   0.410  -0.019 -0.0553  0.5561 -0.4830
 3825SOL     OW13342   0.953   2.780   7.372 -0.0239 -0.4090 -0.0070
 3825SOL    HW113343   0.887   2.776   7.441  0.2452  2.3097  0.5132
 3825SOL    HW213344   0.980   2.689   7.359 -0.1636 -1.0605  3.3877
 3826SOL     OW13345   1.600   1.276   0.700 -0.0474  0.1835 -0.3671
 3826SOL    HW113346   1.551   1.352   0.730 -0.0277 -0.2742  0.8654
 3826SOL    HW213347   1.538   1.227   0.645 -0.7737 -0.0572  0.6458
 3827SOL     OW13348   2.255   1.860   5.323  0.2191  0.4390  0.7709
 3827SOL    HW113349   2.230   1.936   5.375 -1.5596  0.4353  0.0091
 3827SOL    HW213350   2.314   1.894   5.256 -1.3411  1.3810 -0.1837
 3828SOL     OW13351   0.628   4.350   2.036 -0.4154  0.2320  0.3704
 3828SOL    HW113352   0.648   4.333   1.944 -2.1519 -0.5379  0.1052
 3828SOL    HW213353   0.713   4.375   2.075  0.3588  0.4725 -1.3930
 3829SOL     OW13354   3.526   6.630   3.017 -0.6040 -0.5421  0.2147
 3829SOL    HW113355   3.566   6.555   3.062  1.3608  0.1496 -0.2606
 3829SOL    HW213356   3.597   6.666   2.964 -0.9537  2.7262  1.7429
 3830SOL     OW13357   5.055   7.366   6.597 -0.4310 -0.1638  0.5156
 3830SOL    HW113358   5.053   7.285   6.649 -1.8026  0.3811  1.3776
 3830SOL    HW213359   5.042   7.436   6.661  0.2345  0.7123 -0.2797
 3831SOL     OW13360   2.028   5.212   0.271  0.2774  0.2234  0.3858
 3831SOL    HW113361   1.943   5.241   0.303 -0.1508  0.2911 -0.7599
 3831SOL    HW213362   2.029   5.238   0.178  1.6138  0.3811  0.4207
 3832SOL     OW13363   8.013   0.555   5.793 -0.2415 -0.0430 -0.3283
 3832SOL    HW113364   7.936   0.530   5.742 -0.2602  0.2231 -0.4305
 3832SOL    HW213365   8.057   0.472   5.811 -0.9922 -0.2847  0.4534
 3833SOL     OW13366   8.864   2.910   5.836  0.1655 -0.2956  0.0086
 3833SOL    HW113367   8.809   2.844   5.879  0.5667 -0.0785  0.8750
 3833SOL    HW213368   8.937   2.922   5.896  1.0801 -0.4555 -1.0467
 3834SOL     OW13369   3.438   8.056   3.306  0.9217  0.1176  0.3228
 3834SOL    HW113370   3.491   8.128   3.274  1.9026 -0.2615  1.0612
 3834SOL    HW213371   3.458   8.050   3.399  1.1160 -1.3209  0.2079
 3835SOL     OW13372   3.961   7.670   2.187 -0.2215  0.7664  0.1275
 3835SOL    HW113373   4.049   7.689   2.156  0.4384  0.0301  1.4426
 3835SOL    HW213374   3.973   7.604   2.256 -1.7929  0.6703  0.3663
 3836SOL     OW13375   1.878   3.579   0.303 -0.3859  0.0926 -0.1792
 3836SOL    HW113376   1.886   3.539   0.390 -2.6662 -0.2822 -0.0686
 3836SOL    HW213377   1.819   3.653   0.316  0.3152  0.8631 -1.2019
 3837SOL     OW13378   4.391   7.162   4.442 -0.1796 -0.2152 -0.0926
 3837SOL    HW113379   4.480   7.185   4.471 -0.3457 -0.2156  0.4403
 3837SOL    HW213380   4.359   7.242   4.400 -0.0155 -0.1356 -0.0700
 3838SOL     OW13381   1.094   4.144   2.924  0.6820  0.3054  0.0416
 3838SOL    HW113382   1.007   4.121   2.891  1.6006 -0.3999 -2.0040
 3838SOL    HW213383   1.129   4.062   2.960  0.7130  0.4788  0.4168
 3839SOL     OW13384   7.913   4.955   0.140  0.4206 -0.4035 -0.1221
 3839SOL    HW113385   7.882   4.920   0.224 -0.1728 -0.5526 -0.4053
 3839SOL    HW213386   7.996   4.999   0.163  1.5162 -2.4841  0.1390
 3840SOL     OW13387   2.897   1.612   6.441 -0.8354  0.2050  0.6009
 3840SOL    HW113388   2.843   1.662   6.502 -0.5524  0.7023  0.4457
 3840SOL    HW213389   2.987   1.628   6.469 -0.7685 -1.5784  1.6175
 3841SOL     OW13390   1.657   7.308   2.645 -0.0453 -0.7734  0.1599
 3841SOL    HW113391   1.689   7.270   2.563  1.8525  0.6450  0.1801
 3841SOL    HW213392   1.581   7.254   2.668 -0.1102 -1.7465 -2.0555
 3842SOL     OW13393   5.657   7.588   2.330  0.1213 -0.4033  0.2148
 3842SOL    HW113394   5.572   7.553   2.305 -0.3916  0.6753  0.3724
 3842SOL    HW213395   5.692   7.525   2.392 -0.9596 -0.4275  0.8257
 3843SOL     OW13396   2.819   5.481   6.242 -1.1576 -0.0379 -0.1365
 3843SOL    HW113397   2.903   5.439   6.223 -1.0667 -1.2841  2.5254
 3843SOL    HW213398   2.754   5.412   6.225 -1.0898 -1.1286  3.2300
 3844SOL     OW13399   1.318   0.840   3.477 -0.4921 -0.0450 -0.1571
 3844SOL    HW113400   1.330   0.745   3.474  0.2577  0.0630 -1.1154
 3844SOL    HW213401   1.394   0.872   3.526 -1.0904  0.0189  0.7496
 3845SOL     OW13402   6.336   5.095   1.310 -0.1734  0.0720  0.1861
 3845SOL    HW113403   6.370   5.140   1.388 -2.4410  0.8541  0.8022
 3845SOL    HW213404   6.337   5.162   1.242  0.5695 -0.2442 -0.1305
 3846SOL     OW13405   7.633   5.950   5.969  0.0304 -0.3926  0.3737
 3846SOL    HW113406   7.702   5.973   6.030 -0.4521  1.5041  0.2755
 3846SOL    HW213407   7.552   5.959   6.019 -0.2821 -0.2790 -0.1406
 3847SOL     OW13408   8.786   8.563   4.277  0.0748  0.2254 -0.6271
 3847SOL    HW113409   8.734   8.547   4.198  0.7255 -0.1813 -0.9864
 3847SOL    HW213410   8.846   8.634   4.253 -0.1039  0.4851 -0.3147
 3848SOL     OW13411   0.460   7.857   5.274 -0.6837  0.1735 -0.8606
 3848SOL    HW113412   0.462   7.761   5.269  2.5577  0.0325  0.7318
 3848SOL    HW213413   0.482   7.877   5.365  1.1104  2.4078 -1.6886
 3849SOL     OW13414   8.210   0.391   6.150  0.3317 -0.1988  0.4689
 3849SOL    HW113415   8.211   0.423   6.241 -2.3496  0.6725  0.3009
 3849SOL    HW213416   8.135   0.435   6.111  2.4954  0.9065 -2.7929
 3850SOL     OW13417   7.084   8.271   7.903  0.1680  0.1544 -0.1650
 3850SOL    HW113418   7.028   8.226   7.966 -0.0345  0.1887 -0.3219
 3850SOL    HW213419   7.172   8.239   7.923 -0.1021 -1.1359 -0.9858
 3851SOL     OW13420   4.540   2.037   5.202  0.1174 -0.1609  0.3086
 3851SOL    HW113421   4.450   2.044   5.171  0.4254  2.6495 -0.1772
 3851SOL    HW213422   4.535   1.971   5.272 -2.5001  0.5768  0.9535
 3852SOL     OW13423   3.987   3.816   2.329  0.0462 -0.2163 -0.0754
 3852SOL    HW113424   4.025   3.763   2.399  2.3817  0.1749 -0.9740
 3852SOL    HW213425   4.000   3.906   2.359 -0.3845 -0.0771 -0.3092
 3853SOL     OW13426   6.175   1.447   8.919  0.3137  0.1132 -0.1225
 3853SOL    HW113427   6.218   1.383   8.862  2.6121 -0.4900  2.0702
 3853SOL    HW213428   6.152   1.520   8.861  0.8010 -1.2334 -2.0974
 3854SOL     OW13429   8.257   3.242   1.053  0.2272  0.1069 -0.1732
 3854SOL    HW113430   8.321   3.170   1.056 -0.1202 -0.1887  0.2608
 3854SOL    HW213431   8.194   3.215   0.985 -0.5397 -0.5546  0.7695
 3855SOL     OW13432   4.550   6.661   4.916 -0.9394  0.4412  0.4901
 3855SOL    HW113433   4.588   6.574   4.931 -0.8749  0.7743  2.6366
 3855SOL    HW213434   4.456   6.646   4.913 -0.8401  0.0328 -1.4948
 3856SOL     OW13435   4.034   6.045   0.286 -0.6312 -0.0429 -0.5432
 3856SOL    HW113436   4.013   5.976   0.224  2.3136  0.0568 -1.8318
 3856SOL    HW213437   4.093   6.103   0.238 -0.5453  1.6761  1.4714
 3857SOL     OW13438   4.770   7.131   1.357  0.2358  0.4321 -0.2819
 3857SOL    HW113439   4.686   7.092   1.380  0.5408 -0.7141 -1.0173
 3857SOL    HW213440   4.831   7.096   1.421  0.2309  0.9421  0.0040
 3858SOL     OW13441   8.391   2.834   1.873 -0.2898  0.1392 -0.0673
 3858SOL    HW113442   8.317   2.881   1.835  0.6783  0.2196 -1.9584
 3858SOL    HW213443   8.388   2.855   1.966 -0.5260  3.1252 -0.6483
 3859SOL     OW13444   1.198   1.186   1.491  0.3817 -0.1480  0.4244
 3859SOL    HW113445   1.190   1.273   1.531  1.2131 -0.0787  0.4478
 3859SOL    HW213446   1.161   1.196   1.404  0.4964  0.2345  0.4188
 3860SOL     OW13447   2.615   3.021   7.385  0.1144 -0.2484 -0.6228
 3860SOL    HW113448   2.555   3.094   7.367  0.8170  0.4250 -0.3283
 3860SOL    HW213449   2.632   3.028   7.479 -1.5211 -2.1545 -0.1290
 3861SOL     OW13450   7.913   0.317   4.431 -0.3824  0.0558  0.8344
 3861SOL    HW113451   7.824   0.282   4.429 -1.0886  1.7602 -0.1495
 3861SOL    HW213452   7.931   0.340   4.340  1.0945 -0.3064  1.0184
 3862SOL     OW13453   4.008   4.212   3.453  0.0684 -0.5611 -0.1034
 3862SOL    HW113454   3.956   4.244   3.380 -1.9199 -0.5675  1.2176
 3862SOL    HW213455   4.083   4.169   3.413  0.0849  1.1427 -2.0479
 3863SOL     OW13456   8.598   1.642   2.477 -0.0928  0.2587 -0.1627
 3863SOL    HW113457   8.653   1.643   2.556  0.6447  0.7814 -0.6608
 3863SOL    HW213458   8.579   1.735   2.461 -0.8294  0.1059 -0.2095
 3864SOL     OW13459   5.886   4.587   2.008 -0.1185  0.4209  0.3168
 3864SOL    HW113460   5.806   4.535   1.998 -0.1398  0.7203 -1.3782
 3864SOL    HW213461   5.956   4.528   1.978  0.2992  0.2342  1.5921
 3865SOL     OW13462   4.237   1.715   4.949  0.0032  0.0683  0.4823
 3865SOL    HW113463   4.270   1.684   5.033 -0.5965  0.2208  0.7794
 3865SOL    HW213464   4.150   1.752   4.969 -0.5159 -0.6704 -0.3368
 3866SOL     OW13465   3.568   1.290   8.501  0.2532  0.2497  0.0665
 3866SOL    HW113466   3.579   1.228   8.429  1.9318  1.0163 -0.3874
 3866SOL    HW213467   3.546   1.373   8.459 -0.7312  0.2698  0.5896
 3867SOL     OW13468   6.985   6.519   1.408  0.3503 -0.5012 -0.3459
 3867SOL    HW113469   6.981   6.613   1.391  2.0973 -0.5505 -1.2816
 3867SOL    HW213470   6.899   6.497   1.444  0.3217  1.6785  1.0943
 3868SOL     OW13471   5.704   3.540   8.597  0.0100 -0.2227  0.9281
 3868SOL    HW113472   5.653   3.524   8.518  0.8294 -2.8460  0.8371
 3868SOL    HW213473   5.793   3.554   8.565  0.0364  0.4690  1.2962
 3869SOL     OW13474   5.905   6.539   0.928 -0.6276 -0.2094 -0.3687
 3869SOL    HW113475   6.000   6.544   0.939 -0.8950  0.1378  2.8635
 3869SOL    HW213476   5.892   6.463   0.872  1.5518 -0.4317 -0.6836
 3870SOL     OW13477   8.087   2.842   2.340 -0.2533  0.0695 -0.3538
 3870SOL    HW113478   8.166   2.788   2.336  0.5918  1.2168  0.3916
 3870SOL    HW213479   8.084   2.874   2.430 -0.5418  1.5330 -0.8583
 3871SOL     OW13480   0.270   4.937   2.990  0.2605 -0.3202  0.3595
 3871SOL    HW113481   0.203   4.870   2.997 -0.4671  0.3196 -0.3586
 3871SOL    HW213482   0.230   5.006   2.938  0.8862  0.7999  1.3041
 3872SOL     OW13483   0.737   6.872   6.734  0.0985  0.0436 -0.4972
 3872SOL    HW113484   0.733   6.952   6.681 -2.7635 -0.1455 -0.7330
 3872SOL    HW213485   0.752   6.903   6.823 -2.0011  1.0266 -0.4146
 3873SOL     OW13486   2.115   4.818   8.947 -0.1434 -0.2794  0.2659
 3873SOL    HW113487   2.032   4.844   8.908  0.7680  0.9292 -0.9655
 3873SOL    HW213488   2.163   4.900   8.958  1.7825 -1.1346 -1.2004
 3874SOL     OW13489   3.961   1.707   1.791  0.0314 -0.4553 -0.3483
 3874SOL    HW113490   3.925   1.678   1.707  0.0347 -1.5323  0.0003
 3874SOL    HW213491   4.055   1.711   1.777 -0.0527  0.3428 -0.6786
 3875SOL     OW13492   5.550   8.317   0.204 -0.2532  0.0296  0.1184
 3875SOL    HW113493   5.496   8.299   0.126 -1.1117  0.4848  0.5906
 3875SOL    HW213494   5.587   8.232   0.228 -1.0786 -0.3689  0.0161
 3876SOL     OW13495   6.736   1.082   8.358 -0.7023  0.2305 -0.3014
 3876SOL    HW113496   6.829   1.080   8.381 -0.5563  1.0029 -0.7959
 3876SOL    HW213497   6.697   1.141   8.422 -1.0344 -0.8043  0.4855
 3877SOL     OW13498   8.222   2.016   6.224 -0.1755 -0.2058 -0.4773
 3877SOL    HW113499   8.192   2.001   6.314 -0.7958 -0.2535 -0.6852
 3877SOL    HW213500   8.222   1.928   6.184  0.4661 -0.2346 -0.4109
 3878SOL     OW13501   3.700   4.759   3.761  0.0814 -0.3868 -0.0722
 3878SOL    HW113502   3.757   4.735   3.688  0.3990 -0.5907  0.2380
 3878SOL    HW213503   3.700   4.681   3.817 -0.4509 -0.3649 -0.0389
 3879SOL     OW13504   7.920   8.485   7.437  0.4139 -0.1587  0.0381
 3879SOL    HW113505   7.878   8.415   7.487 -0.3754 -0.7400 -1.3802
 3879SOL    HW213506   7.953   8.546   7.503  0.3936 -1.4516  1.2826
 3880SOL     OW13507   5.367   1.875   0.069 -0.0989  0.3806 -0.2764
 3880SOL    HW113508   5.368   1.839  -0.020 -1.7674 -0.6013  0.0491
 3880SOL    HW213509   5.431   1.823   0.117  0.6164  0.7371 -0.8232
 3881SOL     OW13510   3.974   0.109   5.904  0.1641  0.0565 -0.0447
 3881SOL    HW113511   3.967   0.075   5.994 -1.2269  0.9694  0.2221
 3881SOL    HW213512   3.921   0.048   5.852 -1.3973  1.1066  0.2507
 3882SOL     OW13513   5.801   6.932   0.581 -0.1176 -0.3147  0.1056
 3882SOL    HW113514   5.818   6.848   0.623  0.6124  0.7919  2.1272
 3882SOL    HW213515   5.727   6.969   0.630  0.3824  0.7637  0.0709
 3883SOL     OW13516   2.450   6.568   7.943  0.6721  0.6994  0.5227
 3883SOL    HW113517   2.533   6.584   7.988  0.0550 -0.2385  2.0828
 3883SOL    HW213518   2.455   6.620   7.863  2.9695  0.2678  0.3248
 3884SOL     OW13519   8.815   5.083   0.397  0.2615 -0.4903  0.3995
 3884SOL    HW113520   8.721   5.099   0.406  0.5222  0.1527  2.3658
 3884SOL    HW213521   8.856   5.145   0.457  2.0306  0.0210 -1.2363
 3885SOL     OW13522   4.580   2.022   1.510 -0.6420  0.1254 -0.0631
 3885SOL    HW113523   4.573   2.027   1.415  1.0763 -0.2864 -0.2401
 3885SOL    HW213524   4.604   2.111   1.537  0.1451 -0.0608 -0.1470
 3886SOL     OW13525   7.427   0.580   1.691 -0.0325  0.4800  0.3247
 3886SOL    HW113526   7.379   0.500   1.712  1.2026 -0.5696 -0.7379
 3886SOL    HW213527   7.453   0.616   1.776 -0.2319 -0.4726  0.7956
 3887SOL     OW13528   4.044   3.976   4.043 -0.0155  0.4996  0.2554
 3887SOL    HW113529   3.971   3.979   4.106  1.8629  1.8918  2.5063
 3887SOL    HW213530   4.006   4.009   3.962 -2.0110  0.6954  1.1898
 3888SOL     OW13531   2.533   1.969   8.780  0.0206 -0.1012 -0.3275
 3888SOL    HW113532   2.627   1.977   8.765 -0.2484  3.9101 -0.9141
 3888SOL    HW213533   2.497   1.946   8.695  0.2633  1.4906 -0.8859
 3889SOL     OW13534   4.827   2.637   3.462  0.1186 -0.4710 -0.6933
 3889SOL    HW113535   4.767   2.597   3.400 -2.1793  0.1092  1.0225
 3889SOL    HW213536   4.787   2.621   3.548  1.9860  0.7016  0.4694
 3890SOL     OW13537   1.068   3.295   6.810  0.2966 -0.0694  0.1270
 3890SOL    HW113538   1.033   3.215   6.769  0.5585 -0.4725  0.6756
 3890SOL    HW213539   1.007   3.363   6.784 -0.5501 -0.6478  0.5389
 3891SOL     OW13540   2.700   4.605   8.742  0.7177  1.1339 -0.0057
 3891SOL    HW113541   2.737   4.557   8.816 -0.3881 -0.9827 -0.7375
 3891SOL    HW213542   2.708   4.545   8.668 -1.0838  1.9089 -0.8969
 3892SOL     OW13543   5.116   6.618   2.201 -0.1850 -0.7698  0.0944
 3892SOL    HW113544   5.041   6.590   2.149 -0.9210 -0.1814  0.8015
 3892SOL    HW213545   5.108   6.570   2.284  1.1325 -1.9168 -0.3970
 3893SOL     OW13546   1.324   5.286   1.900  0.0892 -0.0677 -0.3527
 3893SOL    HW113547   1.239   5.328   1.888  0.0827 -0.1533 -0.6127
 3893SOL    HW213548   1.306   5.192   1.892  0.2551 -0.0708 -0.7043
 3894SOL     OW13549   6.242   4.844   5.943  0.0268 -0.3320  0.2066
 3894SOL    HW113550   6.309   4.819   6.006  0.0146  0.7519  0.6634
 3894SOL    HW213551   6.282   4.914   5.891  0.1980 -1.5127 -1.3085
 3895SOL     OW13552   8.511   6.614   2.155  0.4056 -0.5839  0.3995
 3895SOL    HW113553   8.591   6.654   2.122 -0.0121  1.1329  1.3537
 3895SOL    HW213554   8.519   6.617   2.250  0.5596 -3.3048  0.5417
 3896SOL     OW13555   8.199   4.590   6.208  0.3149  0.0486  0.1516
 3896SOL    HW113556   8.220   4.519   6.147 -0.3727  0.0392 -0.0806
 3896SOL    HW213557   8.284   4.628   6.230  0.5813  0.0024 -0.7556
 3897SOL     OW13558   0.761   7.084   8.979 -0.1124  0.1217 -0.1684
 3897SOL    HW113559   0.816   7.153   9.016 -0.5088  0.1509  0.3806
 3897SOL    HW213560   0.714   7.127   8.907  1.3013 -0.1514 -1.3079
 3898SOL     OW13561   1.081   1.945   7.840 -0.1752 -0.0779  0.3470
 3898SOL    HW113562   1.082   1.965   7.746 -0.1502  1.3103  0.6275
 3898SOL    HW213563   1.035   1.861   7.845  0.7202 -0.6987 -0.9890
 3899SOL     OW13564   5.062   0.864   2.897 -0.1341  0.2982 -0.4909
 3899SOL    HW113565   5.120   0.854   2.821 -0.9087 -0.3308 -1.0169
 3899SOL    HW213566   5.011   0.784   2.898 -0.2796  0.3988  0.5884
 3900SOL     OW13567   8.978   2.588   5.726 -0.2975 -0.1980  0.2027
 3900SOL    HW113568   8.951   2.639   5.649  1.0872 -0.7739 -0.6935
 3900SOL    HW213569   8.895   2.557   5.764 -1.1377  1.8704  0.2307
 3901SOL     OW13570   3.040   4.180   5.179  0.0327  0.0429  0.1513
 3901SOL    HW113571   3.093   4.230   5.117 -0.7903  1.5252  0.5895
 3901SOL    HW213572   3.042   4.090   5.146 -0.3805  0.7760 -2.0467
 3902SOL     OW13573   6.262   0.475   4.745  0.1284 -0.1225 -0.1642
 3902SOL    HW113574   6.213   0.551   4.777  2.6211  1.7595 -0.4592
 3902SOL    HW213575   6.197   0.423   4.697 -2.0823  0.7971  1.6568
 3903SOL     OW13576   5.193   0.763   2.653 -0.2359 -0.0087  0.0487
 3903SOL    HW113577   5.210   0.848   2.612  0.2956 -0.4537 -0.6872
 3903SOL    HW213578   5.148   0.713   2.586 -1.7572  0.1138  0.9402
 3904SOL     OW13579   2.643   5.493   6.800  0.3353  0.5486  0.5270
 3904SOL    HW113580   2.625   5.422   6.739 -1.0544  0.6619  0.7814
 3904SOL    HW213581   2.694   5.556   6.749 -0.3608  0.4029 -0.3658
 3905SOL     OW13582   5.516   4.314   7.964  0.0896  0.3265  0.0048
 3905SOL    HW113583   5.565   4.341   7.887 -0.3273  0.1650 -0.3255
 3905SOL    HW213584   5.579   4.264   8.017  0.4435  0.6542 -0.1095
 3906SOL     OW13585   2.307   5.823   2.168 -0.4892  0.1779  0.0521
 3906SOL    HW113586   2.214   5.841   2.160 -0.9448 -1.9339 -0.0486
 3906SOL    HW213587   2.313   5.754   2.234  1.0641  0.6712  0.4755
 3907SOL     OW13588   0.493   7.049   8.642  0.6739 -0.4138  0.0789
 3907SOL    HW113589   0.491   7.106   8.565  0.3608 -0.0183  0.3835
 3907SOL    HW213590   0.536   7.100   8.710  0.1754 -0.4485  0.4238
 3908SOL     OW13591   0.404   6.060   8.876  0.2704 -0.0110 -1.1108
 3908SOL    HW113592   0.317   6.077   8.840 -0.3547 -0.4135  0.1557
 3908SOL    HW213593   0.428   5.974   8.841 -0.5124 -0.5926 -0.2554
 3909SOL     OW13594   1.272   3.550   7.984  0.5043 -0.8365 -0.2214
 3909SOL    HW113595   1.346   3.513   8.033  0.8247  1.3341  1.0686
 3909SOL    HW213596   1.288   3.644   7.982 -1.6704 -0.4062 -0.8767
 3910SOL     OW13597   8.115   2.807   5.932  0.0472 -0.4374 -0.2080
 3910SOL    HW113598   8.064   2.809   5.851  1.2547 -1.8094 -1.0536
 3910SOL    HW213599   8.184   2.742   5.915 -0.9246 -2.4210  2.6373
 3911SOL     OW13600   7.380   6.554   0.505 -0.6907  0.1606 -0.1729
 3911SOL    HW113601   7.419   6.579   0.589 -0.5300  0.0041 -0.2014
 3911SOL    HW213602   7.306   6.498   0.529 -0.3445 -0.2878 -0.1544
 3912SOL     OW13603   8.449   5.248   3.321  0.4713  0.6671 -0.3932
 3912SOL    HW113604   8.464   5.316   3.386  1.9061  1.9183 -1.9580
 3912SOL    HW213605   8.529   5.246   3.269 -0.9902  0.4221 -2.7678
 3913SOL     OW13606   2.219   3.354   3.062 -0.2752 -0.0707  0.7757
 3913SOL    HW113607   2.279   3.280   3.058  0.6263  0.6331  0.9383
 3913SOL    HW213608   2.160   3.341   2.988  1.4319  0.3503 -0.7397
 3914SOL     OW13609   1.292   2.969   3.003  0.3879 -0.1630  0.1554
 3914SOL    HW113610   1.323   2.958   3.093  1.4916 -1.4184 -0.3497
 3914SOL    HW213611   1.221   2.905   2.995 -1.4826  1.6813  0.8484
 3915SOL     OW13612   2.461   0.960   8.365 -0.0010 -0.3315  0.0279
 3915SOL    HW113613   2.448   0.998   8.278 -0.0276 -1.4249 -0.4696
 3915SOL    HW213614   2.547   0.992   8.393 -0.2573  0.5118 -0.1379
 3916SOL     OW13615   6.951   3.397   7.213 -0.6555  0.3354 -0.0700
 3916SOL    HW113616   7.007   3.426   7.140 -2.5188  1.7767 -1.0420
 3916SOL    HW213617   6.953   3.470   7.275 -0.8416  0.0650  0.2577
 3917SOL     OW13618   1.130   6.006   5.750  0.2843 -1.1854  0.1163
 3917SOL    HW113619   1.095   5.949   5.819  0.0171 -1.4115 -0.2053
 3917SOL    HW213620   1.224   5.990   5.752  0.4580 -0.1823  1.3423
 3918SOL     OW13621   8.581   3.106   7.788 -0.0529  0.1784  0.2207
 3918SOL    HW113622   8.620   3.191   7.770  0.3052 -0.4112 -2.1246
 3918SOL    HW213623   8.533   3.118   7.870  0.9516  2.2885  0.5498
 3919SOL     OW13624   1.931   4.795   6.084 -0.5743 -0.6033 -0.2619
 3919SOL    HW113625   1.954   4.731   6.016  0.1749 -1.2656  0.5939
 3919SOL    HW213626   1.979   4.874   6.059 -0.1683 -0.8928 -0.4081
 3920SOL     OW13627   2.934   8.991   5.349  0.0562  0.1646  0.4571
 3920SOL    HW113628   2.853   8.978   5.299  0.9119 -1.8521 -0.5462
 3920SOL    HW213629   2.905   9.020   5.435 -1.7258 -0.3530  0.0694
 3921SOL     OW13630   1.076   2.808   2.981 -0.1186 -0.6340  0.1199
 3921SOL    HW113631   1.038   2.756   3.052 -1.7291 -1.5381 -1.3294
 3921SOL    HW213632   1.094   2.745   2.912  3.0286 -0.0517  0.2484
 3922SOL     OW13633   1.400   3.384   8.188  0.2130  0.2880  0.1136
 3922SOL    HW113634   1.383   3.402   8.281  0.8498 -2.3129  0.8212
 3922SOL    HW213635   1.496   3.377   8.182  0.1823  0.5280 -0.7524
 3923SOL     OW13636   0.243   0.364   0.422  0.0275 -0.1635 -0.0378
 3923SOL    HW113637   0.292   0.299   0.472 -1.1562 -0.8642  0.2452
 3923SOL    HW213638   0.308   0.406   0.367  1.6178  1.3516  2.7720
 3924SOL     OW13639   0.112   5.818   7.538  0.3756 -0.1094  0.2816
 3924SOL    HW113640   0.138   5.888   7.477  0.1467  0.1988  0.5326
 3924SOL    HW213641   0.193   5.793   7.582  0.9145 -1.6801 -1.5063
 3925SOL     OW13642   7.982   6.249   2.154  0.3049 -0.3677 -0.1287
 3925SOL    HW113643   7.912   6.190   2.125  0.4307 -0.6724  0.1819
 3925SOL    HW213644   7.984   6.238   2.249 -0.3056  0.8430  0.0416
 3926SOL     OW13645   2.783   8.587   6.796 -0.2370 -0.8248  0.2656
 3926SOL    HW113646   2.749   8.557   6.712  0.1510 -0.3980 -0.0509
 3926SOL    HW213647   2.753   8.678   6.802 -2.3824 -1.5451  1.7322
 3927SOL     OW13648   4.163   1.297   5.516 -0.2970 -0.2604  0.0185
 3927SOL    HW113649   4.229   1.365   5.532 -1.0385  0.8012 -1.2189
 3927SOL    HW213650   4.208   1.232   5.462 -0.0142  0.0263 -0.0954
 3928SOL     OW13651   0.806   5.473   0.979 -0.2881 -0.2983  0.6106
 3928SOL    HW113652   0.772   5.544   0.925  1.6259 -0.1950 -0.5382
 3928SOL    HW213653   0.874   5.513   1.033  0.3094 -1.0952  0.4738
 3929SOL     OW13654   0.283   0.939   0.646 -0.2417  0.1362  0.3356
 3929SOL    HW113655   0.204   0.979   0.682 -0.0793 -0.2585  1.1416
 3929SOL    HW213656   0.332   0.908   0.722  1.0317  0.9945 -0.1060
 3930SOL     OW13657   0.436   8.994   0.631 -0.5877  0.1095 -0.3722
 3930SOL    HW113658   0.439   9.088   0.612 -0.6471  0.4293  1.0948
 3930SOL    HW213659   0.424   8.989   0.726 -2.8829 -1.3683 -0.6709
 3931SOL     OW13660   6.910   1.599   0.262  0.2788  0.4557  0.6521
 3931SOL    HW113661   6.901   1.642   0.177  0.4828  0.0319  0.4131
 3931SOL    HW213662   6.821   1.570   0.284 -0.0592  1.9017  1.3106
 3932SOL     OW13663   2.884   5.835   5.208  0.1749 -0.6378 -0.0120
 3932SOL    HW113664   2.844   5.844   5.121 -0.1113 -0.8036  0.1003
 3932SOL    HW213665   2.956   5.898   5.208  0.2079 -0.6728 -0.3887
 3933SOL     OW13666   2.757   3.210   8.270  0.0807  0.1074  0.0768
 3933SOL    HW113667   2.703   3.135   8.294 -0.7642  0.2235 -1.3322
 3933SOL    HW213668   2.733   3.279   8.332 -0.4437 -0.2395  0.2588
 3934SOL     OW13669   5.989   3.690   5.225 -0.6625  0.0584  0.1283
 3934SOL    HW113670   5.929   3.617   5.242 -1.2816 -0.2712 -2.9451
 3934SOL    HW213671   6.071   3.647   5.199  0.1679  0.5320  1.7787
 3935SOL     OW13672   4.763   7.720   6.687 -0.0143 -0.2862 -0.3705
 3935SOL    HW113673   4.727   7.654   6.746  0.7610 -1.0761 -0.7503
 3935SOL    HW213674   4.751   7.803   6.733  0.9800 -0.9267  1.1239
 3936SOL     OW13675   2.242   1.123   7.987  0.2507  0.4688 -0.2423
 3936SOL    HW113676   2.214   1.107   8.077 -0.1739 -0.5150 -0.5352
 3936SOL    HW213677   2.178   1.185   7.952 -2.0033 -2.1240 -1.0582
 3937SOL     OW13678   2.521   7.443   0.282 -0.2959  0.4282 -0.3465
 3937SOL    HW113679   2.490   7.518   0.333  0.8898 -0.6040  2.0871
 3937SOL    HW213680   2.527   7.475   0.192 -0.2089  3.1075  0.5234
 3938SOL     OW13681   1.256   3.199   3.328  0.1053  0.4995 -0.0778
 3938SOL    HW113682   1.175   3.155   3.305  0.0867  1.8807 -3.1004
 3938SOL    HW213683   1.325   3.136   3.305 -0.0154  0.2351  0.2639
 3939SOL     OW13684   1.813   5.189   1.232 -0.2121 -0.3817  0.7819
 3939SOL    HW113685   1.763   5.260   1.192 -0.5248 -1.4881 -0.8561
 3939SOL    HW213686   1.895   5.231   1.260 -0.2743  0.5707 -0.3952
 3940SOL     OW13687   6.241   7.991   2.878  0.0819 -0.0110 -0.3163
 3940SOL    HW113688   6.250   8.061   2.942  1.9796 -0.7792  0.3353
 3940SOL    HW213689   6.328   7.985   2.837 -0.2486 -1.4912 -0.8758
 3941SOL     OW13690   8.920   5.307   8.316  0.0775 -0.7212 -0.5030
 3941SOL    HW113691   8.886   5.264   8.395 -1.6352  0.7055 -0.3831
 3941SOL    HW213692   8.920   5.400   8.339  0.9816 -0.4108 -1.6947
 3942SOL     OW13693   1.201   5.418   8.264  0.3933 -0.2210 -0.3052
 3942SOL    HW113694   1.110   5.401   8.285  0.5080  0.0593  0.4262
 3942SOL    HW213695   1.241   5.331   8.258  0.4802 -0.3190  1.2250
 3943SOL     OW13696   3.392   2.556   6.914  0.3689 -0.2113 -0.1368
 3943SOL    HW113697   3.396   2.610   6.993 -2.6351  0.8776 -0.5895
 3943SOL    HW213698   3.353   2.474   6.943 -3.1084  1.0662 -0.7003
 3944SOL     OW13699   5.685   8.156   4.503 -0.0992 -0.2423 -0.7764
 3944SOL    HW113700   5.623   8.105   4.554 -0.5135  2.3389  1.5653
 3944SOL    HW213701   5.764   8.160   4.558  0.8296 -0.4030 -2.0419
 3945SOL     OW13702   2.271   1.867   8.007 -0.1273  0.0619  0.1365
 3945SOL    HW113703   2.182   1.836   8.022  0.1100 -0.9277 -0.4143
 3945SOL    HW213704   2.316   1.855   8.090 -0.9851  2.3750  1.0168
 3946SOL     OW13705   0.842   7.826   8.113 -0.2299  0.3048  0.1350
 3946SOL    HW113706   0.813   7.746   8.156  0.0697  0.2492  0.2365
 3946SOL    HW213707   0.812   7.896   8.171  1.0632  0.1918  0.9902
 3947SOL     OW13708   8.831   4.069   3.629 -0.2988  0.0125 -0.2338
 3947SOL    HW113709   8.829   4.090   3.535  0.3104 -0.9450 -0.4884
 3947SOL    HW213710   8.781   3.987   3.636 -0.8837  0.4143  0.3851
 3948SOL     OW13711   3.538   7.461   2.024  0.5645 -0.1179  0.3025
 3948SOL    HW113712   3.491   7.380   2.007  0.8173 -0.6943  2.1563
 3948SOL    HW213713   3.497   7.497   2.102  0.9234  1.1894 -0.0787
 3949SOL     OW13714   1.266   6.798   5.624  0.1741 -0.1576 -0.0252
 3949SOL    HW113715   1.249   6.711   5.588  0.7905  0.1873 -1.2320
 3949SOL    HW213716   1.194   6.814   5.684 -0.3555 -1.1860 -0.3596
 3950SOL     OW13717   3.864   8.388   2.170 -0.6022 -0.4500 -0.1280
 3950SOL    HW113718   3.779   8.391   2.128 -0.3267  2.3887 -0.6903
 3950SOL    HW213719   3.924   8.359   2.101 -0.6487  0.9584 -0.8004
 3951SOL     OW13720   0.534   3.077   0.130 -0.0791 -0.2933  0.1333
 3951SOL    HW113721   0.501   3.129   0.056  0.3318 -3.4874 -2.5459
 3951SOL    HW213722   0.459   3.068   0.188 -1.4715 -0.3670 -1.5759
 3952SOL     OW13723   1.863   7.890   4.911  0.8709 -0.2027  0.1058
 3952SOL    HW113724   1.944   7.848   4.883  0.0146 -1.1489 -1.0228
 3952SOL    HW213725   1.843   7.848   4.995  1.9467  0.6055  0.7861
 3953SOL     OW13726   7.592   7.911   5.759 -0.1535  0.3563  0.2900
 3953SOL    HW113727   7.512   7.872   5.795 -0.8721  2.3017  0.9608
 3953SOL    HW213728   7.650   7.919   5.835  0.0026  0.5399  0.1509
 3954SOL     OW13729   0.903   3.419   8.243  0.0699 -0.1766  0.1684
 3954SOL    HW113730   0.821   3.371   8.230  0.7762 -0.9395 -2.0022
 3954SOL    HW213731   0.922   3.410   8.337 -0.2620 -3.5773  0.0530
 3955SOL     OW13732   3.012   8.589   8.684 -0.5369 -0.2199 -0.2163
 3955SOL    HW113733   2.919   8.599   8.705 -0.8538 -1.3527 -1.0159
 3955SOL    HW213734   3.055   8.662   8.730 -1.7685  0.1172  0.4362
 3956SOL     OW13735   0.943   0.124   1.601 -0.0650 -0.0895  0.0447
 3956SOL    HW113736   0.995   0.070   1.541 -0.5596 -0.1245 -0.3611
 3956SOL    HW213737   0.894   0.183   1.544 -0.6900 -0.2527  0.4075
 3957SOL     OW13738   4.939   1.109   0.836 -0.2711 -0.1160  0.2842
 3957SOL    HW113739   4.844   1.104   0.835 -0.3412  0.0737  1.9238
 3957SOL    HW213740   4.959   1.202   0.824 -0.2653 -0.2128 -0.4867
 3958SOL     OW13741   4.119   1.739   3.591  0.4124  0.0556 -0.2485
 3958SOL    HW113742   4.192   1.678   3.599 -1.0945 -1.7459  0.5820
 3958SOL    HW213743   4.124   1.792   3.671 -0.1575 -1.2358  0.6767
 3959SOL     OW13744   2.131   4.382   2.982  0.1288  0.3455 -0.5182
 3959SOL    HW113745   2.093   4.298   2.959  0.0916 -0.0512  0.8706
 3959SOL    HW213746   2.056   4.438   3.000  0.1307 -0.0990  1.0710
 3960SOL     OW13747   8.886   6.483   5.843  1.0611  0.1116  0.1817
 3960SOL    HW113748   8.819   6.527   5.896  1.0300 -0.3496  0.5301
 3960SOL    HW213749   8.851   6.396   5.827  0.2541  0.7889 -2.1283
 3961SOL     OW13750   3.555   8.546   7.756  0.3722  0.0521 -0.1439
 3961SOL    HW113751   3.539   8.463   7.709 -0.5396  0.6016 -0.8534
 3961SOL    HW213752   3.477   8.557   7.811  0.0608  0.8657 -0.7228
 3962SOL     OW13753   4.123   0.313   6.783 -0.9003  0.2882 -0.5931
 3962SOL    HW113754   4.041   0.311   6.833 -0.3155  0.0533  0.3951
 3962SOL    HW213755   4.123   0.399   6.741 -1.0797  0.7909  0.4073
 3963SOL     OW13756   3.416   1.333   1.465 -0.4105 -0.7948  0.1994
 3963SOL    HW113757   3.381   1.293   1.545 -1.1385 -1.2699 -0.3457
 3963SOL    HW213758   3.427   1.259   1.404  0.0339 -0.4241 -0.1817
 3964SOL     OW13759   6.458   4.595   1.164 -0.4646  0.2420 -0.2468
 3964SOL    HW113760   6.423   4.594   1.253 -1.0872 -0.8393 -0.4824
 3964SOL    HW213761   6.509   4.514   1.158  0.8021  1.0177 -0.4222
 3965SOL     OW13762   1.616   8.804   3.028  0.1698 -0.3610 -0.2079
 3965SOL    HW113763   1.679   8.854   3.081 -0.5155  0.1148  0.1898
 3965SOL    HW213764   1.627   8.839   2.940 -0.1503  0.3662  0.0255
 3966SOL     OW13765   1.169   1.992   0.074  0.0030  0.0013 -0.2316
 3966SOL    HW113766   1.166   2.054   0.001  0.5869  0.5231  0.1755
 3966SOL    HW213767   1.152   2.046   0.152 -1.5764 -0.6897 -0.0392
 3967SOL     OW13768   7.236   4.111   1.662 -1.2334  0.5285  0.0069
 3967SOL    HW113769   7.204   4.035   1.711 -1.7339  0.6347 -0.1568
 3967SOL    HW213770   7.290   4.073   1.592 -2.3167  0.2604 -0.7035
 3968SOL     OW13771   2.376   1.306   5.296 -0.0438 -0.2975  0.6215
 3968SOL    HW113772   2.428   1.379   5.261 -2.5105  1.6848  0.7905
 3968SOL    HW213773   2.359   1.250   5.221  0.9524 -0.1135  0.2417
 3969SOL     OW13774   1.510   0.851   1.023  0.2443  0.4805  0.0762
 3969SOL    HW113775   1.573   0.864   1.094 -0.0075  0.3931  0.3168
 3969SOL    HW213776   1.428   0.831   1.067  0.1733  0.0396 -0.2455
 3970SOL     OW13777   2.328   5.239   3.011  0.0378 -0.2116  0.1341
 3970SOL    HW113778   2.319   5.326   3.050 -1.7370 -0.8014  1.1516
 3970SOL    HW213779   2.319   5.179   3.086  1.2291 -1.2843 -0.5435
 3971SOL     OW13780   0.582   6.662   1.119  0.3434  0.3300  0.0937
 3971SOL    HW113781   0.557   6.724   1.049 -2.6236 -1.1698 -0.3668
 3971SOL    HW213782   0.626   6.591   1.072  0.8556  0.5857  0.1768
 3972SOL     OW13783   6.931   3.420   8.602 -0.3222 -0.2053  0.4612
 3972SOL    HW113784   6.995   3.492   8.594 -0.4915 -0.0293  0.6698
 3972SOL    HW213785   6.879   3.444   8.679  0.7738 -1.4538  1.6628
 3973SOL     OW13786   4.737   0.062   6.376  0.1461 -0.1616  0.0220
 3973SOL    HW113787   4.735   0.149   6.336 -0.2244 -0.4486 -0.5981
 3973SOL    HW213788   4.647   0.030   6.369 -0.3575  0.4303  2.5928
 3974SOL     OW13789   3.660   0.139   0.253  0.5399 -0.0792  0.3458
 3974SOL    HW113790   3.643   0.227   0.217 -2.5976 -0.6245  0.2446
 3974SOL    HW213791   3.685   0.087   0.177  2.2337  0.6083  0.3767
 3975SOL     OW13792   3.514   5.017   7.570  0.2592  0.4045  0.0707
 3975SOL    HW113793   3.536   4.941   7.516 -1.1534  0.7951 -1.1033
 3975SOL    HW213794   3.421   5.006   7.591  0.1324  1.5902  0.2114
 3976SOL     OW13795   3.876   8.727   8.130 -0.2709  0.4714 -0.3232
 3976SOL    HW113796   3.850   8.698   8.043  0.0111  0.4013 -0.3863
 3976SOL    HW213797   3.794   8.747   8.175 -0.3863  1.1603 -0.8256
 3977SOL     OW13798   5.917   6.407   6.283 -0.3202  0.6890  0.2477
 3977SOL    HW113799   5.933   6.343   6.352 -1.6480 -1.2325 -1.1104
 3977SOL    HW213800   5.917   6.356   6.202  0.0173  2.6646 -1.0788
 3978SOL     OW13801   3.775   0.508   7.402 -0.2822  0.0155 -0.0109
 3978SOL    HW113802   3.858   0.479   7.365  0.1024  0.4552  0.4853
 3978SOL    HW213803   3.719   0.524   7.326 -0.0746 -0.7473 -0.3281
 3979SOL     OW13804   4.249   4.872   6.563  0.3520  0.2521  0.5057
 3979SOL    HW113805   4.240   4.954   6.514  0.2123 -0.3504 -0.5042
 3979SOL    HW213806   4.322   4.888   6.623  0.3920  1.0735  0.2535
 3980SOL     OW13807   2.030   6.016   8.836  0.0654  0.0690  0.4200
 3980SOL    HW113808   2.076   6.099   8.847  1.6545 -0.7107 -0.1029
 3980SOL    HW213809   1.955   6.038   8.780  0.2737  1.1990  0.5443
 3981SOL     OW13810   0.758   1.375   1.118  0.3748 -0.2925 -0.5402
 3981SOL    HW113811   0.822   1.446   1.127  0.5233 -0.4985  0.0736
 3981SOL    HW213812   0.783   1.330   1.037  2.6125 -1.9510  0.9530
 3982SOL     OW13813   3.040   2.526   8.412 -0.1487  0.3586  0.1596
 3982SOL    HW113814   3.009   2.439   8.436 -0.2649  0.8227  1.8536
 3982SOL    HW213815   3.116   2.511   8.355  0.1217 -0.8610  0.8210
 3983SOL     OW13816   8.791   5.599   3.557 -0.1261 -0.0744  0.0525
 3983SOL    HW113817   8.821   5.681   3.517 -1.4591  0.6937  0.5568
 3983SOL    HW213818   8.712   5.624   3.605 -0.1176 -1.5205  0.8539
 3984SOL     OW13819   8.545   8.349   6.035  0.1197  0.4969 -0.0158
 3984SOL    HW113820   8.627   8.300   6.040  0.4931  0.8872 -1.6990
 3984SOL    HW213821   8.572   8.441   6.029 -0.5358  0.8403  1.7278
 3985SOL     OW13822   2.415   8.402   0.254  0.1868  0.0743  0.4231
 3985SOL    HW113823   2.440   8.486   0.214 -0.7079 -1.0913 -2.8646
 3985SOL    HW213824   2.461   8.336   0.203  0.5568 -1.5490  2.6973
 3986SOL     OW13825   3.208   4.227   7.127  0.2233  0.6625  0.4337
 3986SOL    HW113826   3.200   4.205   7.034 -2.2290 -0.1390  0.7624
 3986SOL    HW213827   3.302   4.235   7.142  0.7331 -0.3522 -1.8470
 3987SOL     OW13828   7.077   3.554   3.725  0.4663  0.1288  0.3045
 3987SOL    HW113829   7.018   3.548   3.800  0.9268 -0.2842  0.6420
 3987SOL    HW213830   7.048   3.485   3.665 -1.0150  1.5670 -0.7275
 3988SOL     OW13831   2.929   7.865   7.765  0.4711  0.2312  0.1482
 3988SOL    HW113832   2.956   7.802   7.699 -0.0193 -0.5907  0.7249
 3988SOL    HW213833   2.837   7.846   7.781  0.3657  0.9692  0.4672
 3989SOL     OW13834   0.446   6.845   4.876  0.1321 -0.5011 -0.7744
 3989SOL    HW113835   0.387   6.871   4.947 -0.1168  0.5271 -1.3337
 3989SOL    HW213836   0.387   6.819   4.804  0.3393  0.7080 -1.4000
 3990SOL     OW13837   8.328   4.821   4.542 -0.6449 -0.0217  0.2579
 3990SOL    HW113838   8.392   4.890   4.523  0.2834 -1.3333 -1.7419
 3990SOL    HW213839   8.271   4.859   4.609  0.7377  2.1027  0.3359
 3991SOL     OW13840   5.383   5.825   0.269  0.2345  0.0693  0.0288
 3991SOL    HW113841   5.452   5.888   0.252  0.2737  0.0259  0.0257
 3991SOL    HW213842   5.309   5.854   0.216  0.0619  0.4421  0.4643
 3992SOL     OW13843   3.998   0.248   0.653  0.2621  0.8300 -0.2583
 3992SOL    HW113844   3.966   0.334   0.624 -1.0732  0.5221  0.2235
 3992SOL    HW213845   4.024   0.263   0.744  0.6905  0.8820 -0.3888
 3993SOL     OW13846   8.108   6.482   8.027 -0.5490 -0.5597 -0.6796
 3993SOL    HW113847   8.104   6.403   8.080 -1.3701 -1.3782 -1.9204
 3993SOL    HW213848   8.028   6.529   8.049  0.2635  0.3151  0.5766
 3994SOL     OW13849   4.295   3.839   3.280 -0.0707  0.0980  0.0617
 3994SOL    HW113850   4.270   3.764   3.334 -0.8462  1.4443  1.6833
 3994SOL    HW213851   4.378   3.869   3.317 -0.1003  0.4251 -0.1348
 3995SOL     OW13852   7.936   0.944   3.294  0.0316 -0.3229 -0.0583
 3995SOL    HW113853   7.854   0.933   3.342  0.3794  1.0871  0.9123
 3995SOL    HW213854   8.003   0.909   3.353  0.3396  0.3812  0.0231
 3996SOL     OW13855   6.474   5.922   6.990  0.2506  0.2497  0.1015
 3996SOL    HW113856   6.490   5.847   6.933 -0.6655  0.8865 -1.0350
 3996SOL    HW213857   6.549   5.979   6.977  0.8514 -0.3547  0.8163
 3997SOL     OW13858   2.702   4.179   2.741 -0.0973 -0.0083 -0.3249
 3997SOL    HW113859   2.630   4.228   2.781  0.3526  0.2201  0.2239
 3997SOL    HW213860   2.740   4.241   2.678  1.9401  1.3089  1.9779
 3998SOL     OW13861   5.508   2.815   6.786 -0.5229 -0.3114  0.4102
 3998SOL    HW113862   5.426   2.836   6.832 -0.7731 -1.0662  0.3225
 3998SOL    HW213863   5.510   2.720   6.783 -0.7013 -0.2881 -1.4883
 3999SOL     OW13864   4.879   6.098   2.006 -0.3819 -0.2775  0.1392
 3999SOL    HW113865   4.785   6.109   2.014 -0.4712  0.1253 -1.1612
 3999SOL    HW213866   4.893   6.080   1.913  0.9610  1.3287 -0.0236
 4000SOL     OW13867   5.376   8.858   5.729 -0.2721 -0.1236 -0.1579
 4000SOL    HW113868   5.342   8.769   5.715 -0.8096  0.3546 -2.2924
 4000SOL    HW213869   5.299   8.909   5.757 -0.5063  0.1526 -1.2676
 4001SOL     OW13870   7.442   8.332   3.242 -0.2600 -0.0759  0.3313
 4001SOL    HW113871   7.503   8.401   3.265  1.0502 -1.0465 -0.0731
 4001SOL    HW213872   7.371   8.339   3.306  0.7338  0.5005  1.3971
 4002SOL     OW13873   6.106   8.864   6.977 -0.2077 -0.0409  0.2270
 4002SOL    HW113874   6.117   8.811   7.056 -0.3124  0.9552  0.9203
 4002SOL    HW213875   6.172   8.933   6.985  0.7137 -0.6986 -1.2291
 4003SOL     OW13876   3.726   8.040   8.343  0.2292 -0.7710  0.3784
 4003SOL    HW113877   3.672   7.977   8.297  1.4588 -1.7543  0.2363
 4003SOL    HW213878   3.795   7.988   8.384  1.5593  0.5190 -0.1391
 4004SOL     OW13879   6.361   3.189   8.997 -0.2067 -0.1678 -0.2101
 4004SOL    HW113880   6.388   3.269   9.042  0.7545  0.3647 -1.6700
 4004SOL    HW213881   6.423   3.122   9.027  0.5021  0.2105 -0.8018
 4005SOL     OW13882   5.529   7.434   3.842 -0.1153 -0.2932 -0.2239
 4005SOL    HW113883   5.521   7.423   3.747  2.7192  0.8543 -0.6926
 4005SOL    HW213884   5.543   7.345   3.875  0.5868 -0.5414 -1.1351
 4006SOL     OW13885   2.868   3.810   8.207 -0.5032 -0.0464 -0.1141
 4006SOL    HW113886   2.829   3.875   8.266  0.2551 -0.4039  0.8050
 4006SOL    HW213887   2.869   3.853   8.122 -0.0202  1.1620  0.4719
 4007SOL     OW13888   5.577   4.062   4.033  0.0339 -0.4998 -0.8125
 4007SOL    HW113889   5.655   4.026   3.990  1.7512  0.3960  1.4054
 4007SOL    HW213890   5.574   4.018   4.118 -1.3129  0.2587 -0.4431
 4008SOL     OW13891   6.443   5.458   8.622  0.3836 -0.2252 -0.6859
 4008SOL    HW113892   6.418   5.532   8.677  1.6868  0.1157 -0.5187
 4008SOL    HW213893   6.361   5.410   8.607 -0.3552  0.8565 -0.2217
 4009SOL     OW13894   7.528   1.054   6.502  0.2086  0.3326  0.0800
 4009SOL    HW113895   7.474   1.030   6.576  0.3123  0.8589  0.3338
 4009SOL    HW213896   7.618   1.042   6.533  0.2563  0.7553  0.1178
 4010SOL     OW13897   5.217   7.250   3.939 -0.2076 -0.1392 -0.2788
 4010SOL    HW113898   5.181   7.165   3.965  1.0573 -1.2419 -1.8522
 4010SOL    HW213899   5.292   7.264   3.997  0.4876 -0.8695 -0.9706
 4011SOL     OW13900   8.126   7.201   2.883 -0.3944 -0.4997  0.2719
 4011SOL    HW113901   8.042   7.174   2.846 -0.1086 -2.3432  0.8799
 4011SOL    HW213902   8.189   7.135   2.852  0.7450  0.5584  0.2391
 4012SOL     OW13903   6.813   3.336   7.792 -0.2433  0.3356 -0.7264
 4012SOL    HW113904   6.798   3.321   7.699 -1.0920  0.0966 -0.5556
 4012SOL    HW213905   6.882   3.403   7.795 -2.4189  2.7476 -1.5503
 4013SOL     OW13906   5.492   1.439   6.168  0.0460 -0.2489  0.4459
 4013SOL    HW113907   5.557   1.440   6.238 -0.9427 -0.0920  1.4067
 4013SOL    HW213908   5.420   1.492   6.203 -0.4520 -0.1298 -0.7228
 4014SOL     OW13909   0.164   4.233   2.801 -0.2707  0.3912  0.7221
 4014SOL    HW113910   0.198   4.319   2.827 -2.0494  1.1847  0.6137
 4014SOL    HW213911   0.072   4.250   2.778 -0.1810 -1.2241 -1.0671
 4015SOL     OW13912   0.254   1.538   4.930 -0.1108  0.0060 -0.1905
 4015SOL    HW113913   0.176   1.593   4.923 -0.1076 -0.0032 -0.2963
 4015SOL    HW213914   0.261   1.519   5.023  0.2881  0.7743 -0.0495
 4016SOL     OW13915   3.305   5.599   8.614 -0.9561  1.0615 -0.1520
 4016SOL    HW113916   3.215   5.626   8.633 -0.9483  0.9789  0.0048
 4016SOL    HW213917   3.300   5.503   8.605 -0.5305  0.7887  1.9549
 4017SOL     OW13918   6.080   8.349   1.573  0.2029 -0.4065 -0.0625
 4017SOL    HW113919   6.090   8.383   1.484  0.2750  1.7929  0.7232
 4017SOL    HW213920   5.995   8.306   1.573 -0.0779  0.1160 -1.0202
 4018SOL     OW13921   0.434   3.241   6.651  0.1477  0.1693  0.4798
 4018SOL    HW113922   0.501   3.267   6.588  1.0941 -0.5388  1.1669
 4018SOL    HW213923   0.481   3.233   6.734 -0.7351 -0.5488  0.9294
 4019SOL     OW13924   1.187   7.155   0.914  0.5393 -0.0933 -0.5613
 4019SOL    HW113925   1.192   7.067   0.950 -0.4001 -0.6727 -1.7774
 4019SOL    HW213926   1.237   7.151   0.832 -2.2154 -0.4815 -2.3697
 4020SOL     OW13927   8.133   7.850   2.009  0.0350  0.0391  0.2598
 4020SOL    HW113928   8.189   7.777   1.980  1.1181  0.2416  1.7333
 4020SOL    HW213929   8.172   7.878   2.092 -1.3829  1.1958  0.5614
 4021SOL     OW13930   5.297   2.692   8.407  0.8237 -0.2309  0.5014
 4021SOL    HW113931   5.312   2.786   8.419 -0.3117  0.1902 -0.9830
 4021SOL    HW213932   5.203   2.681   8.424  0.4271 -0.6273 -1.6608
 4022SOL     OW13933   0.724   1.394   5.842  0.9506 -0.1222 -0.1762
 4022SOL    HW113934   0.734   1.404   5.937 -0.5308 -2.2218  0.2880
 4022SOL    HW213935   0.813   1.379   5.810  1.2922 -1.2862  1.1941
 4023SOL     OW13936   4.438   4.929   6.287  0.1971 -0.5501  0.6778
 4023SOL    HW113937   4.439   4.833   6.278  2.0870 -0.6643  1.6514
 4023SOL    HW213938   4.503   4.947   6.354 -0.6085  1.4041  0.9857
 4024SOL     OW13939   8.150   5.301   4.237  0.0900  0.7716  1.1759
 4024SOL    HW113940   8.066   5.346   4.241  0.0159  0.9462 -1.0867
 4024SOL    HW213941   8.136   5.218   4.284 -0.8496  1.4499  2.1466
 4025SOL     OW13942   7.975   7.294   5.438 -0.1787 -0.0594  0.4270
 4025SOL    HW113943   8.049   7.354   5.444  1.7309 -1.8895 -2.1455
 4025SOL    HW213944   7.956   7.270   5.529 -0.0806  3.1908  1.4158
 4026SOL     OW13945   4.497   6.127   2.913 -0.0351 -0.4031  0.0709
 4026SOL    HW113946   4.404   6.105   2.919  0.0429 -0.7193  0.1702
 4026SOL    HW213947   4.540   6.044   2.892  0.4065 -0.6556  1.7605
 4027SOL     OW13948   3.829   8.544   7.790  0.2558  0.0685  0.2490
 4027SOL    HW113949   3.874   8.489   7.855  1.3036  0.1501 -0.3785
 4027SOL    HW213950   3.737   8.520   7.797  0.4596 -0.4672  1.2356
 4028SOL     OW13951   2.705   5.380   5.717  0.6733  0.0918 -0.4434
 4028SOL    HW113952   2.764   5.354   5.646  1.7828  1.0337  0.0931
 4028SOL    HW213953   2.764   5.407   5.788 -0.3691 -1.6136  1.1813
 4029SOL     OW13954   4.913   5.582   4.843  0.0053 -0.0121  0.7289
 4029SOL    HW113955   4.999   5.543   4.861 -0.1871 -0.2489  1.1544
 4029SOL    HW213956   4.895   5.636   4.920  0.0023  0.4502  0.4064
 4030SOL     OW13957   8.384   4.100   5.612 -0.5210 -0.6071 -0.2350
 4030SOL    HW113958   8.336   4.027   5.572  1.4124 -2.3239  0.4157
 4030SOL    HW213959   8.465   4.106   5.561 -0.7770  1.3254 -0.4651
 4031SOL     OW13960   7.803   1.057   5.833 -0.4496  0.4536 -0.1894
 4031SOL    HW113961   7.891   1.026   5.856  0.2176  1.6360 -0.9937
 4031SOL    HW213962   7.778   1.005   5.757  0.8370  2.0681 -1.7942
 4032SOL     OW13963   3.267   1.598   8.751 -0.2184  0.3548  0.2300
 4032SOL    HW113964   3.316   1.537   8.806  1.9491  1.0042 -0.8374
 4032SOL    HW213965   3.259   1.553   8.667 -1.5770  0.2383  0.4027
 4033SOL     OW13966   1.163   8.519   6.474  0.4022 -0.2123  0.3640
 4033SOL    HW113967   1.194   8.601   6.437  0.8697 -0.0589  1.0525
 4033SOL    HW213968   1.076   8.506   6.437  0.1271  0.8372  0.6153
 4034SOL     OW13969   4.256   7.093   4.166 -0.5178  0.3026 -0.5492
 4034SOL    HW113970   4.308   7.091   4.246  1.5761 -0.3208 -1.8651
 4034SOL    HW213971   4.296   7.161   4.112 -0.7031 -0.5534 -1.8266
 4035SOL     OW13972   4.641   7.960   4.103  0.3470 -0.0566 -0.4997
 4035SOL    HW113973   4.688   7.877   4.093 -1.2744 -1.0515 -0.3356
 4035SOL    HW213974   4.621   7.987   4.013 -2.8257 -2.1665 -0.6166
 4036SOL     OW13975   2.802   4.188   0.740 -0.3439 -0.4023 -0.4638
 4036SOL    HW113976   2.742   4.169   0.669 -0.6740  0.9249 -0.5707
 4036SOL    HW213977   2.792   4.115   0.801 -2.6534  0.1587 -0.0990
 4037SOL     OW13978   7.265   2.319   1.984  0.6114  0.9951  0.2503
 4037SOL    HW113979   7.308   2.403   2.001  0.7831  0.4410  3.0194
 4037SOL    HW213980   7.322   2.254   2.025 -0.9442 -0.1759  0.6627
 4038SOL     OW13981   4.290   8.833   0.213  0.0719  0.1645  0.3196
 4038SOL    HW113982   4.382   8.835   0.187 -0.2244 -1.2599 -0.9807
 4038SOL    HW213983   4.245   8.889   0.150 -0.2790 -1.2014 -0.6926
 4039SOL     OW13984   0.115   7.947   5.100  0.0450 -0.2552  0.0322
 4039SOL    HW113985   0.146   7.860   5.073  0.7251 -0.0154  0.0103
 4039SOL    HW213986   0.148   8.006   5.031 -1.3337 -0.1140 -0.5347
 4040SOL     OW13987   2.120   6.399   5.712 -0.1880  0.0678  0.5636
 4040SOL    HW113988   2.049   6.426   5.655  1.2106  0.7589 -0.9212
 4040SOL    HW213989   2.080   6.335   5.772 -1.4175 -1.7743 -2.0606
 4041SOL     OW13990   1.992   0.827   6.775 -0.2431  0.0831 -0.2995
 4041SOL    HW113991   1.956   0.902   6.728 -1.0515  1.4931  2.3747
 4041SOL    HW213992   2.085   0.827   6.752 -0.5280  0.9307 -1.5693
 4042SOL     OW13993   5.249   3.343   1.597 -0.2886 -0.5760 -0.4971
 4042SOL    HW113994   5.268   3.382   1.511 -1.3723 -0.4778 -0.7093
 4042SOL    HW213995   5.200   3.263   1.577  1.1811 -1.6260 -0.0265
 4043SOL     OW13996   1.726   4.230   5.413 -0.2523  0.0499 -0.3552
 4043SOL    HW113997   1.767   4.315   5.400  1.8932 -1.2767 -3.5319
 4043SOL    HW213998   1.743   4.208   5.505 -1.3970  3.1636  0.7283
 4044SOL     OW13999   2.405   7.335   4.584 -0.1119 -1.3486 -0.2542
 4044SOL    HW114000   2.466   7.354   4.513  1.7011  0.2383  1.6006
 4044SOL    HW214001   2.457   7.289   4.649 -0.9243 -0.2332  1.2493
 4045SOL     OW14002   1.855   2.241   4.709 -0.4091 -0.1529  0.3131
 4045SOL    HW114003   1.916   2.298   4.755  2.4419 -3.0070  0.4783
 4045SOL    HW214004   1.883   2.152   4.733 -3.6515 -1.7058 -0.9793
 4046SOL     OW14005   6.845   1.025   0.843  0.4552  0.3373  0.1577
 4046SOL    HW114006   6.911   1.094   0.850  0.6266  0.2350 -0.4086
 4046SOL    HW214007   6.887   0.949   0.883  1.2643 -0.1274 -1.4960
 4047SOL     OW14008   3.412   4.119   7.394  0.5933  0.1296  0.2847
 4047SOL    HW114009   3.476   4.127   7.324  0.1307  1.8877  0.0090
 4047SOL    HW214010   3.410   4.025   7.415  2.6846 -0.0658 -0.1903
 4048SOL     OW14011   4.958   2.753   2.055  0.3333 -0.1306 -0.5157
 4048SOL    HW114012   4.976   2.785   1.966  0.3740  1.7256  0.1261
 4048SOL    HW214013   4.869   2.718   2.050 -0.0387  0.8447 -1.0697
 4049SOL     OW14014   8.371   2.236   6.648 -0.0953  0.5011  0.4980
 4049SOL    HW114015   8.457   2.252   6.687  0.3856  0.1903 -0.4128
 4049SOL    HW214016   8.368   2.294   6.572  0.3535 -1.2567 -0.9404
 4050SOL     OW14017   1.096   1.737   7.252 -0.0937  0.0787  0.1028
 4050SOL    HW114018   1.186   1.735   7.285 -0.0791  0.2350  0.0712
 4050SOL    HW214019   1.103   1.769   7.162 -0.1581 -0.1295  0.0234
 4051SOL     OW14020   4.938   2.933   8.130  0.3551 -0.0629  0.1986
 4051SOL    HW114021   5.017   2.975   8.165  0.1157 -0.1948  0.9124
 4051SOL    HW214022   4.954   2.840   8.139 -0.8628 -0.1282  2.7275
 4052SOL     OW14023   3.044   8.738   5.731  0.0581 -0.1951  0.1307
 4052SOL    HW114024   2.965   8.714   5.682  0.5695  0.2392 -0.9150
 4052SOL    HW214025   3.010   8.770   5.815 -0.8814  0.0256 -0.3145
 4053SOL     OW14026   1.582   3.367   4.875  0.3440 -0.6848  0.1666
 4053SOL    HW114027   1.631   3.429   4.930  0.7598 -1.0294  0.1871
 4053SOL    HW214028   1.491   3.392   4.887  0.3835 -1.1210  1.4745
 4054SOL     OW14029   6.508   2.067   3.083  0.1333 -0.0394 -0.2045
 4054SOL    HW114030   6.579   2.060   3.147  0.1069 -0.4032 -0.2116
 4054SOL    HW214031   6.492   2.161   3.075 -0.0613 -0.0018  0.5433
 4055SOL     OW14032   8.052   5.543   4.705  0.8960 -0.0803  0.0848
 4055SOL    HW114033   8.090   5.500   4.628  2.0979  0.1456  0.5330
 4055SOL    HW214034   8.029   5.631   4.674  1.3059 -0.0148 -0.0401
 4056SOL     OW14035   5.450   4.609   0.023 -0.9113 -0.1837  0.2564
 4056SOL    HW114036   5.474   4.614  -0.069  0.3326  1.0345  0.6084
 4056SOL    HW214037   5.533   4.600   0.069 -1.1717  2.4535  1.4273
 4057SOL     OW14038   1.266   3.357   0.262  0.1823  0.1557  0.6110
 4057SOL    HW114039   1.288   3.285   0.203 -0.4641  0.5973 -0.1923
 4057SOL    HW214040   1.172   3.347   0.277  0.5075 -0.5327  2.3900
 4058SOL     OW14041   7.566   1.743   3.588 -0.4024  0.1301  0.4616
 4058SOL    HW114042   7.611   1.814   3.633 -1.3018  0.4627  0.8691
 4058SOL    HW214043   7.519   1.786   3.516 -0.9024 -0.0562  0.6710
 4059SOL     OW14044   1.695   7.219   2.368 -0.6520  0.1342 -0.9342
 4059SOL    HW114045   1.754   7.256   2.303  0.7892 -0.3447  0.0567
 4059SOL    HW214046   1.631   7.170   2.317  0.7834 -0.7026 -1.9975
 4060SOL     OW14047   6.296   8.967   2.992  0.8345 -0.0717  0.4389
 4060SOL    HW114048   6.371   8.908   2.995  1.4055  0.3180 -2.6277
 4060SOL    HW214049   6.228   8.922   3.041  1.9776 -2.1506  0.2298
 4061SOL     OW14050   7.115   6.474   8.405 -0.4354  0.2996 -0.5322
 4061SOL    HW114051   7.122   6.522   8.322 -2.3517  0.2933 -0.7478
 4061SOL    HW214052   7.067   6.532   8.463  0.9899  0.3494  0.6602
 4062SOL     OW14053   4.529   8.227   1.815  0.3700  0.6359  0.4820
 4062SOL    HW114054   4.546   8.228   1.909  3.9788 -0.3288  0.0074
 4062SOL    HW214055   4.525   8.320   1.791 -0.8221  0.8980  1.5679
 4063SOL     OW14056   1.862   3.723   5.429 -0.1863  0.0803 -0.4614
 4063SOL    HW114057   1.884   3.631   5.446 -0.4264 -0.0742 -0.9677
 4063SOL    HW214058   1.766   3.725   5.431 -0.1757  0.3707 -0.2045
 4064SOL     OW14059   0.151   8.407   1.769 -0.5868  0.4283  0.8767
 4064SOL    HW114060   0.215   8.468   1.806  1.1734 -0.6356 -0.2145
 4064SOL    HW214061   0.167   8.410   1.674 -0.4608 -1.6139  0.7737
 4065SOL     OW14062   3.645   2.106   0.660  0.7362  0.4921 -0.5695
 4065SOL    HW114063   3.638   2.065   0.574 -0.2501 -0.7565  0.0710
 4065SOL    HW214064   3.699   2.046   0.712  1.7435  1.4767 -0.4352
 4066SOL     OW14065   7.492   7.160   7.194 -0.2890 -0.3469 -0.8377
 4066SOL    HW114066   7.564   7.187   7.252 -0.4321 -0.3298 -0.6654
 4066SOL    HW214067   7.440   7.101   7.248  0.0133 -0.9549 -1.2108
 4067SOL     OW14068   3.105   3.986   0.712 -0.5196  0.4622  0.3875
 4067SOL    HW114069   3.172   4.034   0.663 -0.8144 -1.2516 -1.8567
 4067SOL    HW214070   3.038   3.964   0.646 -0.7544 -2.3010  1.4178
 4068SOL     OW14071   6.179   7.663   6.712 -0.3364  0.3544 -0.3667
 4068SOL    HW114072   6.129   7.660   6.630 -2.0412  1.5995  0.5661
 4068SOL    HW214073   6.238   7.588   6.706  1.5253  1.8251 -3.8830
 4069SOL     OW14074   1.837   8.041   1.408  0.0705  0.2653 -0.1675
 4069SOL    HW114075   1.814   7.949   1.417  0.9047  0.1787  1.5389
 4069SOL    HW214076   1.767   8.088   1.454 -0.7451  0.5656 -1.6607
 4070SOL     OW14077   1.713   1.359   2.507 -0.4382  0.9297  0.0480
 4070SOL    HW114078   1.715   1.426   2.439 -1.1678  1.4323  0.5106
 4070SOL    HW214079   1.713   1.408   2.590 -0.3102  0.3456  0.4009
 4071SOL     OW14080   1.314   8.606   7.525  0.8170 -0.6923 -0.3354
 4071SOL    HW114081   1.257   8.662   7.472  1.0925 -0.8048 -0.7608
 4071SOL    HW214082   1.255   8.568   7.591  0.2904 -1.1560 -1.0441
 4072SOL     OW14083   3.362   2.535   6.493  0.2054 -0.0565 -0.9570
 4072SOL    HW114084   3.413   2.578   6.562 -0.1621  2.3153 -2.0542
 4072SOL    HW214085   3.272   2.540   6.523  0.3156 -1.9979 -0.1662
 4073SOL     OW14086   1.918   2.974   8.946 -0.1197 -0.0519 -0.9281
 4073SOL    HW114087   1.940   2.920   9.022  0.1027 -0.7807 -1.5028
 4073SOL    HW214088   1.972   3.052   8.957  0.0598 -0.2355 -0.4405
 4074SOL     OW14089   1.177   8.332   4.490  0.0609 -0.2875  0.0417
 4074SOL    HW114090   1.171   8.399   4.422  0.8562 -1.0982 -0.8565
 4074SOL    HW214091   1.267   8.300   4.484  0.3956  0.1779  2.0300
 4075SOL     OW14092   7.240   4.355   1.794 -0.3627  0.4810  0.0772
 4075SOL    HW114093   7.224   4.264   1.769  0.9797  0.5536 -1.2082
 4075SOL    HW214094   7.323   4.377   1.751 -0.0384  1.9354  1.3615
 4076SOL     OW14095   5.960   7.703   0.001 -0.2708 -0.2890 -0.2372
 4076SOL    HW114096   5.979   7.692   0.094  0.5216  1.1557 -0.1999
 4076SOL    HW214097   6.004   7.630  -0.042 -0.4192 -0.8095  0.4875
 4077SOL     OW14098   1.181   3.684   4.375  0.1752  0.1349 -0.0057
 4077SOL    HW114099   1.166   3.709   4.466 -0.0146 -2.2106  0.6550
 4077SOL    HW214100   1.097   3.652   4.344  0.7720 -1.2432 -0.2612
 4078SOL     OW14101   3.280   0.404   2.982 -0.5147 -0.2661  0.1531
 4078SOL    HW114102   3.333   0.409   2.902  0.6607  1.4005  0.9916
 4078SOL    HW214103   3.295   0.316   3.015 -1.5071 -1.2224 -1.7351
 4079SOL     OW14104   8.640   7.337   4.571  0.2796 -0.2462 -0.1890
 4079SOL    HW114105   8.574   7.271   4.548 -0.5886  0.6348 -0.2661
 4079SOL    HW214106   8.617   7.363   4.660  0.4585  0.1488 -0.2594
 4080SOL     OW14107   6.385   7.086   4.765  0.0108 -0.4880  0.4527
 4080SOL    HW114108   6.378   7.014   4.702  1.4943  0.0173 -0.3510
 4080SOL    HW214109   6.409   7.162   4.711  0.3090  0.1785  1.5017
 4081SOL     OW14110   3.709   0.189   5.536  0.2385 -0.1487 -0.1616
 4081SOL    HW114111   3.746   0.223   5.619  0.0140 -0.2919 -0.0031
 4081SOL    HW214112   3.636   0.248   5.517 -0.5605 -0.9256  0.4538
 4082SOL     OW14113   4.773   1.926   3.704  0.5899 -0.5330  0.0700
 4082SOL    HW114114   4.685   1.894   3.683  0.3086 -0.1306  0.5924
 4082SOL    HW214115   4.798   1.978   3.627  0.3864 -0.6830 -0.1001
 4083SOL     OW14116   0.274   3.889   1.701 -0.2286  0.3190 -0.6321
 4083SOL    HW114117   0.303   3.963   1.754 -0.5112  0.4526 -0.6633
 4083SOL    HW214118   0.179   3.899   1.696 -0.2028  0.2931 -1.1449
 4084SOL     OW14119   6.402   2.915   7.923  0.0208  0.2544  0.1063
 4084SOL    HW114120   6.484   2.872   7.949  1.3329  2.2888 -0.3931
 4084SOL    HW214121   6.401   2.996   7.973 -2.5200 -0.4064  1.2536
 4085SOL     OW14122   4.409   4.189   6.875  0.6880 -0.3959 -0.3359
 4085SOL    HW114123   4.339   4.193   6.940  0.6111 -1.1298 -0.3683
 4085SOL    HW214124   4.391   4.110   6.824  1.5703 -0.6234 -0.3136
 4086SOL     OW14125   1.067   4.403   8.154  0.6786  0.7234 -0.1264
 4086SOL    HW114126   1.085   4.404   8.060  0.8370  1.5806 -0.0884
 4086SOL    HW214127   0.979   4.366   8.161  0.9714 -0.0931 -0.5472
 4087SOL     OW14128   5.331   2.771   5.893  0.4700  0.1007  0.2618
 4087SOL    HW114129   5.291   2.714   5.827 -2.1149  1.1477  0.8088
 4087SOL    HW214130   5.414   2.728   5.914 -0.6102 -2.5810 -0.5240
 4088SOL     OW14131   2.299   1.173   3.344 -0.6162  0.3282 -0.4248
 4088SOL    HW114132   2.352   1.188   3.422 -2.9739 -0.5793  1.4541
 4088SOL    HW214133   2.329   1.088   3.311  0.1074  0.5239 -0.2985
 4089SOL     OW14134   1.454   8.052   7.071 -1.0614 -0.0308  0.1327
 4089SOL    HW114135   1.435   7.965   7.105 -2.7793  1.1227  2.4075
 4089SOL    HW214136   1.440   8.110   7.145  0.6123  2.1749 -1.1461
 4090SOL     OW14137   1.992   7.339   1.868  0.4186  0.7085 -0.4722
 4090SOL    HW114138   2.024   7.289   1.793  2.7016  0.1351  0.7930
 4090SOL    HW214139   2.053   7.413   1.876  1.0840 -0.0108  1.6099
 4091SOL     OW14140   0.055   4.791   1.966 -0.1949 -0.2542 -0.0603
 4091SOL    HW114141   0.017   4.879   1.968 -0.6105 -0.4320  0.7363
 4091SOL    HW214142   0.045   4.762   1.876  0.7896  0.8650 -0.5529
 4092SOL     OW14143   4.509   2.014   8.927 -0.2458 -0.1429  0.3345
 4092SOL    HW114144   4.450   1.975   8.862 -2.2137 -0.7356  2.3634
 4092SOL    HW214145   4.512   2.107   8.905 -0.8879 -0.3320 -0.5844
 4093SOL     OW14146   7.169   2.195   0.886  0.2236 -0.1241  0.2105
 4093SOL    HW114147   7.241   2.147   0.844  0.2225  1.3535 -1.6018
 4093SOL    HW214148   7.211   2.242   0.958  0.7707 -0.5534  0.1791
 4094SOL     OW14149   8.754   1.220   6.169 -0.2045 -0.8928  0.0229
 4094SOL    HW114150   8.765   1.125   6.182 -0.8072 -0.7093  2.4001
 4094SOL    HW214151   8.661   1.236   6.186  0.4131  0.4449  2.7395
 4095SOL     OW14152   3.469   5.555   6.820 -0.2730 -0.2489  0.2571
 4095SOL    HW114153   3.460   5.643   6.857 -0.7711 -0.3219  0.3118
 4095SOL    HW214154   3.542   5.563   6.758 -0.6743  0.3487 -0.1562
 4096SOL     OW14155   7.546   3.888   0.498  0.3300 -0.7681 -0.1296
 4096SOL    HW114156   7.556   3.808   0.549  0.0088 -1.1943 -0.7164
 4096SOL    HW214157   7.465   3.874   0.447  0.5142 -0.2649 -0.5695
 4097SOL     OW14158   8.987   0.633   4.967  0.5023 -0.1534 -0.4601
 4097SOL    HW114159   9.019   0.556   5.014  0.7338 -0.4956 -1.1753
 4097SOL    HW214160   8.905   0.605   4.927  0.4884  0.0302 -0.5611
 4098SOL     OW14161   6.427   0.255   5.043  0.5244  0.3210 -0.0932
 4098SOL    HW114162   6.343   0.295   5.069  0.4444  1.8085 -2.3855
 4098SOL    HW214163   6.493   0.310   5.086  0.3655  1.9409 -1.7910
 4099SOL     OW14164   1.250   8.233   8.118  0.2946 -0.2030  0.3030
 4099SOL    HW114165   1.207   8.212   8.200 -1.1496  2.4241  0.3232
 4099SOL    HW214166   1.343   8.240   8.140 -0.0274  0.0484  1.6178
 4100SOL     OW14167   7.778   0.688   4.927 -0.0127 -0.1932 -0.0055
 4100SOL    HW114168   7.703   0.630   4.915 -0.6543  0.2590  1.6293
 4100SOL    HW214169   7.756   0.766   4.875 -0.4784 -0.2310  0.1321
 4101SOL     OW14170   6.991   0.347   2.179  0.3215  0.2715 -0.3303
 4101SOL    HW114171   6.908   0.385   2.149  0.4371  1.3381  0.6291
 4101SOL    HW214172   7.001   0.379   2.268  0.9505 -1.2197  0.1624
 4102SOL     OW14173   1.106   4.012   8.968 -0.2504 -0.2559  0.0191
 4102SOL    HW114174   1.063   3.939   8.922 -1.9456  1.2298 -0.8593
 4102SOL    HW214175   1.050   4.087   8.952  1.3972  1.2582  1.0036
 4103SOL     OW14176   5.053   4.156   7.308 -0.6823  0.0070  0.7144
 4103SOL    HW114177   4.970   4.122   7.274  0.3794  0.4486 -2.6800
 4103SOL    HW214178   5.038   4.250   7.318 -0.4844  0.1959 -0.5286
 4104SOL     OW14179   0.902   8.255   3.945  0.3017  0.0839  1.0945
 4104SOL    HW114180   0.916   8.333   3.998 -1.1275  0.5571  0.8193
 4104SOL    HW214181   0.827   8.212   3.985  0.8827 -1.0058  1.0564
 4105SOL     OW14182   1.254   2.140   2.138  0.2323  0.0812  0.4986
 4105SOL    HW114183   1.318   2.202   2.106 -0.6306 -0.4087 -2.5061
 4105SOL    HW214184   1.295   2.054   2.127 -1.1972 -0.3463 -2.6720
 4106SOL     OW14185   6.794   3.869   5.020 -0.2016 -0.4439  0.5121
 4106SOL    HW114186   6.792   3.894   5.112 -2.2329 -2.7374  1.2013
 4106SOL    HW214187   6.704   3.885   4.989  0.4706  0.4065 -1.1480
 4107SOL     OW14188   5.400   0.446   0.803  0.6129 -0.1590 -0.4692
 4107SOL    HW114189   5.328   0.510   0.806  1.3904  0.6911  1.1245
 4107SOL    HW214190   5.408   0.415   0.893  2.3889 -0.0710 -0.5740
 4108SOL     OW14191   1.453   4.364   2.526  0.2875  0.3068 -0.3200
 4108SOL    HW114192   1.476   4.444   2.573 -1.0677 -0.1642  1.2642
 4108SOL    HW214193   1.393   4.319   2.585 -0.8747 -0.7295 -2.2002
 4109SOL     OW14194   5.577   8.539   3.083 -0.1713  0.3111 -0.1981
 4109SOL    HW114195   5.661   8.567   3.046 -0.7338 -0.0139 -1.8059
 4109SOL    HW214196   5.601   8.474   3.149  0.8046 -1.8979 -2.5618
 4110SOL     OW14197   2.006   8.047   6.919 -0.5624  0.3033  0.4345
 4110SOL    HW114198   2.001   8.115   6.852 -0.7942 -1.0672 -0.9958
 4110SOL    HW214199   1.998   7.965   6.871  1.8384 -0.8654  1.8509
 4111SOL     OW14200   0.074   4.107   2.014 -0.2253  0.1933 -0.3039
 4111SOL    HW114201   0.012   4.046   1.973 -0.3959  0.9966 -1.3147
 4111SOL    HW214202   0.146   4.114   1.951  0.6221 -0.2725  0.5875
 4112SOL     OW14203   0.289   5.722   1.445  0.1033  0.7365  0.2304
 4112SOL    HW114204   0.208   5.714   1.395 -1.0150 -0.2453  2.1137
 4112SOL    HW214205   0.327   5.804   1.415  0.8686 -0.9024 -4.1058
 4113SOL     OW14206   6.080   1.211   2.298 -0.0607  0.5098  0.4615
 4113SOL    HW114207   6.052   1.225   2.388 -0.4168 -0.2738  0.4802
 4113SOL    HW214208   6.148   1.143   2.304 -0.2746  0.2580  0.1241
 4114SOL     OW14209   5.066   7.357   7.327 -0.1724 -0.0401  0.0046
 4114SOL    HW114210   5.050   7.307   7.407  1.2343  0.7765  0.8217
 4114SOL    HW214211   5.120   7.299   7.273  0.1756 -0.0028  0.3086
 4115SOL     OW14212   3.323   3.236   6.394  0.2628 -0.1034  0.0241
 4115SOL    HW114213   3.356   3.188   6.317  0.6400 -0.3915  0.3625
 4115SOL    HW214214   3.362   3.323   6.386  0.2361 -0.1056 -0.1515
 4116SOL     OW14215   4.938   4.946   8.693 -0.2222 -0.3183  0.7339
 4116SOL    HW114216   4.877   5.019   8.687  0.3522  0.0490 -1.7361
 4116SOL    HW214217   5.023   4.983   8.667  1.5523 -0.4527  5.3999
 4117SOL     OW14218   0.861   5.053   5.949  0.2639  0.1529  0.5287
 4117SOL    HW114219   0.909   5.129   5.916  0.1316  0.5954  1.3240
 4117SOL    HW214220   0.929   4.997   5.987  0.1638  0.9024  1.8920
 4118SOL     OW14221   1.058   3.756   5.432 -0.5641  0.7063 -0.3671
 4118SOL    HW114222   0.973   3.797   5.418 -1.1994 -0.9512 -1.6582
 4118SOL    HW214223   1.095   3.747   5.344 -0.6724 -1.8481 -0.2087
 4119SOL     OW14224   1.657   1.937   2.099 -0.6054 -0.2989 -0.2980
 4119SOL    HW114225   1.696   1.884   2.169  0.3486  1.0786  0.2498
 4119SOL    HW214226   1.731   1.976   2.054 -1.2937  1.1466 -0.2291
 4120SOL     OW14227   7.126   4.183   0.662 -0.1118 -0.2871  0.0778
 4120SOL    HW114228   7.141   4.163   0.754 -1.6239  0.2027  0.4588
 4120SOL    HW214229   7.214   4.192   0.625  0.5340  0.6889  1.7286
 4121SOL     OW14230   7.813   6.028   2.108 -0.5424  0.1447  0.0487
 4121SOL    HW114231   7.829   6.012   2.015 -1.5256  0.0175 -0.1089
 4121SOL    HW214232   7.722   6.001   2.121 -0.5746  0.6712  0.9352
 4122SOL     OW14233   6.985   4.691   7.360 -0.2597 -0.0360 -0.0384
 4122SOL    HW114234   6.995   4.756   7.429 -0.2872  0.1739 -0.2303
 4122SOL    HW214235   7.009   4.737   7.280  1.8571 -0.8518  0.0595
 4123SOL     OW14236   0.388   2.795   5.552  0.6571 -0.3838  0.3199
 4123SOL    HW114237   0.420   2.862   5.613 -0.4918 -0.4811  1.0715
 4123SOL    HW214238   0.461   2.735   5.541  1.6929  0.9392 -0.3117
 4124SOL     OW14239   0.671   1.924   6.511  0.5380  0.1156  0.1997
 4124SOL    HW114240   0.681   1.932   6.416 -0.1880 -0.8068  0.0280
 4124SOL    HW214241   0.635   2.008   6.539 -0.2312  0.0417 -0.5083
 4125SOL     OW14242   3.718   4.426   4.361 -0.1644  0.2437 -0.4231
 4125SOL    HW114243   3.702   4.407   4.268 -0.1704  2.1824 -0.8457
 4125SOL    HW214244   3.808   4.397   4.376  0.0967  0.6009 -1.2430
 4126SOL     OW14245   2.609   2.107   4.695  0.0816  0.4061  0.2984
 4126SOL    HW114246   2.640   2.054   4.769 -0.5511  0.5238  0.6577
 4126SOL    HW214247   2.686   2.117   4.639  0.4551 -0.0740  0.7103
 4127SOL     OW14248   5.182   5.249   3.057  0.4060 -0.3607 -0.1823
 4127SOL    HW114249   5.157   5.194   2.983  0.3516 -1.1695  0.4269
 4127SOL    HW214250   5.254   5.202   3.100 -0.6032 -0.7154  1.2053
 4128SOL     OW14251   8.101   3.389   2.127 -0.5914 -0.7635  0.6559
 4128SOL    HW114252   8.165   3.399   2.057  0.3127 -1.0979  1.4072
 4128SOL    HW214253   8.124   3.307   2.170 -0.0910  0.1874  2.3254
 4129SOL     OW14254   3.095   7.792   3.771 -0.4145  0.0430 -0.3346
 4129SOL    HW114255   3.110   7.723   3.836 -1.2300  0.2045  0.0397
 4129SOL    HW214256   3.104   7.748   3.686  1.7803  0.0690 -0.1510
 4130SOL     OW14257   4.560   3.821   1.450  0.1152 -0.2375 -0.3448
 4130SOL    HW114258   4.515   3.895   1.493  0.7669 -0.4330  0.7058
 4130SOL    HW214259   4.578   3.853   1.362 -1.3596  0.1401 -0.5460
 4131SOL     OW14260   3.834   7.489   4.033  0.2208 -0.4768 -0.1406
 4131SOL    HW114261   3.915   7.464   4.079 -0.1883 -0.9648  0.3318
 4131SOL    HW214262   3.844   7.582   4.017  0.9005 -0.5391 -0.1203
 4132SOL     OW14263   8.528   3.053   6.641  0.1221 -0.4808 -0.1407
 4132SOL    HW114264   8.546   3.117   6.709  1.6564 -0.9426 -0.0709
 4132SOL    HW214265   8.438   3.070   6.614 -0.1895  0.3155  1.3384
 4133SOL     OW14266   1.079   2.770   5.970 -0.0798  0.1134  0.1863
 4133SOL    HW114267   0.990   2.752   5.999  0.0720 -1.7715 -0.3793
 4133SOL    HW214268   1.075   2.768   5.875  0.7159 -0.9187  0.1579
 4134SOL     OW14269   2.827   2.664   8.325  0.0909  0.3747  0.2740
 4134SOL    HW114270   2.901   2.629   8.375  0.3497  1.2592  0.5159
 4134SOL    HW214271   2.777   2.716   8.388 -1.5124 -1.2913  0.4585
 4135SOL     OW14272   7.479   1.877   7.572  0.3866 -0.1194  0.2378
 4135SOL    HW114273   7.554   1.882   7.631 -1.1416 -1.0048  2.3765
 4135SOL    HW214274   7.410   1.924   7.617 -0.0163  2.0239 -2.3807
 4136SOL     OW14275   1.103   5.160   8.621  0.1699  0.7535 -0.6587
 4136SOL    HW114276   1.057   5.241   8.643 -1.3201 -0.2231  0.0187
 4136SOL    HW214277   1.191   5.172   8.657 -0.4090  1.5857  0.5813
 4137SOL     OW14278   2.759   6.786   2.360 -0.5852  0.1687 -0.0923
 4137SOL    HW114279   2.728   6.717   2.418  1.1602  0.0934  0.8091
 4137SOL    HW214280   2.751   6.749   2.272 -0.4298 -0.8763  0.3237
 4138SOL     OW14281   7.714   6.331   0.538  0.2181  0.0895  0.1825
 4138SOL    HW114282   7.722   6.238   0.519  0.0232  0.5920 -2.8895
 4138SOL    HW214283   7.637   6.338   0.596 -1.9095 -1.4336 -2.2678
 4139SOL     OW14284   1.495   1.059   5.270 -0.5584 -0.3150 -0.0599
 4139SOL    HW114285   1.554   1.051   5.195  0.2385  0.5145  0.4619
 4139SOL    HW214286   1.436   0.985   5.261 -0.0255 -0.6415 -1.1115
 4140SOL     OW14287   3.786   1.543   7.581 -0.0039  0.9211  0.1342
 4140SOL    HW114288   3.745   1.525   7.496  0.2086  1.2053 -0.0327
 4140SOL    HW214289   3.839   1.465   7.599  1.2877  1.5322 -0.8138
 4141SOL     OW14290   8.583   1.785   7.534 -0.1454  0.0560  0.1516
 4141SOL    HW114291   8.645   1.778   7.462  0.3733  0.1878  0.5791
 4141SOL    HW214292   8.637   1.779   7.613 -0.8153 -1.1367  0.5451
 4142SOL     OW14293   2.371   5.260   8.881 -0.2668 -0.4561 -0.3044
 4142SOL    HW114294   2.317   5.206   8.823 -0.2874 -1.3365  0.5119
 4142SOL    HW214295   2.383   5.206   8.960  1.1332  0.0458 -0.1464
 4143SOL     OW14296   7.228   2.834   3.606 -0.0445 -0.4202 -0.3566
 4143SOL    HW114297   7.136   2.807   3.616 -0.4586  0.2565 -2.0696
 4143SOL    HW214298   7.271   2.798   3.684 -1.7003 -0.9698  0.3703
 4144SOL     OW14299   3.553   4.274   0.719 -0.0731 -0.1982  0.3480
 4144SOL    HW114300   3.560   4.331   0.643 -0.9036 -1.1614 -0.4899
 4144SOL    HW214301   3.513   4.328   0.786  0.0424  0.4771 -0.1185
 4145SOL     OW14302   0.625   3.474   5.427  0.0551  0.2616  1.0308
 4145SOL    HW114303   0.679   3.480   5.506 -1.6239  1.0129  2.1870
 4145SOL    HW214304   0.634   3.559   5.385 -1.0789  0.8106  1.8471
 4146SOL     OW14305   1.704   2.525   2.964  0.0403 -0.0643 -0.0410
 4146SOL    HW114306   1.767   2.495   2.898 -0.0719  0.5802 -0.4420
 4146SOL    HW214307   1.728   2.476   3.043  0.1554 -0.8718 -0.5604
 4147SOL     OW14308   4.631   0.937   2.762  0.1172 -0.0283  0.1358
 4147SOL    HW114309   4.708   0.888   2.734  0.7100  0.3359  1.0806
 4147SOL    HW214310   4.644   0.951   2.856 -1.6258 -0.8853  0.5442
 4148SOL     OW14311   1.608   5.299   1.842 -0.3515  0.3993  0.6076
 4148SOL    HW114312   1.641   5.370   1.897 -0.7910  2.8063 -1.9930
 4148SOL    HW214313   1.513   5.303   1.850 -0.3405 -1.2199  1.9077
 4149SOL     OW14314   0.803   4.894   1.317 -0.5422 -0.2491 -0.2889
 4149SOL    HW114315   0.800   4.801   1.293 -2.1439  0.0110 -1.2245
 4149SOL    HW214316   0.851   4.935   1.245 -0.4728 -0.2468 -0.2413
 4150SOL     OW14317   2.741   0.110   4.792  0.2688 -0.2106 -0.0624
 4150SOL    HW114318   2.813   0.165   4.761 -0.0760  0.2367 -0.0727
 4150SOL    HW214319   2.662   0.153   4.760 -0.0892  0.1495  1.2378
 4151SOL     OW14320   8.277   5.772   6.974 -0.3026 -0.3478  0.0472
 4151SOL    HW114321   8.326   5.841   6.928  0.5626 -1.4131 -0.6956
 4151SOL    HW214322   8.186   5.791   6.955 -0.2248  1.5998  1.3292
 4152SOL     OW14323   7.393   0.423   7.817  0.0419  0.5479 -0.0778
 4152SOL    HW114324   7.346   0.415   7.900 -0.2145 -1.0289 -0.3442
 4152SOL    HW214325   7.458   0.353   7.819  0.1113  0.5608 -1.1520
 4153SOL     OW14326   7.800   3.619   6.943  0.5744  0.0922  0.5980
 4153SOL    HW114327   7.726   3.661   6.985  2.2068  4.5002 -0.4052
 4153SOL    HW214328   7.875   3.638   7.000  1.8633  1.3219 -1.3648
 4154SOL     OW14329   6.354   3.389   1.166 -0.2942 -0.0417 -0.2800
 4154SOL    HW114330   6.276   3.393   1.222 -0.3013  1.4816 -0.3467
 4154SOL    HW214331   6.369   3.480   1.141  0.9989 -0.4336 -0.9862
 4155SOL     OW14332   6.729   5.264   1.149  0.2400 -0.1019  0.0569
 4155SOL    HW114333   6.784   5.217   1.087  0.4016  0.5550 -0.3052
 4155SOL    HW214334   6.767   5.352   1.152 -0.3804  0.1566  0.3209
 4156SOL     OW14335   4.439   2.732   6.923  0.1950  0.3756  0.0138
 4156SOL    HW114336   4.396   2.790   6.985 -0.3941  0.3284 -0.3506
 4156SOL    HW214337   4.377   2.723   6.850  0.5789 -0.1392 -0.2570
 4157SOL     OW14338   1.051   5.079   4.713  0.7542  0.3775 -0.8102
 4157SOL    HW114339   1.023   5.138   4.783 -0.9729  1.2971 -2.2039
 4157SOL    HW214340   0.996   5.001   4.723 -0.2192  0.9238 -1.7018
 4158SOL     OW14341   7.407   2.845   3.399  0.2392  0.5730 -0.4313
 4158SOL    HW114342   7.436   2.933   3.376 -1.0047  1.5683  1.5062
 4158SOL    HW214343   7.352   2.858   3.476  0.9116 -2.0348  0.5792
 4159SOL     OW14344   6.636   7.724   3.815 -0.0372  0.4293 -0.0090
 4159SOL    HW114345   6.601   7.653   3.761  0.0609 -0.1015  0.6229
 4159SOL    HW214346   6.613   7.702   3.904 -0.1171  1.2655  0.1905
 4160SOL     OW14347   2.166   4.259   8.484  0.5543  0.3796  0.2629
 4160SOL    HW114348   2.130   4.339   8.523  1.0015 -0.3056  2.1743
 4160SOL    HW214349   2.201   4.210   8.558  1.1860 -1.1429 -0.9964
 4161SOL     OW14350   5.119   1.326   2.203 -0.3621  0.2757 -0.1305
 4161SOL    HW114351   5.133   1.279   2.121  0.0873 -0.8533  0.5762
 4161SOL    HW214352   5.047   1.280   2.245 -1.2932  1.4863 -0.3369
 4162SOL     OW14353   7.699   5.711   5.144 -0.4248 -0.0875  0.4082
 4162SOL    HW114354   7.662   5.642   5.088 -1.3362  0.9017 -0.2431
 4162SOL    HW214355   7.671   5.793   5.103  1.0072  0.6901  0.9226
 4163SOL     OW14356   2.202   2.926   2.866  0.4278  0.1429 -0.5312
 4163SOL    HW114357   2.287   2.934   2.908  0.2764 -1.7379  0.2636
 4163SOL    HW214358   2.185   2.831   2.864 -1.4672  0.4422 -1.0146
 4164SOL     OW14359   0.175   1.150   6.992  0.6313 -0.5682  0.9669
 4164SOL    HW114360   0.241   1.188   7.049 -2.4585  2.3551  3.0179
 4164SOL    HW214361   0.107   1.218   6.987 -0.4602 -1.6576 -4.3152
 4165SOL     OW14362   5.734   0.112   0.959  0.6140  0.7962  0.3664
 4165SOL    HW114363   5.797   0.042   0.977 -0.5490 -0.3329  0.2282
 4165SOL    HW214364   5.788   0.190   0.948  2.2987 -0.5539 -2.3195
 4166SOL     OW14365   8.834   4.442   0.898  0.0213  0.5279 -0.4897
 4166SOL    HW114366   8.877   4.524   0.925 -1.2403  1.2609 -0.6258
 4166SOL    HW214367   8.868   4.425   0.810  0.6357  0.6547 -0.2833
 4167SOL     OW14368   7.916   5.572   8.066 -0.2891 -0.2904 -0.5089
 4167SOL    HW114369   7.854   5.537   8.002 -0.5100  0.9294 -0.9794
 4167SOL    HW214370   7.987   5.608   8.013  0.5911 -1.2106  0.0061
 4168SOL     OW14371   8.177   1.897   4.405  0.3875  0.1487  0.0223
 4168SOL    HW114372   8.097   1.945   4.385  0.0524  0.1654  1.2996
 4168SOL    HW214373   8.153   1.840   4.479  1.2317 -0.7371 -0.3641
 4169SOL     OW14374   4.712   0.236   8.266  0.4856  0.4483  0.5001
 4169SOL    HW114375   4.799   0.234   8.304 -0.3323  0.4990  2.4639
 4169SOL    HW214376   4.669   0.312   8.305 -0.2970  0.7059 -0.7885
 4170SOL     OW14377   1.130   1.294   8.072 -0.1525 -0.0896 -0.0447
 4170SOL    HW114378   1.116   1.377   8.026 -0.4183 -0.7412 -1.1925
 4170SOL    HW214379   1.198   1.250   8.021 -1.4289 -1.4320 -0.6633
 4171SOL     OW14380   5.542   4.426   1.446 -0.0745 -0.3092 -0.3274
 4171SOL    HW114381   5.519   4.382   1.365  0.0472  0.0920 -0.5862
 4171SOL    HW214382   5.519   4.518   1.431 -1.1897 -0.4205  0.5310
 4172SOL     OW14383   1.439   0.741   7.918  0.4938  0.2993  0.3651
 4172SOL    HW114384   1.393   0.698   7.846  1.0831 -3.3605  1.9557
 4172SOL    HW214385   1.517   0.779   7.878 -0.5589  0.8281 -1.2935
 4173SOL     OW14386   5.544   5.051   0.643  0.0113 -0.1898 -0.0266
 4173SOL    HW114387   5.466   5.089   0.684  1.6009  0.2007  2.9219
 4173SOL    HW214388   5.564   4.975   0.698  1.5483 -0.4431 -0.9020
 4174SOL     OW14389   6.042   8.047   7.120  0.2231  0.3935  0.0219
 4174SOL    HW114390   6.078   7.992   7.051 -0.0410 -0.9351  0.9039
 4174SOL    HW214391   6.115   8.062   7.179  0.2769  0.9411 -0.1822
 4175SOL     OW14392   7.279   4.022   6.509 -0.1424 -0.4128  0.5154
 4175SOL    HW114393   7.254   4.058   6.594  1.2063 -0.4620  0.9530
 4175SOL    HW214394   7.204   4.040   6.452 -0.8261  0.1290  1.5652
 4176SOL     OW14395   0.694   6.203   8.239 -0.2140 -0.6489  0.5922
 4176SOL    HW114396   0.636   6.244   8.174 -0.6276 -1.1040  0.6632
 4176SOL    HW214397   0.646   6.210   8.322  0.8020  0.9492  1.0943
 4177SOL     OW14398   3.518   8.538   1.750 -0.6393 -0.0834  0.2285
 4177SOL    HW114399   3.518   8.444   1.767  0.2823 -0.0970  0.1789
 4177SOL    HW214400   3.425   8.563   1.755 -0.9518 -1.0783 -0.2558
 4178SOL     OW14401   6.481   6.701   1.166 -0.0172 -0.0261  0.3209
 4178SOL    HW114402   6.447   6.626   1.214  0.3220 -0.4851 -0.1539
 4178SOL    HW214403   6.427   6.775   1.196  0.2715 -0.2735  1.5010
 4179SOL     OW14404   1.804   3.900   2.640  0.2764  0.6105 -0.2400
 4179SOL    HW114405   1.802   3.908   2.735  1.7757 -1.6095  0.0547
 4179SOL    HW214406   1.735   3.837   2.619  0.2734  0.7226 -0.5839
 4180SOL     OW14407   7.326   4.701   3.920 -0.4385  0.1501  0.1492
 4180SOL    HW114408   7.403   4.643   3.922  0.2894  1.0661 -0.2596
 4180SOL    HW214409   7.363   4.788   3.903 -1.5119  0.7294  0.7427
 4181SOL     OW14410   0.841   2.545   4.887 -0.5868  0.7450 -0.1680
 4181SOL    HW114411   0.756   2.510   4.863 -0.2550 -0.4389  0.2775
 4181SOL    HW214412   0.825   2.597   4.966 -0.6480 -0.9992  1.0173
 4182SOL     OW14413   2.272   5.506   8.802 -0.2747  0.1813  0.1237
 4182SOL    HW114414   2.309   5.423   8.833  0.1317  1.2594  2.8078
 4182SOL    HW214415   2.348   5.556   8.772 -0.4048 -0.0464 -0.6003
 4183SOL     OW14416   8.941   3.195   6.132  0.6799  0.6728 -0.3466
 4183SOL    HW114417   8.975   3.275   6.092 -0.3784  0.2784 -2.1232
 4183SOL    HW214418   9.014   3.133   6.127  0.5948  0.6546 -1.6502
 4184SOL     OW14419   4.421   8.613   8.258  0.4675  0.1566  0.3244
 4184SOL    HW114420   4.489   8.555   8.225  0.0597 -0.1533  0.0137
 4184SOL    HW214421   4.442   8.698   8.221  0.7033  0.0698  0.2572
 4185SOL     OW14422   6.443   6.893   4.574  0.2782  0.5923 -0.3371
 4185SOL    HW114423   6.479   6.823   4.520  0.3908  0.3276  0.0697
 4185SOL    HW214424   6.350   6.894   4.554  0.2517  0.2271 -0.2453
 4186SOL     OW14425   1.019   2.525   7.674 -0.6555  0.1181  0.0631
 4186SOL    HW114426   1.099   2.546   7.721 -0.5834 -1.0065  0.4605
 4186SOL    HW214427   1.012   2.429   7.678 -1.3689  0.1007 -1.0258
 4187SOL     OW14428   1.895   1.812   7.624  0.0612 -0.1413 -0.6915
 4187SOL    HW114429   1.809   1.850   7.641 -0.6760 -2.3567  0.9629
 4187SOL    HW214430   1.954   1.888   7.622 -1.5960  1.2637  0.3665
 4188SOL     OW14431   3.523   6.847   6.680  0.3638 -0.1522 -0.0271
 4188SOL    HW114432   3.430   6.848   6.658  0.0378 -0.1611  1.2483
 4188SOL    HW214433   3.558   6.925   6.637 -0.6219  0.8777  0.9274
 4189SOL     OW14434   2.406   3.709   6.652  0.4193  0.4870  0.1688
 4189SOL    HW114435   2.501   3.710   6.663  0.2721  0.8804  1.5905
 4189SOL    HW214436   2.386   3.793   6.610  0.6662  0.5457  0.1661
 4190SOL     OW14437   4.724   4.257   6.364 -0.4103 -0.0251  0.3872
 4190SOL    HW114438   4.816   4.239   6.341 -0.2393  0.3386  0.7821
 4190SOL    HW214439   4.716   4.352   6.359 -0.5889 -0.0022  0.9986
 4191SOL     OW14440   7.290   0.084   8.437  0.1479  0.1631 -0.0561
 4191SOL    HW114441   7.327   0.016   8.380 -1.4652 -0.6378 -0.1933
 4191SOL    HW214442   7.331   0.165   8.407  0.6653 -0.4892 -1.1651
 4192SOL     OW14443   5.662   2.462   8.041 -0.3431 -0.5451 -0.1301
 4192SOL    HW114444   5.612   2.427   7.967 -0.7259  0.3178 -0.2906
 4192SOL    HW214445   5.715   2.533   8.003 -1.0730  0.3828  0.5316
 4193SOL     OW14446   4.539   1.990   1.237  0.0560  0.5592  0.2388
 4193SOL    HW114447   4.583   1.905   1.229 -1.1932 -0.1663  0.6951
 4193SOL    HW214448   4.594   2.051   1.189 -0.4644 -1.0467 -2.5781
 4194SOL     OW14449   1.418   1.816   8.780 -0.2390  0.0066  0.0061
 4194SOL    HW114450   1.330   1.787   8.805 -1.0025  1.7607 -0.4568
 4194SOL    HW214451   1.404   1.867   8.700  1.3068 -0.2519 -0.4603
 4195SOL     OW14452   6.998   1.964   6.492  0.5518  0.1349 -0.2708
 4195SOL    HW114453   7.031   1.977   6.403  1.5938 -0.1054  0.0700
 4195SOL    HW214454   6.996   2.052   6.530  0.3562  0.2054 -0.4442
 4196SOL     OW14455   4.859   5.240   2.192  0.1582  0.4078 -0.5142
 4196SOL    HW114456   4.861   5.230   2.097  2.1663  0.2858 -0.5007
 4196SOL    HW214457   4.934   5.190   2.223 -0.8715 -0.1661  1.2262
 4197SOL     OW14458   6.738   6.687   0.505  0.0538 -0.1606  0.1562
 4197SOL    HW114459   6.708   6.722   0.588 -0.7847 -1.1073  0.2563
 4197SOL    HW214460   6.757   6.765   0.452  1.4621  0.4622  1.5081
 4198SOL     OW14461   5.894   3.084   5.366 -0.1637  0.2246  0.2348
 4198SOL    HW114462   5.862   3.080   5.275  0.6852  0.8867 -0.1115
 4198SOL    HW214463   5.835   3.147   5.409 -1.1023 -0.7286  0.3903
 4199SOL     OW14464   7.285   3.196   4.889  0.1988  0.2139  0.2475
 4199SOL    HW114465   7.302   3.286   4.918 -0.2047  0.4230 -0.1380
 4199SOL    HW214466   7.365   3.148   4.909 -0.1360  0.2961  1.8926
 4200SOL     OW14467   1.200   2.341   0.177  0.5906  0.0876 -0.0016
 4200SOL    HW114468   1.122   2.311   0.223  1.0348  0.0793  0.7779
 4200SOL    HW214469   1.230   2.416   0.229 -0.7759  2.2821 -2.1676
 4201SOL     OW14470   7.259   3.101   3.505  0.1783 -0.3454  0.3009
 4201SOL    HW114471   7.293   3.168   3.564  3.0780 -2.0515  0.7395
 4201SOL    HW214472   7.224   3.034   3.564 -0.4521 -0.3449 -0.0650
 4202SOL     OW14473   0.728   3.174   7.653  0.0635  0.4315 -0.4932
 4202SOL    HW114474   0.800   3.236   7.640 -0.9597  1.2914 -2.3795
 4202SOL    HW214475   0.763   3.090   7.626  0.8929  0.5102  0.3023
 4203SOL     OW14476   5.609   7.448   7.614  0.1842 -0.3832  0.4809
 4203SOL    HW114477   5.617   7.477   7.704  2.0144 -1.8029  0.8245
 4203SOL    HW214478   5.672   7.502   7.566 -1.0838  0.6734 -0.1009
 4204SOL     OW14479   6.771   0.166   3.504  0.2099  0.3113 -0.2665
 4204SOL    HW114480   6.833   0.222   3.550 -2.2608  2.6968  0.4301
 4204SOL    HW214481   6.748   0.098   3.567  1.4449 -0.1079 -0.2479
 4205SOL     OW14482   8.638   4.139   8.543  0.4089 -0.6271 -0.0766
 4205SOL    HW114483   8.722   4.103   8.571 -1.0709 -1.4703  3.8986
 4205SOL    HW214484   8.573   4.075   8.573 -1.8011  0.6853 -1.7345
 4206SOL     OW14485   6.390   7.359   7.145  0.0450  0.2966 -0.0964
 4206SOL    HW114486   6.362   7.277   7.186 -0.3663 -0.5674 -1.9982
 4206SOL    HW214487   6.473   7.337   7.102 -0.5880  0.5797 -1.4999
 4207SOL     OW14488   1.104   7.206   6.081  0.1578 -0.0870 -0.1735
 4207SOL    HW114489   1.098   7.301   6.092 -2.0635 -0.3346  1.5814
 4207SOL    HW214490   1.185   7.182   6.126  0.2343  0.8921  0.2505
 4208SOL     OW14491   2.606   7.455   7.704  0.2863  0.2233 -0.5200
 4208SOL    HW114492   2.628   7.533   7.755 -2.5608  0.9099 -0.1458
 4208SOL    HW214493   2.632   7.381   7.759 -0.6087  0.9610  0.9508
 4209SOL     OW14494   6.775   4.529   0.967 -0.1403  0.2231  0.2265
 4209SOL    HW114495   6.850   4.551   0.911  0.4523 -1.6853  0.2005
 4209SOL    HW214496   6.722   4.470   0.913 -0.5767 -0.0843  0.9871
 4210SOL     OW14497   7.065   4.420   4.001  0.1257 -0.3827  0.5461
 4210SOL    HW114498   6.978   4.392   4.029 -0.6519  0.4265 -0.8973
 4210SOL    HW214499   7.123   4.394   4.072 -1.3705 -0.4399  1.8030
 4211SOL     OW14500   8.696   6.059   1.495 -0.0463  0.5026  0.8807
 4211SOL    HW114501   8.716   6.003   1.421 -0.7990 -0.3321  1.2899
 4211SOL    HW214502   8.780   6.099   1.518  0.6730 -0.9967  1.0147
 4212SOL     OW14503   7.535   6.521   8.766  0.2477 -0.1000  0.4449
 4212SOL    HW114504   7.597   6.495   8.834  0.4283 -0.1646  0.2566
 4212SOL    HW214505   7.450   6.487   8.796  0.2389  0.3004  0.8767
 4213SOL     OW14506   0.839   5.254   0.814 -0.2855  0.0389  0.5254
 4213SOL    HW114507   0.819   5.266   0.722  2.2271  0.8433  0.0043
 4213SOL    HW214508   0.831   5.342   0.852  0.0310 -0.0360  0.7711
 4214SOL     OW14509   6.397   5.015   7.676  0.8492  0.3060  0.0340
 4214SOL    HW114510   6.420   4.955   7.605 -3.1230 -1.4818  0.0135
 4214SOL    HW214511   6.417   5.102   7.641  1.8382 -0.6897 -2.0670
 4215SOL     OW14512   5.558   0.205   6.571 -0.1315 -0.0463  0.0724
 4215SOL    HW114513   5.574   0.146   6.644 -0.8651  0.8905  1.0107
 4215SOL    HW214514   5.467   0.189   6.546 -0.0846  0.1064 -0.1985
 4216SOL     OW14515   3.357   4.368   5.940  0.0117 -0.4759  0.4046
 4216SOL    HW114516   3.304   4.321   5.875  1.2455 -2.0326  0.4580
 4216SOL    HW214517   3.364   4.457   5.905 -2.9232 -0.0657  0.6128
 4217SOL     OW14518   4.346   3.099   3.193  0.1492  0.7648 -0.1770
 4217SOL    HW114519   4.434   3.072   3.219  0.6147  1.4283 -1.0120
 4217SOL    HW214520   4.314   3.150   3.267 -0.1715 -0.7907  0.7960
 4218SOL     OW14521   7.494   5.308   2.592  0.3155  0.4438  0.1982
 4218SOL    HW114522   7.409   5.346   2.615  1.1097  1.3714  1.7558
 4218SOL    HW214523   7.554   5.338   2.660  1.7236 -0.9328 -0.3514
 4219SOL     OW14524   5.838   3.323   6.989 -0.0111 -0.2121 -0.0522
 4219SOL    HW114525   5.801   3.291   7.071  1.4295  0.4587  0.9106
 4219SOL    HW214526   5.864   3.245   6.941 -3.0014 -0.7285 -0.9843
 4220SOL     OW14527   7.327   4.979   6.208  0.0901  0.0831  0.0597
 4220SOL    HW114528   7.308   5.067   6.241  3.2774  1.2401 -0.8098
 4220SOL    HW214529   7.387   4.942   6.273  0.6118 -0.5016 -0.7360
 4221SOL     OW14530   4.386   7.584   1.853  0.9023  0.0076 -0.2261
 4221SOL    HW114531   4.382   7.510   1.791 -0.1228  1.0073 -1.4292
 4221SOL    HW214532   4.398   7.661   1.797  0.9168  0.8575  0.9176
 4222SOL     OW14533   6.075   7.461   3.798 -0.0745 -0.2132 -0.3816
 4222SOL    HW114534   6.083   7.539   3.853 -0.5937 -0.9435  0.7637
 4222SOL    HW214535   6.107   7.389   3.853 -1.5218 -1.1135 -0.6442
 4223SOL     OW14536   5.739   8.044   2.480  0.5822  0.4399 -0.0444
 4223SOL    HW114537   5.690   8.069   2.558  1.6834 -0.0477  0.8307
 4223SOL    HW214538   5.743   8.124   2.427  1.0603  1.1855  1.0912
 4224SOL     OW14539   7.241   3.832   8.279 -0.4773  0.1453  0.0613
 4224SOL    HW114540   7.330   3.798   8.289 -0.9228 -0.8180  1.0486
 4224SOL    HW214541   7.247   3.924   8.305 -0.0194 -0.2790  1.5624
 4225SOL     OW14542   5.226   6.583   6.341 -0.1101  0.3845  0.3107
 4225SOL    HW114543   5.232   6.491   6.366  0.8849 -0.0279 -1.2546
 4225SOL    HW214544   5.148   6.616   6.386  0.4676 -0.7623  2.2226
 4226SOL     OW14545   4.011   1.391   2.995 -0.2697 -0.2450 -0.5068
 4226SOL    HW114546   3.982   1.378   2.905  0.1637 -2.0055 -0.4484
 4226SOL    HW214547   4.007   1.303   3.033  0.3613  0.3290  0.9329
 4227SOL     OW14548   0.434   1.799   1.330  0.1529 -0.5455 -0.3407
 4227SOL    HW114549   0.432   1.894   1.319 -0.4436 -0.5113  0.0433
 4227SOL    HW214550   0.526   1.779   1.349  0.2675 -0.0446 -0.3655
 4228SOL     OW14551   8.969   0.760   3.759 -0.3324  0.6919 -0.0925
 4228SOL    HW114552   8.934   0.671   3.768  1.4013  0.0612  0.6847
 4228SOL    HW214553   8.973   0.794   3.849  0.8747  0.8195 -0.1902
 4229SOL     OW14554   0.894   8.489   0.359 -0.0560  0.0513  0.4126
 4229SOL    HW114555   0.944   8.491   0.440  0.9218 -0.1281 -0.1693
 4229SOL    HW214556   0.906   8.400   0.325  0.5656  0.4795 -0.5337
 4230SOL     OW14557   1.336   0.230   4.643  0.2764 -0.3706 -0.1492
 4230SOL    HW114558   1.289   0.299   4.690 -0.9244 -0.6901 -0.8364
 4230SOL    HW214559   1.426   0.261   4.640 -0.0599  0.7212  0.3794
 4231SOL     OW14560   2.577   3.881   2.239  0.0030 -0.1032  0.1141
 4231SOL    HW114561   2.625   3.947   2.289 -0.1137  0.6354 -0.7202
 4231SOL    HW214562   2.533   3.829   2.306  0.0458  0.7059  0.8007
 4232SOL     OW14563   6.831   6.373   0.394  0.6701 -0.2950  0.5525
 4232SOL    HW114564   6.838   6.438   0.323  1.1608 -0.4738  0.4302
 4232SOL    HW214565   6.749   6.394   0.438  1.2695  1.0212  1.1036
 4233SOL     OW14566   8.838   3.322   1.133 -0.4469 -0.2127  0.0614
 4233SOL    HW114567   8.829   3.389   1.065  2.1781  1.5255  1.2541
 4233SOL    HW214568   8.768   3.341   1.195 -1.3294 -0.2654 -0.8888
 4234SOL     OW14569   3.528   1.171   0.583 -0.5743  0.2367 -0.5191
 4234SOL    HW114570   3.586   1.180   0.660 -0.6070 -0.2829 -0.4323
 4234SOL    HW214571   3.585   1.135   0.515 -0.3521  1.4097 -0.9802
 4235SOL     OW14572   1.011   0.152   8.235 -0.9330  0.0193  0.1984
 4235SOL    HW114573   0.999   0.058   8.248 -0.0724 -0.2843 -1.0140
 4235SOL    HW214574   1.106   0.164   8.232 -1.0417  0.8025 -0.4656
 4236SOL     OW14575   5.252   0.156   7.938 -0.1767  0.3964 -0.1681
 4236SOL    HW114576   5.334   0.124   7.900 -0.8832 -1.0320 -0.5655
 4236SOL    HW214577   5.187   0.143   7.869 -1.1216 -0.4262  0.8509
 4237SOL     OW14578   1.155   6.413   0.254  0.1175  0.4257  0.4974
 4237SOL    HW114579   1.204   6.494   0.241  0.6389  0.0737  0.1899
 4237SOL    HW214580   1.064   6.440   0.261  0.1497  0.9567 -0.7614
 4238SOL     OW14581   2.972   8.562   5.389 -0.0917 -0.5588  0.4977
 4238SOL    HW114582   2.894   8.591   5.340 -0.4302 -0.1344  1.2725
 4238SOL    HW214583   3.012   8.643   5.420  1.0450 -0.7333 -0.4461
 4239SOL     OW14584   1.187   8.828   4.606 -0.2848 -0.0357 -0.6755
 4239SOL    HW114585   1.202   8.873   4.689  1.8484 -1.6756 -0.0811
 4239SOL    HW214586   1.200   8.896   4.540  1.4652  0.6107  0.2425
 4240SOL     OW14587   1.163   3.756   1.937  0.3555  0.1448  0.3151
 4240SOL    HW114588   1.126   3.842   1.957 -0.0697 -0.2231  1.1848
 4240SOL    HW214589   1.127   3.699   2.004  0.7051 -0.6996 -0.2049
 4241SOL     OW14590   2.606   8.813   3.196 -0.1731  0.0306  0.2370
 4241SOL    HW114591   2.658   8.849   3.124  1.3541 -0.1751  1.2105
 4241SOL    HW214592   2.653   8.837   3.275 -0.6281 -1.6345  1.0623
 4242SOL     OW14593   8.569   1.385   3.554  0.4528 -0.1780  0.0771
 4242SOL    HW114594   8.517   1.306   3.539  1.0436 -0.5850  0.1492
 4242SOL    HW214595   8.504   1.455   3.562 -0.0519 -0.5747 -0.4682
 4243SOL     OW14596   8.341   2.727   6.370 -0.8271 -0.1566 -0.1798
 4243SOL    HW114597   8.317   2.725   6.463  0.9802  0.8115  0.3477
 4243SOL    HW214598   8.258   2.713   6.324 -2.2809  2.1043  1.5179
 4244SOL     OW14599   2.725   0.268   3.342  0.0887 -0.2836 -0.1604
 4244SOL    HW114600   2.766   0.243   3.259  1.2913 -1.4069  0.7148
 4244SOL    HW214601   2.796   0.308   3.392 -0.9920  1.8095 -0.2037
 4245SOL     OW14602   3.900   8.137   2.321  0.1270 -0.3729  0.1460
 4245SOL    HW114603   3.895   8.229   2.296  0.3514 -0.0526  1.2183
 4245SOL    HW214604   3.993   8.122   2.340 -0.0629 -0.5157  1.0270
 4246SOL     OW14605   1.054   6.715   6.786  0.1128 -0.1004 -0.3992
 4246SOL    HW114606   1.118   6.731   6.716  0.1807 -0.3077 -0.3833
 4246SOL    HW214607   0.977   6.765   6.759  0.8841  1.6688  0.4832
 4247SOL     OW14608   7.511   5.844   5.339  0.0727 -0.3245 -1.3221
 4247SOL    HW114609   7.588   5.890   5.372 -1.3585  0.5582  0.9617
 4247SOL    HW214610   7.547   5.783   5.274  2.6535  0.1920 -0.5157
 4248SOL     OW14611   7.219   4.697   7.922  0.0950 -0.0368  0.1463
 4248SOL    HW114612   7.179   4.626   7.872  1.3905 -1.4473  1.0420
 4248SOL    HW214613   7.313   4.683   7.912  0.3937  1.5834  0.3402
 4249SOL     OW14614   1.489   4.871   0.769 -0.1520  0.3944 -0.2843
 4249SOL    HW114615   1.422   4.828   0.716 -0.2460 -0.1174  0.2409
 4249SOL    HW214616   1.472   4.841   0.858  0.8367  0.1801 -0.1569
 4250SOL     OW14617   8.822   4.186   0.192 -0.4735 -0.0584  0.0492
 4250SOL    HW114618   8.799   4.158   0.103  0.4099  0.0307 -0.2185
 4250SOL    HW214619   8.753   4.246   0.217  0.0686  1.1444 -1.2033
 4251SOL     OW14620   2.343   4.780   7.114 -0.2685 -0.0642 -0.3723
 4251SOL    HW114621   2.358   4.685   7.108 -0.0751 -0.0783  0.2306
 4251SOL    HW214622   2.348   4.811   7.024  1.2294 -0.3945 -0.4197
 4252SOL     OW14623   8.865   1.735   4.640  0.6657  0.1475  0.0459
 4252SOL    HW114624   8.853   1.677   4.565  0.1155 -0.4778  0.5983
 4252SOL    HW214625   8.776   1.760   4.665  0.8665  0.6742  0.2400
 4253SOL     OW14626   7.881   7.911   2.659  0.3828 -0.3666 -0.2380
 4253SOL    HW114627   7.897   7.925   2.565 -2.6112 -0.0603 -0.7988
 4253SOL    HW214628   7.900   7.996   2.699 -1.7526  0.6229 -1.1693
 4254SOL     OW14629   3.663   5.005   3.243  0.1376 -0.4047  0.7932
 4254SOL    HW114630   3.593   4.941   3.252 -0.5739  0.5826  3.1882
 4254SOL    HW214631   3.717   4.972   3.172 -1.6206 -2.2683  0.2289
 4255SOL     OW14632   8.870   5.251   7.278  0.1557 -0.0631  0.8179
 4255SOL    HW114633   8.935   5.318   7.256 -1.3164  1.3392  0.5267
 4255SOL    HW214634   8.896   5.220   7.365  1.8641 -0.4058  0.2182
 4256SOL     OW14635   6.145   3.802   1.433  0.0628  0.0994 -0.2542
 4256SOL    HW114636   6.131   3.882   1.484 -2.0450 -0.6265  0.4115
 4256SOL    HW214637   6.117   3.731   1.491  0.8615 -1.0426 -1.2181
 4257SOL     OW14638   0.662   1.683   1.413  0.0752  0.1220 -0.1970
 4257SOL    HW114639   0.698   1.684   1.501 -0.6762  0.6642  0.1161
 4257SOL    HW214640   0.628   1.594   1.401  1.6871 -0.4714 -0.5893
 4258SOL     OW14641   1.596   7.563   6.416 -0.6979 -0.9289  0.1209
 4258SOL    HW114642   1.633   7.596   6.498 -0.6303  0.5002 -0.4613
 4258SOL    HW214643   1.664   7.579   6.351 -1.9587  1.0518 -0.8241
 4259SOL     OW14644   4.793   6.711   2.731 -0.3194 -0.2385  0.0661
 4259SOL    HW114645   4.846   6.632   2.740  0.3132  0.3084  1.3674
 4259SOL    HW214646   4.793   6.751   2.818  0.1528  1.6851 -0.7496
 4260SOL     OW14647   1.161   0.311   0.450 -0.2740 -0.4311 -0.1131
 4260SOL    HW114648   1.084   0.342   0.402  0.5777 -1.2749 -2.1171
 4260SOL    HW214649   1.235   0.338   0.397  0.9160  0.9480  2.1111
 4261SOL     OW14650   3.094   2.758   4.122  0.3617  0.3006 -0.5339
 4261SOL    HW114651   3.100   2.705   4.042 -0.7397 -2.1853  0.8862
 4261SOL    HW214652   3.000   2.773   4.133  0.5751  1.3832 -0.1484
 4262SOL     OW14653   7.011   4.425   6.071 -0.1993 -0.2022  0.0917
 4262SOL    HW114654   6.996   4.462   5.984  0.7537  2.1281  0.8433
 4262SOL    HW214655   7.006   4.500   6.130  1.0554 -1.4270  1.8461
 4263SOL     OW14656   8.138   7.719   4.725 -0.0189  0.9928  0.1283
 4263SOL    HW114657   8.197   7.651   4.758  0.6859  1.0676 -0.9434
 4263SOL    HW214658   8.072   7.671   4.675 -0.5420  0.9605  0.8336
 4264SOL     OW14659   8.904   5.563   8.430  0.1426  0.1385  0.3482
 4264SOL    HW114660   8.835   5.629   8.420 -2.5500 -2.7011 -2.6151
 4264SOL    HW214661   8.895   5.533   8.520 -3.0695 -0.4904 -0.0400
 4265SOL     OW14662   0.947   0.118   3.982  0.2480  0.1618 -0.1651
 4265SOL    HW114663   0.875   0.103   4.044 -0.6061  1.2067 -0.8731
 4265SOL    HW214664   1.021   0.072   4.021 -0.3537  0.4863  1.4680
 4266SOL     OW14665   3.092   8.463   0.311 -0.2051 -0.4719 -0.3320
 4266SOL    HW114666   3.122   8.372   0.303 -1.1898 -1.2639  3.2324
 4266SOL    HW214667   3.017   8.469   0.252  1.7628 -0.8417 -3.1348
 4267SOL     OW14668   5.069   5.027   1.952  0.3341  0.7008  0.6100
 4267SOL    HW114669   5.104   5.115   1.942  1.2526  0.3461  0.6823
 4267SOL    HW214670   5.025   5.009   1.868  1.7586  0.5174 -0.1281
 4268SOL     OW14671   5.315   3.552   5.107 -0.2266  0.6104 -0.3881
 4268SOL    HW114672   5.340   3.531   5.017 -1.8519  0.6145 -0.8709
 4268SOL    HW214673   5.265   3.633   5.100  1.8625  2.1233  0.8723
 4269SOL     OW14674   0.749   3.881   5.596 -0.2991  0.1302 -0.4610
 4269SOL    HW114675   0.769   3.975   5.602  0.1950 -0.0230  0.4657
 4269SOL    HW214676   0.727   3.867   5.504 -0.5823  1.1977 -0.5704
 4270SOL     OW14677   3.034   7.538   0.469 -0.0667  0.5812 -0.7612
 4270SOL    HW114678   3.055   7.502   0.555 -1.3072 -1.6953 -1.3367
 4270SOL    HW214679   3.101   7.501   0.411 -1.6341 -1.3517 -1.4447
 4271SOL     OW14680   5.375   7.401   1.521 -0.1485 -0.6165  0.1537
 4271SOL    HW114681   5.339   7.490   1.518 -0.7622 -0.8275  1.0087
 4271SOL    HW214682   5.414   7.394   1.608  1.1355 -0.7211 -0.4080
 4272SOL     OW14683   8.007   1.546   6.487 -0.2544 -0.0365  0.2194
 4272SOL    HW114684   8.089   1.543   6.536  0.0514 -0.3175 -0.2988
 4272SOL    HW214685   8.019   1.617   6.424 -0.3940 -0.1061  0.1133
 4273SOL     OW14686   5.119   1.878   1.179  0.1585  0.6916  0.1132
 4273SOL    HW114687   5.060   1.943   1.216  0.8992  0.7475  1.2348
 4273SOL    HW214688   5.171   1.847   1.253  0.2951 -0.6801 -0.5225
 4274SOL     OW14689   8.311   3.841   6.260  0.5055 -0.0128 -0.0620
 4274SOL    HW114690   8.279   3.751   6.265  0.3830  0.0184 -0.2992
 4274SOL    HW214691   8.395   3.839   6.307  0.0706 -0.0535  0.7272
 4275SOL     OW14692   0.533   7.695   7.413 -0.2738  0.5081 -0.3200
 4275SOL    HW114693   0.550   7.675   7.321  1.3298  0.0719  0.0439
 4275SOL    HW214694   0.567   7.784   7.424 -1.0673  0.8213 -0.2774
 4276SOL     OW14695   7.028   3.163   4.736 -0.0302  0.1060 -0.2494
 4276SOL    HW114696   7.042   3.256   4.755  1.6962 -0.2136  0.3022
 4276SOL    HW214697   7.115   3.124   4.748 -0.8176 -1.6516 -0.0077
 4277SOL     OW14698   8.708   8.904   5.225 -0.6401  0.0811  0.1974
 4277SOL    HW114699   8.613   8.900   5.218 -0.7028  0.1719  0.9468
 4277SOL    HW214700   8.740   8.868   5.142 -1.3165 -0.4974  0.1868
 4278SOL     OW14701   7.439   6.052   5.587 -0.5016  0.2650 -0.3369
 4278SOL    HW114702   7.368   5.997   5.554  0.4928 -1.3407  0.0949
 4278SOL    HW214703   7.405   6.087   5.669 -0.4640 -1.3790  0.4374
 4279SOL     OW14704   6.254   5.873   3.263  0.1920 -0.4773  0.3615
 4279SOL    HW114705   6.199   5.823   3.323 -0.8888  1.4510  1.0601
 4279SOL    HW214706   6.337   5.884   3.309 -0.7357  1.2568  1.7057
 4280SOL     OW14707   2.389   7.224   7.054 -0.0570 -0.1194  0.8949
 4280SOL    HW114708   2.375   7.302   7.001 -0.3616 -0.3901  0.5671
 4280SOL    HW214709   2.301   7.187   7.064  0.0583 -0.3057  1.2228
 4281SOL     OW14710   1.829   4.196   3.098 -0.0219  0.4743  0.2245
 4281SOL    HW114711   1.856   4.281   3.063  2.7647 -0.5277 -0.2794
 4281SOL    HW214712   1.910   4.152   3.121 -1.2289 -2.6571 -0.9047
 4282SOL     OW14713   7.129   0.657   3.791 -0.3274  0.4392  0.1697
 4282SOL    HW114714   7.194   0.672   3.859 -0.5570  1.7590  0.1219
 4282SOL    HW214715   7.112   0.743   3.754 -0.1598 -0.2566 -1.6248
 4283SOL     OW14716   4.154   7.999   8.918  0.1991  0.8178  0.0004
 4283SOL    HW114717   4.222   8.062   8.941  0.0992  1.3838 -1.1726
 4283SOL    HW214718   4.071   8.045   8.934  0.1278  1.1717 -1.2615
 4284SOL     OW14719   7.846   1.102   0.026  0.3075 -0.3247 -0.5138
 4284SOL    HW114720   7.758   1.075  -0.000  0.2871 -0.1688 -0.6103
 4284SOL    HW214721   7.842   1.106   0.121 -0.7001  2.6210 -0.5565
 4285SOL     OW14722   4.758   0.037   3.370 -0.7759  0.6132 -0.4705
 4285SOL    HW114723   4.840   0.086   3.363  0.1441 -1.0124 -1.5008
 4285SOL    HW214724   4.721   0.040   3.282 -0.1731 -1.4122 -0.8210
 4286SOL     OW14725   7.175   7.540   8.594 -0.1625 -0.0965 -0.0800
 4286SOL    HW114726   7.256   7.489   8.606 -0.0720 -0.0855 -0.6257
 4286SOL    HW214727   7.204   7.621   8.552 -0.5294 -0.3290 -0.7919
 4287SOL     OW14728   0.924   0.303   2.255  0.3922 -0.6396  0.0130
 4287SOL    HW114729   0.916   0.208   2.251 -1.2584 -0.5646  0.8537
 4287SOL    HW214730   0.881   0.334   2.176  0.6079 -0.5698 -0.0785
 4288SOL     OW14731   4.516   0.192   2.959 -0.0173 -0.0837 -0.3119
 4288SOL    HW114732   4.510   0.102   2.926 -1.2512  0.0626 -0.5587
 4288SOL    HW214733   4.608   0.203   2.982  0.7609 -0.5155 -2.8445
 4289SOL     OW14734   5.656   5.089   8.359 -0.1443 -0.0630  0.3840
 4289SOL    HW114735   5.672   4.994   8.359  0.2745  0.0016  0.8675
 4289SOL    HW214736   5.724   5.124   8.417  0.0367  0.5885 -0.2047
 4290SOL     OW14737   1.509   0.528   5.911 -0.5492  0.1612  1.1419
 4290SOL    HW114738   1.570   0.589   5.869 -0.1772 -1.2477 -0.4483
 4290SOL    HW214739   1.560   0.489   5.982  0.2893 -0.6405  0.1381
 4291SOL     OW14740   3.292   7.833   0.424 -0.4973  0.8585  0.0411
 4291SOL    HW114741   3.374   7.842   0.376 -0.1149  1.7154  0.8163
 4291SOL    HW214742   3.311   7.868   0.511 -1.7814  1.4135  0.1254
 4292SOL     OW14743   1.203   8.755   6.042  0.4320  0.2747 -0.3231
 4292SOL    HW114744   1.279   8.804   6.011  1.0964 -0.9205 -0.6689
 4292SOL    HW214745   1.191   8.686   5.976  0.8214 -1.2790  1.1540
 4293SOL     OW14746   6.702   5.481   6.142  0.1993  0.0131  0.0175
 4293SOL    HW114747   6.615   5.475   6.182 -0.6860  0.2899 -1.7621
 4293SOL    HW214748   6.763   5.473   6.216 -1.2488 -2.7380  1.0531
 4294SOL     OW14749   4.093   4.005   3.311 -0.4075 -0.0358  0.1702
 4294SOL    HW114750   4.175   3.955   3.305  1.0351  2.0005  1.3065
 4294SOL    HW214751   4.059   4.006   3.222  2.0592  0.9476 -0.8644
 4295SOL     OW14752   0.082   8.582   5.462  0.3355 -0.0088 -0.2254
 4295SOL    HW114753   0.151   8.575   5.528  1.5222  0.1391 -1.4038
 4295SOL    HW214754   0.002   8.554   5.507  0.8067  1.5532  1.7048
 4296SOL     OW14755   2.266   4.945   8.384 -0.0177  0.5721 -0.4976
 4296SOL    HW114756   2.324   4.879   8.348  0.1814 -0.9404  2.3082
 4296SOL    HW214757   2.322   4.998   8.440 -1.0036  0.0239  1.0812
 4297SOL     OW14758   8.333   8.284   7.338 -0.1519  0.6680  0.2060
 4297SOL    HW114759   8.406   8.344   7.356 -1.1810  1.3991  2.3473
 4297SOL    HW214760   8.374   8.199   7.326  1.1593  1.3125 -0.1002
 4298SOL     OW14761   4.204   6.435   6.777  0.0694 -0.3952 -0.6980
 4298SOL    HW114762   4.154   6.382   6.840  1.1531 -0.4679  0.1254
 4298SOL    HW214763   4.231   6.512   6.827  0.2461 -0.0511 -1.3166
 4299SOL     OW14764   8.279   2.249   3.605  0.3067  0.2497 -0.5665
 4299SOL    HW114765   8.270   2.326   3.548  1.0069 -0.5570 -1.8250
 4299SOL    HW214766   8.374   2.237   3.615  0.2083  0.6953  1.2702
 4300SOL     OW14767   5.849   3.165   2.541  0.0776 -0.2404  0.3337
 4300SOL    HW114768   5.897   3.163   2.458  1.3096  2.3598  0.8734
 4300SOL    HW214769   5.763   3.200   2.518 -0.4552 -1.8194 -0.1649
 4301SOL     OW14770   4.438   6.684   8.482  0.4239 -0.2220  0.2974
 4301SOL    HW114771   4.475   6.658   8.567 -0.6327 -1.0097  0.5284
 4301SOL    HW214772   4.348   6.709   8.501  0.5032  0.6788 -0.4329
 4302SOL     OW14773   5.539   6.748   2.022 -0.0175 -0.1812 -0.1210
 4302SOL    HW114774   5.484   6.757   2.100 -0.2828 -0.1803 -0.3051
 4302SOL    HW214775   5.496   6.803   1.956 -0.4275 -1.0525 -0.6014
 4303SOL     OW14776   1.183   1.185   0.208  0.1661  0.0560  0.3412
 4303SOL    HW114777   1.123   1.141   0.148 -1.5798  1.7094  0.7733
 4303SOL    HW214778   1.182   1.130   0.287  1.2960 -1.3061 -0.5359
 4304SOL     OW14779   7.792   6.766   8.505 -0.5163  0.0326  0.5545
 4304SOL    HW114780   7.746   6.841   8.542 -0.8474 -0.5063  1.2588
 4304SOL    HW214781   7.730   6.693   8.515  0.7133 -0.8606  2.1480
 4305SOL     OW14782   4.339   6.691   2.602  0.5858  0.1435  0.4708
 4305SOL    HW114783   4.420   6.738   2.582  0.3923  0.2533 -0.0706
 4305SOL    HW214784   4.271   6.759   2.600  0.5649  0.1611  1.5505
 4306SOL     OW14785   0.568   7.861   7.927 -0.1056 -0.2984 -0.4282
 4306SOL    HW114786   0.598   7.872   8.018  3.1201  2.2625 -1.5950
 4306SOL    HW214787   0.600   7.774   7.902 -0.0906 -0.5987  0.5533
 4307SOL     OW14788   6.749   0.782   4.383 -0.2780  0.4749 -0.0721
 4307SOL    HW114789   6.726   0.833   4.460 -0.6226  0.2915 -0.0532
 4307SOL    HW214790   6.669   0.780   4.330  0.0575  0.9168 -0.6185
 4308SOL     OW14791   5.445   1.066   2.929 -0.2211  0.1826 -0.3133
 4308SOL    HW114792   5.522   1.105   2.969 -1.1039  0.7839  0.8817
 4308SOL    HW214793   5.441   1.103   2.841  0.3202  0.8632 -0.0541
 4309SOL     OW14794   4.025   4.379   6.265  0.0310 -0.4982 -0.0461
 4309SOL    HW114795   4.039   4.288   6.293  1.6412 -0.2088  0.1598
 4309SOL    HW214796   4.048   4.431   6.342 -0.8539  0.1043 -0.1722
 4310SOL     OW14797   5.201   0.642   5.527  0.0416  0.4232  0.2913
 4310SOL    HW114798   5.182   0.554   5.495  1.0341  0.5044 -0.5616
 4310SOL    HW214799   5.180   0.639   5.620  0.0477 -0.7144  0.2658
 4311SOL     OW14800   3.554   7.582   2.307 -0.6213  0.3727 -0.0833
 4311SOL    HW114801   3.626   7.600   2.368  1.3404 -0.1793 -2.0692
 4311SOL    HW214802   3.502   7.515   2.350  0.3085  0.4739  1.2671
 4312SOL     OW14803   0.906   7.613   0.880 -0.1635 -0.0921 -0.4112
 4312SOL    HW114804   0.977   7.612   0.944 -1.0588  2.7937  0.7536
 4312SOL    HW214805   0.830   7.578   0.926 -0.1368 -0.7670 -0.8579
 4313SOL     OW14806   4.795   2.933   2.384 -0.4516 -0.6072  0.0181
 4313SOL    HW114807   4.877   2.892   2.410 -0.1485 -0.0071  0.0155
 4313SOL    HW214808   4.737   2.860   2.363 -0.9825 -1.2073  3.0909
 4314SOL     OW14809   8.878   5.871   4.108  0.1400 -0.1192 -0.3081
 4314SOL    HW114810   8.853   5.837   4.194  0.4683  0.2411 -0.0681
 4314SOL    HW214811   8.882   5.793   4.052 -1.5338 -0.2067 -0.3739
 4315SOL     OW14812   2.740   3.728   6.361  0.1446  0.4234 -0.3056
 4315SOL    HW114813   2.776   3.790   6.425  0.6459 -0.6808  0.5447
 4315SOL    HW214814   2.818   3.688   6.321 -0.1340 -0.6713  0.2109
 4316SOL     OW14815   8.264   1.917   5.877  0.3451 -0.6220  0.2864
 4316SOL    HW114816   8.219   1.999   5.858  1.0463 -0.1611  0.5876
 4316SOL    HW214817   8.193   1.854   5.894 -0.2072 -0.2060 -0.4231
 4317SOL     OW14818   6.966   0.921   6.047 -0.3090 -0.6902 -0.6012
 4317SOL    HW114819   7.051   0.911   6.003  0.1881  1.5270 -0.2957
 4317SOL    HW214820   6.912   0.850   6.012  1.1940 -1.2207 -1.9919
 4318SOL     OW14821   7.996   3.419   3.201  0.0697 -0.6727 -0.1101
 4318SOL    HW114822   7.979   3.330   3.232  3.0068 -1.0664  0.6836
 4318SOL    HW214823   8.023   3.409   3.110  0.4680 -0.6257 -0.0013
 4319SOL     OW14824   7.080   3.122   4.213  0.9292  0.0104 -0.2324
 4319SOL    HW114825   7.028   3.093   4.139 -0.6059  0.7706  0.5124
 4319SOL    HW214826   7.028   3.099   4.290  1.8380  0.5056  0.5642
 4320SOL     OW14827   4.413   7.483   6.612 -0.4286  0.0651  0.3393
 4320SOL    HW114828   4.414   7.560   6.555  1.0096  0.9616  1.5238
 4320SOL    HW214829   4.324   7.448   6.603  0.0780 -0.6622 -3.4833
 4321SOL     OW14830   6.539   3.759   6.919 -0.4103 -0.1789  0.0537
 4321SOL    HW114831   6.594   3.709   6.979 -1.8249 -1.5444  0.2962
 4321SOL    HW214832   6.586   3.841   6.906  1.3152 -0.9897  0.7828
 4322SOL     OW14833   6.933   5.574   2.671  0.4928 -0.3226 -0.3454
 4322SOL    HW114834   6.989   5.501   2.644 -0.2012 -0.8505 -0.3744
 4322SOL    HW214835   6.862   5.575   2.607 -0.9696 -1.3522  1.2006
 4323SOL     OW14836   6.960   1.802   1.602 -0.0884 -0.2846 -0.2665
 4323SOL    HW114837   6.994   1.772   1.518  1.3259 -1.3174  0.6455
 4323SOL    HW214838   7.005   1.885   1.618  2.4345 -1.8069  1.0965
 4324SOL     OW14839   3.290   0.532   0.838  0.1586  0.5966 -0.9333
 4324SOL    HW114840   3.312   0.479   0.761  0.9900 -0.4129 -0.0247
 4324SOL    HW214841   3.249   0.471   0.898  1.5705  0.8471  0.3369
 4325SOL     OW14842   1.744   3.387   5.290  1.1038 -0.7958  0.3843
 4325SOL    HW114843   1.732   3.292   5.291 -0.2521 -0.6469  0.5708
 4325SOL    HW214844   1.769   3.407   5.200 -0.2804 -1.1731 -0.1146
 4326SOL     OW14845   2.394   6.732   5.182  0.3017 -0.3219 -0.3387
 4326SOL    HW114846   2.402   6.639   5.159 -0.4241 -0.4589 -0.0370
 4326SOL    HW214847   2.300   6.748   5.192  0.4885 -0.4590  3.1830
 4327SOL     OW14848   3.700   8.170   6.465  0.1292  0.0045  0.2380
 4327SOL    HW114849   3.721   8.122   6.385  0.1411 -0.0279  0.2607
 4327SOL    HW214850   3.623   8.223   6.442 -1.2727 -1.6810  0.8381
 4328SOL     OW14851   2.643   6.173   1.383 -0.3526 -0.2405  0.2410
 4328SOL    HW114852   2.726   6.145   1.343  0.8732  1.9132  1.1039
 4328SOL    HW214853   2.588   6.095   1.380  1.3965 -1.5232 -1.1338
 4329SOL     OW14854   6.053   7.072   7.200 -0.4399  0.0798 -0.1492
 4329SOL    HW114855   6.147   7.068   7.218 -0.7376  1.2654  1.9863
 4329SOL    HW214856   6.012   7.067   7.286 -2.3503 -0.1996 -1.0196
 4330SOL     OW14857   3.939   6.365   6.342 -0.8182  1.0710 -0.4279
 4330SOL    HW114858   3.931   6.306   6.267 -0.1075 -0.9184  0.9768
 4330SOL    HW214859   4.030   6.391   6.342 -0.2188 -0.7930  0.9816
 4331SOL     OW14860   4.189   4.885   7.747 -0.0074  0.4073 -0.0916
 4331SOL    HW114861   4.228   4.832   7.678  2.9364  0.0363  1.6789
 4331SOL    HW214862   4.106   4.915   7.711 -0.1450 -2.4579 -2.4990
 4332SOL     OW14863   2.947   1.653   3.583  0.4225 -0.2741  0.1753
 4332SOL    HW114864   3.012   1.692   3.641  2.1147 -0.9547 -1.1910
 4332SOL    HW214865   2.956   1.559   3.596  0.6882 -0.4320 -1.0040
 4333SOL     OW14866   4.576   7.554   2.284 -0.0772  0.2075 -0.3444
 4333SOL    HW114867   4.549   7.518   2.369  0.1815  0.3443 -0.2045
 4333SOL    HW214868   4.670   7.539   2.280  0.4407  2.7295  0.6476
 4334SOL     OW14869   2.109   2.319   1.712  0.5816 -0.2013 -0.1390
 4334SOL    HW114870   2.146   2.275   1.635  0.7610 -0.3553  0.0352
 4334SOL    HW214871   2.129   2.261   1.785  1.0039  0.2704  0.1211
 4335SOL     OW14872   0.184   8.274   8.488  0.4123  0.0937 -0.0731
 4335SOL    HW114873   0.175   8.357   8.441  1.9603  1.2860  1.5996
 4335SOL    HW214874   0.094   8.248   8.508 -0.1076  1.5387 -0.3672
 4336SOL     OW14875   7.935   3.422   7.357 -1.1191  0.1386 -0.6587
 4336SOL    HW114876   7.989   3.489   7.398 -0.2475  0.2909 -1.9732
 4336SOL    HW214877   7.847   3.460   7.354 -0.9821  0.5243  0.1284
 4337SOL     OW14878   8.899   5.708   2.521  0.7621 -0.5024  0.1389
 4337SOL    HW114879   8.809   5.679   2.537  0.7254 -0.2195  0.4462
 4337SOL    HW214880   8.894   5.803   2.517  1.1396 -0.4521  0.7426
 4338SOL     OW14881   2.741   6.407   5.762 -0.3721  0.1918  0.0055
 4338SOL    HW114882   2.761   6.466   5.690  2.8174 -0.4448  0.2386
 4338SOL    HW214883   2.819   6.408   5.817 -1.4867 -1.7553  1.7753
 4339SOL     OW14884   4.277   6.378   7.083 -0.5455  0.7680  0.1170
 4339SOL    HW114885   4.186   6.405   7.090 -0.7408 -0.0791  1.0972
 4339SOL    HW214886   4.284   6.302   7.141  0.6383  0.4493 -0.4145
 4340SOL     OW14887   1.196   3.586   4.810 -0.2273 -0.1671  0.0391
 4340SOL    HW114888   1.263   3.558   4.873 -0.7159 -0.7883  0.2898
 4340SOL    HW214889   1.195   3.682   4.818  0.8326 -0.1248 -0.1787
 4341SOL     OW14890   7.524   8.262   8.833 -0.4536  0.5048  0.5424
 4341SOL    HW114891   7.503   8.345   8.875  0.0541  1.5720 -1.1973
 4341SOL    HW214892   7.448   8.243   8.779  0.7530  1.6869 -1.7306
 4342SOL     OW14893   1.790   1.830   8.743  0.6654  0.1717  0.0702
 4342SOL    HW114894   1.752   1.877   8.669  0.2937 -1.8787 -1.1217
 4342SOL    HW214895   1.747   1.868   8.820 -1.9264 -0.2688 -1.0359
 4343SOL     OW14896   2.123   4.994   5.976  0.2686 -0.5486 -0.1551
 4343SOL    HW114897   2.190   4.947   5.927  0.9393  0.6172 -0.4023
 4343SOL    HW214898   2.061   5.025   5.909  1.8189  2.0846 -0.5391
 4344SOL     OW14899   3.861   1.751   4.768 -0.0300  0.3840  0.0447
 4344SOL    HW114900   3.831   1.803   4.843  2.4228  2.1805 -0.0714
 4344SOL    HW214901   3.910   1.678   4.807 -1.2744 -0.3998  0.1817
 4345SOL     OW14902   4.676   2.811   2.705 -0.1244  0.2830  0.2268
 4345SOL    HW114903   4.679   2.906   2.696 -1.0933  0.2144 -1.1948
 4345SOL    HW214904   4.583   2.791   2.715  0.0231 -0.5489  0.0024
 4346SOL     OW14905   4.851   3.152   7.705 -0.1063  0.0302  0.1903
 4346SOL    HW114906   4.819   3.090   7.772  0.3850  1.0921  1.4571
 4346SOL    HW214907   4.813   3.236   7.730  2.0960  0.9720  0.6688
 4347SOL     OW14908   1.756   1.263   6.283 -0.0031  0.1449  0.3396
 4347SOL    HW114909   1.704   1.327   6.331 -1.3692  0.6077 -1.6545
 4347SOL    HW214910   1.720   1.178   6.309  0.3769  0.2749  1.3391
 4348SOL     OW14911   1.483   0.881   1.581  0.0119  0.1820  0.1460
 4348SOL    HW114912   1.572   0.887   1.618  0.2249  0.0532 -0.3412
 4348SOL    HW214913   1.477   0.956   1.522 -0.9933  1.4795  1.8307
 4349SOL     OW14914   8.788   3.285   4.523  0.1000 -0.1041 -0.1753
 4349SOL    HW114915   8.737   3.289   4.442 -0.4258 -0.1066  0.1515
 4349SOL    HW214916   8.852   3.355   4.515 -0.4300  0.3746 -0.2771
 4350SOL     OW14917   8.696   8.120   6.148  0.0323  0.1554  0.5322
 4350SOL    HW114918   8.749   8.161   6.080  1.6023  1.1719  2.2683
 4350SOL    HW214919   8.746   8.135   6.229 -2.2186 -0.1521  2.0547
 4351SOL     OW14920   7.080   1.057   1.523  0.5284  0.5720  0.0222
 4351SOL    HW114921   6.998   1.027   1.482  0.2746  0.0392  0.8919
 4351SOL    HW214922   7.141   0.985   1.509  1.0861  1.2552 -1.2463
 4352SOL     OW14923   7.435   5.643   5.542 -0.1384  0.2212 -0.1298
 4352SOL    HW114924   7.525   5.611   5.529 -0.6338 -0.5501 -2.0641
 4352SOL    HW214925   7.413   5.687   5.460 -1.1455  1.4178  0.7519
 4353SOL     OW14926   6.349   0.649   6.248  0.7397 -0.3804  0.7014
 4353SOL    HW114927   6.398   0.634   6.329  1.0007 -1.2005  0.4053
 4353SOL    HW214928   6.267   0.601   6.259  0.3325  0.3443  0.8799
 4354SOL     OW14929   4.289   6.726   6.182  0.0276  0.1443 -0.5649
 4354SOL    HW114930   4.258   6.760   6.266 -1.2506 -0.0992 -0.9166
 4354SOL    HW214931   4.358   6.664   6.206  0.2256  0.6542  0.2518
 4355SOL     OW14932   7.110   2.873   3.247 -0.1786 -0.2240 -0.1469
 4355SOL    HW114933   7.195   2.912   3.227  0.4368 -1.1414  0.6006
 4355SOL    HW214934   7.093   2.814   3.174 -1.0970  1.3293 -1.2662
 4356SOL     OW14935   8.443   5.366   4.217 -0.2870  0.0817  0.5008
 4356SOL    HW114936   8.466   5.459   4.215  0.5046 -0.0902 -1.9205
 4356SOL    HW214937   8.350   5.363   4.197 -0.9257  0.4032  3.0368
 4357SOL     OW14938   8.916   6.679   0.342  0.4775  0.2652  0.2836
 4357SOL    HW114939   8.957   6.703   0.259  1.1110 -0.4492  0.3753
 4357SOL    HW214940   8.830   6.720   0.339 -0.6407 -1.9612 -1.9754
 4358SOL     OW14941   7.721   1.373   8.206  0.1682 -0.4501  0.3534
 4358SOL    HW114942   7.640   1.380   8.155  1.3307 -2.1703 -1.8604
 4358SOL    HW214943   7.787   1.343   8.144  2.2319 -0.4234  2.3953
 4359SOL     OW14944   8.489   3.711   4.423  0.2047 -0.4041  0.8270
 4359SOL    HW114945   8.532   3.684   4.504  0.5961 -2.2463  0.0605
 4359SOL    HW214946   8.447   3.632   4.391 -1.8561  0.8087  0.3429
 4360SOL     OW14947   0.976   3.195   0.687  0.2067 -0.5642  0.2302
 4360SOL    HW114948   1.020   3.139   0.623  0.6244  1.9412 -1.8443
 4360SOL    HW214949   1.045   3.250   0.724 -0.5496  0.6111 -0.0289
 4361SOL     OW14950   2.136   8.597   6.462 -0.4453  0.1412  0.1728
 4361SOL    HW114951   2.103   8.563   6.379  3.0501  1.2760 -1.8939
 4361SOL    HW214952   2.150   8.690   6.446  1.4049  0.1803  1.5986
 4362SOL     OW14953   8.575   8.383   2.008 -0.2893  0.4205  0.1897
 4362SOL    HW114954   8.492   8.372   1.960  0.3047  0.4338 -0.8739
 4362SOL    HW214955   8.592   8.477   2.003  0.2620  0.2904 -0.4103
 4363SOL     OW14956   4.913   6.231   2.409  0.6199  0.0572 -0.2212
 4363SOL    HW114957   4.883   6.196   2.493  2.3199  2.8094  1.7132
 4363SOL    HW214958   5.000   6.193   2.397  1.4923  1.6751  0.6960
 4364SOL     OW14959   5.341   7.625   2.970 -0.4141 -0.0677  0.0998
 4364SOL    HW114960   5.280   7.693   2.941 -1.1913 -0.8438 -0.0980
 4364SOL    HW214961   5.408   7.623   2.901 -1.5232 -0.9512 -1.0063
 4365SOL     OW14962   2.465   3.644   6.284  0.3487 -0.1366 -0.1596
 4365SOL    HW114963   2.528   3.582   6.247 -0.8991 -1.4607 -0.1569
 4365SOL    HW214964   2.510   3.684   6.358  1.1215 -1.2095 -0.0273
 4366SOL     OW14965   0.902   4.571   4.846 -0.0692 -0.1347 -0.1748
 4366SOL    HW114966   0.971   4.636   4.834  0.0354 -0.1917  0.0912
 4366SOL    HW214967   0.949   4.489   4.858 -0.1106  0.0418  1.4635
 4367SOL     OW14968   5.591   4.801   0.796 -0.2114  0.3176 -0.0806
 4367SOL    HW114969   5.685   4.792   0.778 -0.3684 -1.3703 -0.2245
 4367SOL    HW214970   5.583   4.784   0.890 -0.4537 -0.3357 -0.2166
 4368SOL     OW14971   1.083   6.864   5.016  0.1096  0.3083 -0.1985
 4368SOL    HW114972   1.144   6.936   5.003  1.7523 -0.9938  0.0264
 4368SOL    HW214973   1.099   6.804   4.942 -1.4217  0.2763 -0.5452
 4369SOL     OW14974   3.341   3.353   0.627 -0.2414 -0.3924 -0.3791
 4369SOL    HW114975   3.332   3.359   0.532 -0.3159  1.1588 -0.2920
 4369SOL    HW214976   3.293   3.429   0.661 -0.1823 -0.9028  0.8964
 4370SOL     OW14977   8.808   2.384   7.508 -0.4586  0.6295  0.0877
 4370SOL    HW114978   8.826   2.472   7.475  1.4332 -0.2992 -1.5364
 4370SOL    HW214979   8.877   2.367   7.571  0.7240 -0.5804 -1.4608
 4371SOL     OW14980   7.684   2.775   4.266  0.2451 -0.3457 -0.1790
 4371SOL    HW114981   7.732   2.693   4.260 -1.8077 -1.6215 -0.2363
 4371SOL    HW214982   7.649   2.789   4.178 -0.6902 -0.2354  0.2017
 4372SOL     OW14983   8.789   6.694   2.064 -0.1889 -0.1864 -0.1420
 4372SOL    HW114984   8.874   6.660   2.093  0.3250  0.0659 -1.3030
 4372SOL    HW214985   8.787   6.678   1.970 -2.1498 -1.6999  0.0750
 4373SOL     OW14986   4.485   8.035   1.118 -0.1766 -0.0633 -0.2976
 4373SOL    HW114987   4.555   8.009   1.058 -0.5242  3.8412 -2.7995
 4373SOL    HW214988   4.518   8.113   1.162 -2.4331  1.1982 -0.6571
 4374SOL     OW14989   5.037   1.547   2.965 -0.0756 -1.1087  0.0759
 4374SOL    HW114990   5.060   1.635   2.995  2.4500  0.5857 -5.4859
 4374SOL    HW214991   4.948   1.555   2.932 -0.4986 -1.2289  1.1393
 4375SOL     OW14992   6.972   6.399   5.141  0.5405 -0.6422  0.1475
 4375SOL    HW114993   7.020   6.478   5.115 -1.4118  0.2427 -1.0389
 4375SOL    HW214994   6.907   6.387   5.072 -0.4726 -2.1755  1.2970
 4376SOL     OW14995   4.197   4.502   1.980  0.7475  0.1141  0.5298
 4376SOL    HW114996   4.215   4.579   2.033  0.6951 -1.4135  2.9271
 4376SOL    HW214997   4.101   4.501   1.970  0.7901  0.6161  0.0798
 4377SOL     OW14998   5.440   0.297   1.066  0.6416  0.1234  0.2536
 4377SOL    HW114999   5.443   0.232   1.137  0.9154 -0.6134 -0.4212
 4377SOL    HW215000   5.530   0.301   1.034  1.0677  2.2382  1.5036
 4378SOL     OW15001   4.730   5.295   7.361 -0.6195 -0.2970 -0.5889
 4378SOL    HW115002   4.817   5.256   7.364 -0.4762  0.0902  0.3562
 4378SOL    HW215003   4.686   5.248   7.289  0.2561 -0.6989 -0.8790
 4379SOL     OW15004   2.649   1.207   2.207  0.9610 -0.8637 -0.1130
 4379SOL    HW115005   2.621   1.197   2.116  1.8122  0.9277 -0.6118
 4379SOL    HW215006   2.741   1.181   2.208  1.4433  0.7403 -0.1573
 4380SOL     OW15007   8.633   5.448   5.996 -0.5245 -0.2567  0.3795
 4380SOL    HW115008   8.680   5.506   6.055  0.9519 -1.2756  0.2648
 4380SOL    HW215009   8.687   5.446   5.916 -1.5188 -0.3260 -0.3038
 4381SOL     OW15010   4.999   6.705   5.164 -0.2643 -0.2065 -0.2349
 4381SOL    HW115011   4.999   6.688   5.069  3.0766 -0.7952 -0.2581
 4381SOL    HW215012   5.022   6.621   5.203  2.1856  0.8404  0.7507
 4382SOL     OW15013   5.634   5.939   4.891  0.5315  0.3589 -0.0358
 4382SOL    HW115014   5.623   6.033   4.877  0.7427  0.5427  0.9426
 4382SOL    HW215015   5.683   5.933   4.973  0.3175 -0.6115  0.0269
 4383SOL     OW15016   0.392   4.130   7.020 -0.1211  0.7750  0.2285
 4383SOL    HW115017   0.468   4.180   6.989  0.3152  0.6939  1.1544
 4383SOL    HW215018   0.355   4.092   6.940  1.2462  0.1995 -0.1577
 4384SOL     OW15019   3.373   1.577   3.534 -1.2138 -0.1168  0.2541
 4384SOL    HW115020   3.323   1.614   3.461 -1.8666  1.6950  1.5497
 4384SOL    HW215021   3.451   1.632   3.539 -2.0073  0.9335  1.9677
 4385SOL     OW15022   5.817   0.041   2.039  0.2934 -0.0416  0.3814
 4385SOL    HW115023   5.770   0.124   2.045  1.7093  0.8077  0.0141
 4385SOL    HW215024   5.790  -0.008   2.117  1.9836  2.1083  2.4698
 4386SOL     OW15025   5.195   5.004   4.962  0.0558  0.1673  0.4246
 4386SOL    HW115026   5.174   4.998   4.869  2.8128  0.3942 -0.3024
 4386SOL    HW215027   5.127   4.952   5.005 -1.4509  0.2636 -1.6583
 4387SOL     OW15028   3.384   5.956   7.709 -0.2132  0.2984  0.6428
 4387SOL    HW115029   3.407   6.044   7.680 -0.2288 -0.5695 -2.4232
 4387SOL    HW215030   3.413   5.899   7.637 -1.5330 -2.0414  1.8347
 4388SOL     OW15031   4.143   4.779   5.095 -0.0806 -0.1802 -0.1303
 4388SOL    HW115032   4.122   4.871   5.076  1.7301  0.7158  1.8426
 4388SOL    HW215033   4.156   4.777   5.189  0.0544 -2.4699 -0.1559
 4389SOL     OW15034   1.809   5.868   5.736  0.0431 -0.5887 -0.1376
 4389SOL    HW115035   1.793   5.897   5.646 -2.0783 -0.7241  0.1392
 4389SOL    HW215036   1.904   5.857   5.741  0.2101 -0.6504 -2.3697
 4390SOL     OW15037   3.488   0.647   7.364  0.2154 -0.4864  0.1669
 4390SOL    HW115038   3.438   0.586   7.419 -1.8801  0.7597 -0.2453
 4390SOL    HW215039   3.518   0.593   7.291 -1.1107 -1.1887  0.0927
 4391SOL     OW15040   0.754   8.683   8.060 -0.1725 -0.1337  0.1283
 4391SOL    HW115041   0.847   8.687   8.040 -0.6353 -1.9043 -3.2140
 4391SOL    HW215042   0.714   8.751   8.005 -0.9438 -0.0426  0.7763
 4392SOL     OW15043   1.425   7.526   7.883 -0.6394 -0.2749 -0.1014
 4392SOL    HW115044   1.433   7.507   7.789 -1.4614  0.2013 -0.2766
 4392SOL    HW215045   1.461   7.449   7.927 -0.7199 -0.7157 -0.8025
 4393SOL     OW15046   0.664   8.029   2.977 -0.2817 -0.3006  0.2027
 4393SOL    HW115047   0.690   8.092   2.911  0.8567 -1.5884 -0.6381
 4393SOL    HW215048   0.569   8.038   2.984 -0.6515 -1.0299 -2.6101
 4394SOL     OW15049   5.019   2.533   1.489  0.5570  0.1055 -0.6869
 4394SOL    HW115050   4.962   2.478   1.435 -2.8863  0.3165  2.3602
 4394SOL    HW215051   5.005   2.622   1.457 -0.4145  0.0872 -0.3225
 4395SOL     OW15052   6.370   2.590   4.248  0.3204 -0.2493 -0.3235
 4395SOL    HW115053   6.285   2.634   4.244 -0.4992 -1.6577  0.3920
 4395SOL    HW215054   6.424   2.644   4.306 -0.1981  0.4971 -0.5317
 4396SOL     OW15055   2.881   5.399   2.472 -0.3819  0.4551  0.2281
 4396SOL    HW115056   2.809   5.445   2.428 -1.6479 -0.8043  0.9204
 4396SOL    HW215057   2.958   5.455   2.457 -1.3647  1.5220 -1.0537
 4397SOL     OW15058   2.457   0.258   4.749  0.0969 -0.3754  0.0800
 4397SOL    HW115059   2.520   0.329   4.742 -0.9948  0.5182 -1.1621
 4397SOL    HW215060   2.402   0.267   4.671 -0.8566 -1.8107  0.5499
 4398SOL     OW15061   5.874   4.011   3.984  0.4521  0.4174  0.0979
 4398SOL    HW115062   5.884   3.916   3.978  0.0046  0.2710  1.3857
 4398SOL    HW215063   5.930   4.036   4.058 -0.5109  0.9577  0.6620
 4399SOL     OW15064   0.568   1.862   8.868  0.0879 -0.0080 -0.1737
 4399SOL    HW115065   0.533   1.933   8.815  0.0081  0.3862  0.3912
 4399SOL    HW215066   0.580   1.901   8.955 -0.3828 -0.8046  0.2649
 4400SOL     OW15067   6.547   5.115   1.605 -0.2085  0.3812  0.0863
 4400SOL    HW115068   6.598   5.152   1.533  2.1171 -1.1640  0.8172
 4400SOL    HW215069   6.540   5.187   1.668 -1.0106  1.3049 -1.0106
 4401SOL     OW15070   3.852   3.495   3.564 -0.6634  0.4415  0.2272
 4401SOL    HW115071   3.852   3.521   3.472  3.9214  0.1654 -0.0900
 4401SOL    HW215072   3.909   3.558   3.608  0.2910 -1.5331  2.0606
 4402SOL     OW15073   8.460   3.435   0.531  0.1280  0.3146  0.4113
 4402SOL    HW115074   8.523   3.421   0.461  1.5861  1.5292  1.4252
 4402SOL    HW215075   8.385   3.381   0.506  1.6425 -1.4019 -0.6883
 4403SOL     OW15076   6.340   4.160   3.040 -0.1097 -0.0828  0.3060
 4403SOL    HW115077   6.365   4.107   3.116  0.1960  0.5058  0.6239
 4403SOL    HW215078   6.393   4.239   3.048  1.8411 -1.0536 -1.8966
 4404SOL     OW15079   4.764   2.677   6.730  0.0625  0.1036 -0.1815
 4404SOL    HW115080   4.743   2.724   6.811  0.6319 -0.4414  0.2921
 4404SOL    HW215081   4.716   2.595   6.736  0.9099 -0.3809  0.0889
 4405SOL     OW15082   4.052   1.063   5.158 -0.1153 -0.2747 -0.1078
 4405SOL    HW115083   3.959   1.084   5.167 -0.3126 -0.9646 -0.4640
 4405SOL    HW215084   4.058   0.970   5.182  0.6348  0.0054  0.8701
 4406SOL     OW15085   1.033   6.474   7.788 -0.8837 -0.0697 -0.2901
 4406SOL    HW115086   1.110   6.507   7.835 -1.0811  0.8951 -0.6197
 4406SOL    HW215087   1.029   6.527   7.709 -2.8625  1.0731  0.5291
 4407SOL     OW15088   2.494   0.419   8.830  0.0876 -0.4288  0.3695
 4407SOL    HW115089   2.427   0.394   8.893 -0.6434  1.8061  0.5574
 4407SOL    HW215090   2.489   0.515   8.826  0.6844 -0.4274 -2.4601
 4408SOL     OW15091   7.911   7.885   0.458 -0.0577  0.2652  0.0175
 4408SOL    HW115092   8.000   7.919   0.464  0.2118 -0.3370 -0.4029
 4408SOL    HW215093   7.869   7.937   0.390  0.9725 -1.4761 -2.0999
 4409SOL     OW15094   1.780   6.935   5.636  0.6557 -0.1196  0.6108
 4409SOL    HW115095   1.767   7.011   5.693  1.0138  0.0179  0.5103
 4409SOL    HW215096   1.814   6.971   5.554 -1.6757 -0.0979 -0.4197
 4410SOL     OW15097   2.936   6.967   5.722  0.3339 -0.6093 -0.3212
 4410SOL    HW115098   2.995   7.026   5.675  1.3004 -0.0741  1.4744
 4410SOL    HW215099   2.901   6.910   5.654  3.3510 -1.3338 -1.4313
 4411SOL     OW15100   2.072   6.091   8.146  0.3568 -0.4097  0.2809
 4411SOL    HW115101   2.036   6.042   8.072 -0.7624 -0.0996  0.6016
 4411SOL    HW215102   2.046   6.041   8.223  1.8025 -0.9063  0.4655
 4412SOL     OW15103   0.525   8.238   1.892  0.5416  0.2126 -0.2545
 4412SOL    HW115104   0.491   8.188   1.818 -1.4292 -1.2669  1.5239
 4412SOL    HW215105   0.554   8.171   1.955  2.0377  1.4105  0.4078
 4413SOL     OW15106   2.799   1.006   4.959 -0.2448  0.2460 -0.1761
 4413SOL    HW115107   2.843   1.045   5.035  0.5828  0.2729 -0.6510
 4413SOL    HW215108   2.849   1.039   4.883 -0.7270 -0.2028 -0.6968
 4414SOL     OW15109   1.719   6.136   7.233  1.1857 -0.2025  0.0629
 4414SOL    HW115110   1.711   6.114   7.326  0.2206 -2.3989 -0.4662
 4414SOL    HW215111   1.813   6.139   7.216  1.3697  0.3491  1.1352
 4415SOL     OW15112   7.290   6.729   8.616  0.4583 -0.4752 -0.0638
 4415SOL    HW115113   7.195   6.718   8.627  0.5500 -1.9051 -0.5447
 4415SOL    HW215114   7.301   6.747   8.523  0.6347  0.1858  0.0786
 4416SOL     OW15115   6.950   4.204   3.807 -0.0267  0.4886 -0.4706
 4416SOL    HW115116   6.909   4.203   3.894  0.9023  1.8475  0.0115
 4416SOL    HW215117   6.950   4.296   3.781 -0.9136  0.0320 -2.2465
 4417SOL     OW15118   7.580   4.668   0.139  0.9917  0.7546 -0.0288
 4417SOL    HW115119   7.535   4.751   0.154 -0.6572 -0.1686  0.4400
 4417SOL    HW215120   7.614   4.644   0.225 -0.6136 -0.1755  0.3818
 4418SOL     OW15121   2.330   7.113   0.952  0.2105 -1.1180  0.3270
 4418SOL    HW115122   2.400   7.151   1.006 -0.3751 -1.0579  1.0550
 4418SOL    HW215123   2.277   7.188   0.927  0.7873 -1.0731 -0.8067
 4419SOL     OW15124   0.134   5.114   0.368  0.0564 -0.0644 -0.1046
 4419SOL    HW115125   0.101   5.194   0.410 -0.0725  0.3159 -0.9055
 4419SOL    HW215126   0.068   5.092   0.303  0.7448 -0.0367 -0.8297
 4420SOL     OW15127   0.450   7.847   0.163 -0.2452 -0.3197 -0.2105
 4420SOL    HW115128   0.417   7.760   0.183  0.3620 -0.7014 -0.8255
 4420SOL    HW215129   0.372   7.903   0.165 -0.3728 -0.4715  2.2434
 4421SOL     OW15130   4.005   1.029   7.689 -0.6772  0.3656 -0.0942
 4421SOL    HW115131   3.993   1.018   7.783  2.9830  0.0852  0.5124
 4421SOL    HW215132   3.976   0.946   7.651  0.2373 -0.5539  1.1353
 4422SOL     OW15133   4.517   8.891   6.342  0.2992  0.1472 -0.4913
 4422SOL    HW115134   4.554   8.861   6.259 -0.6367 -2.0520 -0.1661
 4422SOL    HW215135   4.428   8.856   6.343  0.4238 -0.2275  1.6062
 4423SOL     OW15136   4.757   8.857   0.397 -0.3523 -0.4104 -0.0241
 4423SOL    HW115137   4.718   8.926   0.344  2.5709  0.9581 -0.6189
 4423SOL    HW215138   4.762   8.781   0.338 -1.6457 -0.5016 -0.0470
 4424SOL     OW15139   1.650   8.743   0.988  0.4095  0.2414  0.4151
 4424SOL    HW115140   1.705   8.791   1.051  1.6397  2.7980 -2.3527
 4424SOL    HW215141   1.579   8.804   0.968 -0.3024 -0.7807 -0.2473
 4425SOL     OW15142   5.157   5.702   8.361  0.3320  0.2359 -0.0828
 4425SOL    HW115143   5.179   5.743   8.445  0.1066  0.2244 -0.0174
 4425SOL    HW215144   5.191   5.762   8.295 -0.4217  0.7806  0.0028
 4426SOL     OW15145   3.588   6.311   1.163  0.0950 -0.5363 -0.6447
 4426SOL    HW115146   3.593   6.276   1.252 -0.3468 -0.2417 -0.4989
 4426SOL    HW215147   3.503   6.354   1.159  0.0740 -0.6206 -1.2408
 4427SOL     OW15148   3.500   4.795   1.890 -0.2894  0.1885 -0.4554
 4427SOL    HW115149   3.463   4.869   1.938 -2.3804  0.0036 -1.6976
 4427SOL    HW215150   3.485   4.720   1.948 -1.0774  0.2514 -0.5763
 4428SOL     OW15151   0.458   4.510   0.509  0.4673  0.3851 -0.3735
 4428SOL    HW115152   0.441   4.493   0.417  1.0703 -0.7533 -0.3031
 4428SOL    HW215153   0.497   4.597   0.512  2.3269 -0.3667 -1.4393
 4429SOL     OW15154   7.695   6.595   3.316  0.0291 -0.7311  0.6259
 4429SOL    HW115155   7.673   6.630   3.402 -0.0191 -0.4534  0.5035
 4429SOL    HW215156   7.692   6.500   3.326  0.1610 -0.6989  0.9642
 4430SOL     OW15157   3.421   3.551   3.065 -0.1215  0.5077  0.2657
 4430SOL    HW115158   3.340   3.501   3.056  0.8700 -1.3307  0.9565
 4430SOL    HW215159   3.459   3.552   2.978 -1.5096  2.6411 -0.4024
 4431SOL     OW15160   1.552   0.846   4.919  0.0924 -0.3472 -0.1400
 4431SOL    HW115161   1.566   0.753   4.899  1.1628  0.2488 -2.4266
 4431SOL    HW215162   1.457   0.857   4.917 -0.1395 -1.6053  1.4641
 4432SOL     OW15163   2.516   6.310   3.426  0.2315  0.2725 -0.2447
 4432SOL    HW115164   2.602   6.341   3.400 -0.2169 -0.2028 -2.5081
 4432SOL    HW215165   2.530   6.269   3.511  2.1302  0.6107 -0.3498
 4433SOL     OW15166   2.704   0.148   3.704  0.3400 -0.7145  0.3366
 4433SOL    HW115167   2.634   0.194   3.658  0.4598  0.8762  1.6586
 4433SOL    HW215168   2.669   0.130   3.791  0.5979 -2.4740  0.1206
 4434SOL     OW15169   8.563   4.667   0.048  0.4202  0.4323  0.5611
 4434SOL    HW115170   8.493   4.607   0.071  0.0211  0.8152  0.3645
 4434SOL    HW215171   8.537   4.751   0.086  0.6819  0.6219  0.3343
 4435SOL     OW15172   7.060   4.439   8.828  0.1978  0.1304 -0.2160
 4435SOL    HW115173   7.098   4.520   8.794 -2.5150  1.1403 -1.0680
 4435SOL    HW215174   7.080   4.440   8.922 -0.1109  1.9928 -0.1432
 4436SOL     OW15175   7.347   0.174   0.306  0.4000  0.2935  0.1673
 4436SOL    HW115176   7.330   0.206   0.218  0.5320  0.6243  0.2599
 4436SOL    HW215177   7.287   0.100   0.317 -0.9348  1.3833  0.4604
 4437SOL     OW15178   8.822   7.853   6.796  0.1820 -0.0932  0.1450
 4437SOL    HW115179   8.783   7.917   6.736  2.1667  1.5635  0.5063
 4437SOL    HW215180   8.913   7.845   6.766  0.1267 -2.3785  0.4566
 4438SOL     OW15181   1.467   2.415   8.219 -0.0874 -0.3247 -0.3488
 4438SOL    HW115182   1.546   2.409   8.164  0.2308  1.8536 -0.1926
 4438SOL    HW215183   1.411   2.476   8.172 -0.7153 -0.0792  0.7121
 4439SOL     OW15184   1.520   8.988   7.279 -0.1541  0.1022 -0.6919
 4439SOL    HW115185   1.547   8.897   7.283  2.6860  0.8190 -1.0515
 4439SOL    HW215186   1.476   9.004   7.363  0.3909 -1.3110 -0.1123
 4440SOL     OW15187   8.413   8.273   5.013  0.0041 -0.6787  0.9840
 4440SOL    HW115188   8.342   8.287   5.076 -0.3716 -0.2189  0.4715
 4440SOL    HW215189   8.430   8.179   5.016 -0.6255 -0.7924  1.1065
 4441SOL     OW15190   8.334   6.382   0.738  0.3845 -0.2869 -0.2895
 4441SOL    HW115191   8.373   6.429   0.664  2.0218 -2.7805 -1.1386
 4441SOL    HW215192   8.358   6.435   0.815 -0.9920  2.1279 -1.4170
 4442SOL     OW15193   7.529   5.051   5.675 -0.0034  0.1038 -0.3594
 4442SOL    HW115194   7.465   5.070   5.744  1.3757 -0.3183  1.0990
 4442SOL    HW215195   7.563   5.137   5.650 -0.8463  0.2997 -0.8792
 4443SOL     OW15196   2.330   6.824   1.817 -0.3945  0.0240 -0.4442
 4443SOL    HW115197   2.348   6.737   1.781 -0.6819 -0.0201 -0.4823
 4443SOL    HW215198   2.375   6.884   1.757 -1.4193 -0.0052 -1.2706
 4444SOL     OW15199   7.875   8.189   3.272  0.1091  0.3684 -0.3108
 4444SOL    HW115200   7.796   8.206   3.323 -0.6047 -2.7905 -0.1900
 4444SOL    HW215201   7.946   8.200   3.334 -0.4088  1.0055  0.1798
 4445SOL     OW15202   5.948   5.813   7.040 -0.3206  0.4495  0.0945
 4445SOL    HW115203   6.005   5.887   7.061 -0.8924  1.0245 -0.3289
 4445SOL    HW215204   5.870   5.853   7.003 -0.5525 -0.3826 -0.3412
 4446SOL     OW15205   2.786   3.516   2.750  0.4513 -0.0076  0.1922
 4446SOL    HW115206   2.706   3.465   2.736  0.5814  0.2488 -1.7959
 4446SOL    HW215207   2.828   3.474   2.825 -1.3261 -0.4005  1.0147
 4447SOL     OW15208   7.740   4.012   3.329  0.6143 -0.7019 -0.3702
 4447SOL    HW115209   7.698   4.027   3.244 -0.4994  0.7300  0.3934
 4447SOL    HW215210   7.767   4.098   3.359  1.1256 -1.2037  0.6789
 4448SOL     OW15211   2.968   4.939   7.733  0.4231 -0.6662 -0.6394
 4448SOL    HW115212   2.929   5.025   7.746  0.6498 -0.8478  1.6705
 4448SOL    HW215213   3.047   4.955   7.682 -0.2900  0.2708 -1.4938
 4449SOL     OW15214   2.576   6.673   8.968  0.1796  0.1500 -0.1898
 4449SOL    HW115215   2.623   6.591   8.953  1.3373  0.3481  2.0190
 4449SOL    HW215216   2.645   6.736   8.990 -0.7844  1.4919 -0.8709
 4450SOL     OW15217   4.619   7.266   7.896 -0.4264  0.0007 -0.3647
 4450SOL    HW115218   4.559   7.209   7.944 -0.6204 -0.1440 -0.7678
 4450SOL    HW215219   4.672   7.206   7.844  0.5125  0.0862  0.4667
 4451SOL     OW15220   1.169   7.082   1.391 -0.1631 -0.8158  0.0258
 4451SOL    HW115221   1.212   7.057   1.309 -0.4505 -0.4289 -0.2455
 4451SOL    HW215222   1.158   6.999   1.438 -0.6178 -1.1406 -0.6258
 4452SOL     OW15223   0.034   7.288   1.246  0.2510 -0.0559  0.9567
 4452SOL    HW115224   0.011   7.203   1.285 -0.5224 -1.8868 -2.9321
 4452SOL    HW215225  -0.037   7.346   1.272 -1.0907 -1.6190  0.9871
 4453SOL     OW15226   8.489   6.662   8.564  0.5336  0.4891 -0.4880
 4453SOL    HW115227   8.425   6.726   8.533  0.0297  0.2437  0.0262
 4453SOL    HW215228   8.447   6.620   8.639  2.1028  1.7595  1.1996
 4454SOL     OW15229   8.399   4.303   4.243  0.0368 -0.3006  0.2174
 4454SOL    HW115230   8.459   4.236   4.211 -1.5795 -1.1961 -1.0669
 4454SOL    HW215231   8.354   4.263   4.317  1.8418  0.8288  2.0457
 4455SOL     OW15232   5.623   7.713   3.626  0.5133 -0.1574  0.1095
 4455SOL    HW115233   5.630   7.760   3.543  1.2183 -0.5137 -0.0433
 4455SOL    HW215234   5.699   7.741   3.677 -0.5062  0.9060  1.0955
 4456SOL     OW15235   8.081   5.725   8.391  0.9748  0.0789  0.1056
 4456SOL    HW115236   8.035   5.642   8.378  0.6168  0.1520  0.8556
 4456SOL    HW215237   8.049   5.781   8.321  2.7639 -1.0382 -1.6944
 4457SOL     OW15238   3.094   3.553   6.550  0.3720 -0.6378  0.4289
 4457SOL    HW115239   3.010   3.512   6.530 -0.3327  1.8859 -2.4769
 4457SOL    HW215240   3.151   3.479   6.573 -2.0665 -2.6227  0.6040
 4458SOL     OW15241   2.157   0.298   8.263  0.0657  0.3359  0.5871
 4458SOL    HW115242   2.176   0.283   8.356  1.0520  1.7299  0.6522
 4458SOL    HW215243   2.147   0.210   8.226  0.8501 -0.2918  1.7885
 4459SOL     OW15244   7.716   4.667   7.352 -0.5340  0.1931  0.4169
 4459SOL    HW115245   7.678   4.719   7.422 -0.0385  0.1695  0.7012
 4459SOL    HW215246   7.788   4.619   7.393 -1.0596 -0.8268  0.2011
 4460SOL     OW15247   1.624   3.096   2.011 -0.0803  0.3958 -0.5872
 4460SOL    HW115248   1.538   3.100   1.969 -0.9187  1.6873  1.1128
 4460SOL    HW215249   1.656   3.187   2.008  0.2758  0.3329  0.6110
 4461SOL     OW15250   7.276   1.384   4.966  0.0690 -0.1283 -0.5705
 4461SOL    HW115251   7.371   1.373   4.977  0.4268  0.9665 -2.1994
 4461SOL    HW215252   7.262   1.377   4.872 -1.5963 -0.9734 -0.2912
 4462SOL     OW15253   0.639   7.890   1.972  0.0693  0.4179  0.9960
 4462SOL    HW115254   0.710   7.832   1.998 -0.9031 -1.2798  0.0088
 4462SOL    HW215255   0.659   7.913   1.881 -0.5868 -0.0102  0.7374
 4463SOL     OW15256   1.611   3.754   5.431 -0.4555  0.3648  0.5225
 4463SOL    HW115257   1.530   3.767   5.382 -1.3303 -0.3076  1.7366
 4463SOL    HW215258   1.584   3.757   5.522  1.1345  1.5681  0.9986
 4464SOL     OW15259   3.646   6.066   5.675  0.5058  0.7137  0.0802
 4464SOL    HW115260   3.645   6.000   5.605  2.5113  0.5736  0.1261
 4464SOL    HW215261   3.700   6.137   5.641 -1.2280  2.1764  0.2254
 4465SOL     OW15262   8.267   0.041   5.001  0.1704  0.0244 -0.4513
 4465SOL    HW115263   8.334  -0.017   5.038 -1.8872 -1.6251  0.9366
 4465SOL    HW215264   8.218   0.072   5.078 -1.3807  0.2309 -1.4866
 4466SOL     OW15265   5.308   3.773   8.062 -0.0164 -0.2054 -0.3825
 4466SOL    HW115266   5.259   3.848   8.029 -1.0857 -0.7324 -0.0141
 4466SOL    HW215267   5.292   3.772   8.156 -0.0776 -0.9422 -0.3911
 4467SOL     OW15268   3.973   2.289   8.804 -0.6562 -0.4306  0.2299
 4467SOL    HW115269   3.932   2.223   8.749  2.3729 -2.0087 -0.3270
 4467SOL    HW215270   4.050   2.246   8.842 -0.1039  1.9492  2.1159
 4468SOL     OW15271   5.850   8.705   4.839  0.0650 -0.0450 -0.0935
 4468SOL    HW115272   5.941   8.680   4.825 -0.1017 -0.5522 -0.2787
 4468SOL    HW215273   5.855   8.788   4.887  0.6221 -0.0381 -0.1617
 4469SOL     OW15274   0.267   7.908   1.535 -0.2229  0.5215  1.0324
 4469SOL    HW115275   0.202   7.912   1.465 -0.3779  0.7699  1.1863
 4469SOL    HW215276   0.291   7.816   1.540 -0.0826  0.5267  0.5392
 4470SOL     OW15277   0.607   3.039   1.741  0.1203  0.1873 -0.0471
 4470SOL    HW115278   0.621   3.100   1.669  3.3948 -0.7893 -0.4130
 4470SOL    HW215279   0.521   3.001   1.724 -0.5894  2.2956 -1.6031
 4471SOL     OW15280   8.836   1.931   3.408  0.3233  0.7585  0.4927
 4471SOL    HW115281   8.782   1.942   3.486 -1.5043  0.1867 -0.6185
 4471SOL    HW215282   8.799   1.854   3.364  0.4229  1.8278 -1.5898
 4472SOL     OW15283   2.357   3.333   8.987 -0.2474  0.1162 -0.0573
 4472SOL    HW115284   2.423   3.270   8.960  0.8607  1.2963 -0.1787
 4472SOL    HW215285   2.406   3.405   9.027 -1.5082  0.6751  0.5679
 4473SOL     OW15286   2.509   4.102   5.950  0.1310 -0.3190  0.2712
 4473SOL    HW115287   2.581   4.147   5.993  0.0389  0.7844 -0.6763
 4473SOL    HW215288   2.452   4.074   6.022 -0.2563  1.8761  0.8909
 4474SOL     OW15289   7.177   5.133   6.866  0.4708  0.9144 -0.7715
 4474SOL    HW115290   7.248   5.074   6.892  0.9300  1.1763 -1.4375
 4474SOL    HW215291   7.203   5.218   6.900  0.2910  0.9422 -0.6993
 4475SOL     OW15292   0.833   4.084   3.287 -0.6033  0.3301 -0.1922
 4475SOL    HW115293   0.761   4.102   3.227  0.0449 -0.5478 -1.2769
 4475SOL    HW215294   0.823   3.992   3.309  0.8047 -0.1037 -1.2505
 4476SOL     OW15295   6.731   5.980   0.704 -0.8024 -0.2236 -0.5135
 4476SOL    HW115296   6.712   5.900   0.754 -0.2576  0.2489  0.4850
 4476SOL    HW215297   6.668   5.979   0.632  0.0338 -2.2053 -1.2761
 4477SOL     OW15298   2.887   3.354   7.582 -0.5173 -0.0436  0.6538
 4477SOL    HW115299   2.929   3.319   7.660 -0.5298  0.4714  0.9010
 4477SOL    HW215300   2.797   3.322   7.587 -1.0271  1.4196  1.8174
 4478SOL     OW15301   5.005   4.517   1.621 -0.5257 -0.1970 -0.4825
 4478SOL    HW115302   4.951   4.581   1.669 -1.6606 -2.5635  1.6024
 4478SOL    HW215303   4.943   4.472   1.564  0.6236  1.8049 -3.5287
 4479SOL     OW15304   2.165   6.360   7.576  0.2187  0.0579 -0.1106
 4479SOL    HW115305   2.231   6.417   7.615  0.0701  0.0893  0.0996
 4479SOL    HW215306   2.213   6.282   7.550  0.8469  1.1062 -2.3720
 4480SOL     OW15307   8.769   2.927   7.902 -0.6884 -0.1458  0.4853
 4480SOL    HW115308   8.768   2.987   7.827 -0.7559 -0.6239  0.0991
 4480SOL    HW215309   8.677   2.909   7.920 -0.6526 -1.5097 -0.5295
 4481SOL     OW15310   1.624   6.331   7.875 -0.8096  0.2893  0.0251
 4481SOL    HW115311   1.675   6.263   7.832  0.0873  1.7596 -1.3686
 4481SOL    HW215312   1.537   6.294   7.886 -0.4724 -0.8942 -1.1274
 4482SOL     OW15313   0.421   1.746   5.965 -0.0076 -0.1024  0.4994
 4482SOL    HW115314   0.473   1.717   5.890  1.0442  1.2419  0.6654
 4482SOL    HW215315   0.338   1.698   5.957 -0.5571  1.0631 -2.3899
 4483SOL     OW15316   1.222   4.650   0.789 -0.1300 -0.1788 -0.0429
 4483SOL    HW115317   1.223   4.695   0.874 -1.4403  1.6833 -0.9400
 4483SOL    HW215318   1.136   4.607   0.786  0.0018 -0.4254 -0.3439
 4484SOL     OW15319   8.263   1.028   0.638  0.0967  0.0663  0.6852
 4484SOL    HW115320   8.238   0.970   0.566 -0.4477 -1.0318  1.7229
 4484SOL    HW215321   8.190   1.023   0.700  0.4522  1.1598  1.2252
 4485SOL     OW15322   3.669   3.845   4.846  0.1953  0.3896 -0.1115
 4485SOL    HW115323   3.726   3.805   4.912  0.1005 -0.0969 -0.3207
 4485SOL    HW215324   3.613   3.905   4.895  0.9136  0.9149  0.0928
 4486SOL     OW15325   7.092   4.114   3.388 -0.3366 -0.0076 -0.3892
 4486SOL    HW115326   7.176   4.078   3.361 -1.5474 -3.6455  0.1034
 4486SOL    HW215327   7.101   4.129   3.482  0.0627  0.5902 -0.5217
 4487SOL     OW15328   7.339   2.180   3.086  0.1046 -0.5209 -0.0249
 4487SOL    HW115329   7.313   2.265   3.120  0.7900 -0.2354 -0.1970
 4487SOL    HW215330   7.283   2.166   3.009  1.0287  0.4771 -0.9103
 4488SOL     OW15331   3.496   0.855   0.343 -0.0263  0.1348 -0.3003
 4488SOL    HW115332   3.466   0.923   0.284 -2.1061  0.1755  0.7018
 4488SOL    HW215333   3.459   0.878   0.428  1.3251 -0.9131  0.6345
 4489SOL     OW15334   2.015   4.619   3.766 -0.1227 -0.2229 -0.2526
 4489SOL    HW115335   2.001   4.643   3.858 -1.8230  2.2733 -1.0623
 4489SOL    HW215336   2.095   4.667   3.741 -0.5801  0.4314 -0.4849
 4490SOL     OW15337   1.845   6.296   5.654  0.0597 -0.0319 -0.5010
 4490SOL    HW115338   1.750   6.296   5.666 -0.1267 -0.5216 -1.8035
 4490SOL    HW215339   1.880   6.274   5.740 -0.9214  1.6910  0.4021
 4491SOL     OW15340   7.903   7.063   7.925 -0.0946 -0.1158  0.0757
 4491SOL    HW115341   7.910   7.072   7.830  1.0181  0.4558  0.1917
 4491SOL    HW215342   7.982   7.015   7.950 -0.4099 -0.3108  0.7073
 4492SOL     OW15343   3.581   7.425   2.978  0.7482  0.1161  0.0357
 4492SOL    HW115344   3.603   7.457   3.066 -0.4433  1.0325  0.0128
 4492SOL    HW215345   3.500   7.470   2.955  1.3721  0.3871 -1.8135
 4493SOL     OW15346   0.853   2.073   1.358  0.4545  0.2254  0.4984
 4493SOL    HW115347   0.915   2.134   1.399 -0.3550  0.2454  1.7360
 4493SOL    HW215348   0.771   2.086   1.405 -0.0780 -0.9238 -0.0605
 4494SOL     OW15349   7.325   3.275   7.928  0.7719 -0.3780 -0.5818
 4494SOL    HW115350   7.392   3.292   7.862  1.1748 -0.5215 -0.2124
 4494SOL    HW215351   7.367   3.215   7.990 -0.1061 -1.5217 -1.0354
 4495SOL     OW15352   8.763   8.376   0.993 -0.6558  0.4793  0.0939
 4495SOL    HW115353   8.672   8.358   0.967 -1.0959  1.0761  1.1507
 4495SOL    HW215354   8.802   8.289   1.003 -1.5204  0.1744  0.9569
 4496SOL     OW15355   0.552   0.887   7.112  0.2062 -0.2751 -0.7399
 4496SOL    HW115356   0.608   0.813   7.136 -0.0211 -0.0592  0.5419
 4496SOL    HW215357   0.483   0.848   7.058  0.1378 -0.9919 -0.1587
 4497SOL     OW15358   0.712   5.897   3.679 -0.0832 -0.0160  0.5676
 4497SOL    HW115359   0.646   5.918   3.612  1.1754  1.6774 -0.2142
 4497SOL    HW215360   0.704   5.803   3.691 -1.8982 -0.0311 -0.2890
 4498SOL     OW15361   3.184   7.408   2.133 -0.0392  0.4793  0.1353
 4498SOL    HW115362   3.128   7.473   2.177  0.5389  2.4013 -1.7540
 4498SOL    HW215363   3.184   7.436   2.041  2.9097 -0.2329 -0.1838
 4499SOL     OW15364   8.086   3.869   2.071  0.1641  0.3142  0.0486
 4499SOL    HW115365   8.092   3.790   2.125 -1.7664  1.2796  1.7729
 4499SOL    HW215366   8.000   3.864   2.030  0.4528  1.0302 -0.6821
 4500SOL     OW15367   3.844   6.710   8.828 -0.3834  0.0215  0.4887
 4500SOL    HW115368   3.787   6.740   8.899 -0.5494 -1.9242  1.2195
 4500SOL    HW215369   3.912   6.658   8.872  1.3055  1.2842 -0.4848
 4501SOL     OW15370   6.009   1.727   4.034 -0.0935 -0.5026  0.2929
 4501SOL    HW115371   6.066   1.705   4.108  1.0272 -0.7020 -0.6088
 4501SOL    HW215372   6.048   1.682   3.960 -1.6195 -0.9019 -0.3013
 4502SOL     OW15373   6.964   6.118   7.953 -0.4471  0.1586 -0.3132
 4502SOL    HW115374   6.914   6.060   7.896 -0.3061 -0.4255  0.1392
 4502SOL    HW215375   7.013   6.175   7.894 -0.3488 -0.3938 -0.7684
 4503SOL     OW15376   3.990   3.313   5.133 -0.4257  0.1477  0.3680
 4503SOL    HW115377   4.035   3.382   5.085  1.9748 -1.0297  0.8044
 4503SOL    HW215378   3.977   3.243   5.069  0.0791 -0.2534  0.6990
 4504SOL     OW15379   8.528   2.823   3.173 -0.0762 -0.3643 -0.0708
 4504SOL    HW115380   8.567   2.742   3.141  0.4904  0.2091 -0.8745
 4504SOL    HW215381   8.527   2.813   3.268 -3.5250 -2.8975 -0.2126
 4505SOL     OW15382   4.653   6.163   8.105 -0.3314 -0.1187  0.5079
 4505SOL    HW115383   4.724   6.123   8.154 -0.0285 -0.8806 -0.5410
 4505SOL    HW215384   4.573   6.131   8.147 -0.0723 -0.3402  0.8290
 4506SOL     OW15385   5.843   8.754   3.431  0.3282 -0.1175  0.3138
 4506SOL    HW115386   5.861   8.841   3.396  0.6251 -0.5540 -0.6484
 4506SOL    HW215387   5.903   8.696   3.384  0.1189 -0.8447  0.9267
 4507SOL     OW15388   2.552   3.119   5.907 -0.1168  0.1432  0.2346
 4507SOL    HW115389   2.471   3.080   5.941 -0.6007 -0.1548 -1.1922
 4507SOL    HW215390   2.588   3.052   5.848  1.4394  0.0854  1.2131
 4508SOL     OW15391   8.989   3.868   0.307  0.4628 -0.0784  0.2149
 4508SOL    HW115392   9.058   3.853   0.371  1.7504  2.0699 -0.5518
 4508SOL    HW215393   8.978   3.963   0.307 -1.7139 -0.2758 -0.5378
 4509SOL     OW15394   4.207   2.147   6.932  0.6885  0.1480 -0.2353
 4509SOL    HW115395   4.138   2.164   6.996  0.5520  1.2905 -0.6647
 4509SOL    HW215396   4.287   2.141   6.984  0.7722  2.3168 -0.0229
 4510SOL     OW15397   3.021   3.913   7.006 -0.3147  0.7849 -0.0354
 4510SOL    HW115398   2.945   3.874   7.049  1.7729 -0.7948  2.5125
 4510SOL    HW215399   3.091   3.850   7.019  1.6231  2.4189 -1.8264
 4511SOL     OW15400   3.655   0.823   3.407  0.1137  0.0983 -0.1544
 4511SOL    HW115401   3.647   0.764   3.332 -1.6387  0.6581 -0.4649
 4511SOL    HW215402   3.565   0.830   3.441  1.0052 -1.0725  2.7510
 4512SOL     OW15403   8.176   5.403   4.504  0.5845  0.8087 -0.0463
 4512SOL    HW115404   8.154   5.336   4.440 -0.5299  1.9010 -0.8534
 4512SOL    HW215405   8.269   5.389   4.522  0.2413 -1.3604  0.3475
 4513SOL     OW15406   3.846   3.389   4.608 -0.2731  0.0479 -0.4311
 4513SOL    HW115407   3.895   3.402   4.526  2.4105 -1.2421  0.8410
 4513SOL    HW215408   3.808   3.475   4.627  0.9183  0.9450 -1.8852
 4514SOL     OW15409   8.444   4.457   0.874 -0.1760  0.1635 -0.1796
 4514SOL    HW115410   8.373   4.441   0.936  0.1123 -2.4350 -0.3865
 4514SOL    HW215411   8.448   4.377   0.822  1.8809  0.8787 -1.2395
 4515SOL     OW15412   4.883   3.202   2.901 -0.1384 -0.0984 -0.4757
 4515SOL    HW115413   4.792   3.213   2.926 -0.4193 -0.4215 -1.3273
 4515SOL    HW215414   4.882   3.202   2.806  0.6036 -1.1932 -0.5055
 4516SOL     OW15415   8.417   0.209   4.544 -0.3255 -0.2967  0.1450
 4516SOL    HW115416   8.483   0.236   4.608  1.0720  1.1892 -1.7979
 4516SOL    HW215417   8.339   0.259   4.567  0.1299  0.1400  0.7573
 4517SOL     OW15418   1.412   7.896   1.025 -0.0327 -0.1494 -0.7510
 4517SOL    HW115419   1.412   7.867   0.934  1.0619  0.4345 -0.9556
 4517SOL    HW215420   1.399   7.991   1.020 -0.6120 -0.1990 -0.2583
 4518SOL     OW15421   7.375   2.271   6.045  0.0885  0.1300  0.1588
 4518SOL    HW115422   7.299   2.286   5.989  0.9769  0.0110 -1.1238
 4518SOL    HW215423   7.422   2.354   6.044  0.8196 -0.2758 -0.4059
 4519SOL     OW15424   8.684   3.379   5.018  0.3472  0.0389  0.5037
 4519SOL    HW115425   8.758   3.332   5.056  0.6443 -0.4693 -0.6539
 4519SOL    HW215426   8.723   3.459   4.982 -0.2347  1.5217  2.9369
 4520SOL     OW15427   2.298   1.596   5.549  0.3917 -0.0997  0.9933
 4520SOL    HW115428   2.341   1.542   5.483 -0.3711  0.0080  0.3996
 4520SOL    HW215429   2.278   1.678   5.504  1.7507  0.8101  1.9416
 4521SOL     OW15430   8.519   6.728   1.877 -0.0197 -0.2626  0.3125
 4521SOL    HW115431   8.483   6.698   1.961 -0.1905 -1.0190 -0.0192
 4521SOL    HW215432   8.510   6.823   1.880  0.1762 -0.2645  1.2399
 4522SOL     OW15433   4.886   7.267   4.014 -0.2738  0.0134  0.2651
 4522SOL    HW115434   4.874   7.196   3.950  0.7757 -0.0086  0.0719
 4522SOL    HW215435   4.939   7.228   4.083  1.1827  0.8546 -0.3240
 4523SOL     OW15436   3.557   1.892   2.041 -0.2600  0.1737  0.3725
 4523SOL    HW115437   3.609   1.817   2.012 -1.9454 -0.3995 -1.3523
 4523SOL    HW215438   3.478   1.853   2.080 -0.8167  1.0447  0.1382
 4524SOL     OW15439   0.501   0.902   5.043  0.4715  0.4862  0.9908
 4524SOL    HW115440   0.498   0.904   4.947  0.5001  2.1503  0.9868
 4524SOL    HW215441   0.505   0.809   5.065 -0.4359  0.0260 -0.5912
 4525SOL     OW15442   0.846   3.291   5.240 -0.1335 -0.6522 -0.4445
 4525SOL    HW115443   0.768   3.338   5.270  1.1859  0.8278  0.8352
 4525SOL    HW215444   0.838   3.290   5.145  0.1178  2.9619 -0.6386
 4526SOL     OW15445   5.415   2.421   1.568  0.9636 -0.2499  0.3135
 4526SOL    HW115446   5.352   2.415   1.640  0.3741 -1.4914 -0.2793
 4526SOL    HW215447   5.499   2.395   1.607  0.5483 -1.4553  0.4499
 4527SOL     OW15448   4.509   1.897   6.731 -0.8268  0.5237 -0.1757
 4527SOL    HW115449   4.437   1.863   6.677 -0.2240 -0.0559 -0.6277
 4527SOL    HW215450   4.575   1.828   6.729  0.9336  2.1530 -2.0868
 4528SOL     OW15451   7.271   2.537   0.913  0.2524 -0.4775 -0.1666
 4528SOL    HW115452   7.192   2.512   0.960 -1.3451  0.8453 -2.0356
 4528SOL    HW215453   7.320   2.591   0.975  0.5712 -2.6131  1.5841
 4529SOL     OW15454   2.970   2.421   4.624 -0.0923 -0.2528  0.6394
 4529SOL    HW115455   2.932   2.419   4.537 -0.2602  0.1160  0.7014
 4529SOL    HW215456   3.050   2.369   4.617 -0.2545 -0.4625  0.3402
 4530SOL     OW15457   0.187   4.767   2.588  0.7508 -0.2075 -0.0755
 4530SOL    HW115458   0.257   4.706   2.610 -0.0860  0.3259  5.2782
 4530SOL    HW215459   0.225   4.854   2.601  0.1201  0.2723 -1.2189
 4531SOL     OW15460   3.544   7.986   1.084  0.8710  0.3732 -0.9698
 4531SOL    HW115461   3.607   8.024   1.145  1.9990 -0.1982 -1.7292
 4531SOL    HW215462   3.458   8.007   1.120  1.5019  1.2487  0.0527
 4532SOL     OW15463   7.754   8.543   2.149  0.2518 -0.1344  0.1702
 4532SOL    HW115464   7.803   8.625   2.163 -0.5422  0.4607 -0.4190
 4532SOL    HW215465   7.699   8.535   2.227  1.2892 -0.8292  0.8554
 4533SOL     OW15466   0.006   1.184   0.692 -0.1811  0.1519 -0.5604
 4533SOL    HW115467   0.034   1.195   0.783 -1.3622 -0.5159 -0.0991
 4533SOL    HW215468  -0.062   1.117   0.696  0.3430 -0.5101 -2.0573
 4534SOL     OW15469   4.383   0.190   0.281 -0.5857  0.0518  0.1226
 4534SOL    HW115470   4.365   0.271   0.233 -0.0005  0.2358  0.2058
 4534SOL    HW215471   4.298   0.163   0.316 -0.7598  0.7041  0.2073
 4535SOL     OW15472   7.059   5.284   1.195 -0.4571  0.6868 -0.1731
 4535SOL    HW115473   7.094   5.211   1.144 -0.0298  1.1160 -0.4981
 4535SOL    HW215474   7.022   5.343   1.130  0.7794  1.6146 -0.0625
 4536SOL     OW15475   6.843   8.786   6.816 -0.1789 -0.1998 -0.8270
 4536SOL    HW115476   6.913   8.847   6.794 -0.5141  0.7046  0.5093
 4536SOL    HW215477   6.787   8.834   6.877 -0.5656 -1.7608  0.1129
 4537SOL     OW15478   1.305   5.316   0.684  0.1990  0.5240 -0.7542
 4537SOL    HW115479   1.295   5.298   0.590 -1.0565 -1.9710 -0.2345
 4537SOL    HW215480   1.371   5.254   0.714  1.1932  1.8567 -0.0977
 4538SOL     OW15481   4.273   7.677   3.523  0.3779  0.3647 -0.1010
 4538SOL    HW115482   4.317   7.603   3.481  1.9057 -0.4831  2.7809
 4538SOL    HW215483   4.182   7.671   3.491  1.3290 -0.3048 -2.9939
 4539SOL     OW15484   5.095   7.066   3.596 -0.0741  0.5701 -0.2257
 4539SOL    HW115485   5.034   7.139   3.608 -0.5991  0.0877  0.1249
 4539SOL    HW215486   5.175   7.106   3.564 -0.4533  1.2659 -0.3248
 4540SOL     OW15487   0.573   4.079   5.132  0.7903 -0.4022  0.7131
 4540SOL    HW115488   0.663   4.108   5.120  0.7893 -0.0428  1.4794
 4540SOL    HW215489   0.522   4.160   5.136  0.3642 -0.6191 -0.1943
 4541SOL     OW15490   1.622   0.852   4.655  0.5886  0.7691  0.4233
 4541SOL    HW115491   1.585   0.863   4.742  0.7685  0.8844  0.4842
 4541SOL    HW215492   1.578   0.919   4.602  0.1180  0.3755  0.3132
 4542SOL     OW15493   8.826   4.285   5.655 -0.1256  0.0495 -0.1058
 4542SOL    HW115494   8.806   4.297   5.562 -0.9677  0.2177  0.0873
 4542SOL    HW215495   8.743   4.258   5.694  0.4100 -0.8168  0.4668
 4543SOL     OW15496   2.324   2.052   0.363 -0.0047  0.1322  0.0042
 4543SOL    HW115497   2.343   1.969   0.408  0.0402 -0.1251 -0.4899
 4543SOL    HW215498   2.347   2.036   0.272 -2.2143 -0.0556 -0.5644
 4544SOL     OW15499   1.910   6.114   6.388  0.1123  0.3736 -0.2047
 4544SOL    HW115500   1.951   6.049   6.331  0.2552 -1.3420  1.7373
 4544SOL    HW215501   1.853   6.164   6.330 -0.2156 -1.6638 -1.7693
 4545SOL     OW15502   7.236   2.981   0.493  0.1156  0.6302  0.5167
 4545SOL    HW115503   7.199   3.003   0.578 -0.9234 -0.5738  0.4080
 4545SOL    HW215504   7.161   2.955   0.440  0.9425 -0.4357 -0.1910
 4546SOL     OW15505   8.591   3.563   8.002 -0.0674 -0.8285  0.3032
 4546SOL    HW115506   8.599   3.653   7.972 -1.4957 -0.5832  0.5800
 4546SOL    HW215507   8.621   3.510   7.929  1.7726 -0.1216  0.5066
 4547SOL     OW15508   8.975   6.583   8.256 -0.7209  0.4472 -0.3129
 4547SOL    HW115509   9.058   6.576   8.303 -0.7089  3.6099  0.3804
 4547SOL    HW215510   8.995   6.555   8.167  1.8287  3.3387 -0.8146
 4548SOL     OW15511   4.653   6.376   4.364 -0.6221  0.4936 -0.2899
 4548SOL    HW115512   4.650   6.394   4.270  1.5716 -0.1874 -0.5694
 4548SOL    HW215513   4.589   6.435   4.403  0.3470  2.7898 -1.9512
 4549SOL     OW15514   2.417   1.529   6.967  0.1407  0.4807  0.0564
 4549SOL    HW115515   2.445   1.553   7.055  1.0186 -1.2452  0.2913
 4549SOL    HW215516   2.375   1.608   6.932  1.2883  1.7247  1.3795
 4550SOL     OW15517   7.958   5.741   5.983  0.0731 -0.4497 -0.2044
 4550SOL    HW115518   7.986   5.817   5.932 -0.2533 -0.4730 -0.4227
 4550SOL    HW215519   7.988   5.665   5.932  0.9185 -0.4682  0.3076
 4551SOL     OW15520   6.481   7.135   0.358  0.0887  0.4708  0.1403
 4551SOL    HW115521   6.568   7.172   0.342  0.3707 -0.4269 -0.5065
 4551SOL    HW215522   6.479   7.056   0.304 -1.4441  0.9281 -0.5341
 4552SOL     OW15523   6.086   0.335   4.539  0.2574  0.0597 -0.9327
 4552SOL    HW115524   6.110   0.243   4.548  0.0002 -0.0582 -1.4307
 4552SOL    HW215525   6.000   0.341   4.581 -0.2381 -0.1685 -1.8839
 4553SOL     OW15526   8.914   4.644   6.753 -0.1380  0.5554 -0.2985
 4553SOL    HW115527   8.828   4.607   6.775 -0.7114  3.0167  2.0716
 4553SOL    HW215528   8.976   4.589   6.801 -0.8125  1.3189  1.5630
 4554SOL     OW15529   5.193   5.634   1.846 -0.0452  0.1320  0.5843
 4554SOL    HW115530   5.236   5.560   1.804 -0.9238  0.1086 -0.3219
 4554SOL    HW215531   5.255   5.706   1.835  0.2954 -0.1856  0.3877
 4555SOL     OW15532   7.624   3.082   3.347  0.3085  0.2913  0.3211
 4555SOL    HW115533   7.697   3.105   3.289  0.7654  0.1815  0.8425
 4555SOL    HW215534   7.666   3.048   3.426 -0.3155 -1.6966 -0.1404
 4556SOL     OW15535   0.234   4.503   2.872  0.2002  0.5413  0.7852
 4556SOL    HW115536   0.279   4.515   2.956 -0.4245  0.4451  1.1363
 4556SOL    HW215537   0.150   4.547   2.883  0.9266  2.3317 -0.5069
 4557SOL     OW15538   3.856   6.079   8.098 -0.2424 -0.4089 -0.1475
 4557SOL    HW115539   3.763   6.076   8.078 -0.0697 -0.5871 -0.9750
 4557SOL    HW215540   3.861   6.070   8.193 -1.1175  0.5942  0.0170
 4558SOL     OW15541   3.439   5.183   0.530  0.7001  0.5502 -0.3880
 4558SOL    HW115542   3.488   5.104   0.508  0.7569  0.3841  0.2944
 4558SOL    HW215543   3.456   5.244   0.458 -0.6029 -0.5949 -1.7346
 4559SOL     OW15544   3.755   2.816   3.211  0.1866  0.0966 -0.3021
 4559SOL    HW115545   3.697   2.791   3.283  2.6823 -0.2149  1.7647
 4559SOL    HW215546   3.740   2.909   3.199 -0.9554 -0.0424 -0.0709
 4560SOL     OW15547   3.029   7.395   3.629 -0.1930  0.3194  0.5954
 4560SOL    HW115548   3.069   7.308   3.620  0.9266  0.6904  1.7870
 4560SOL    HW215549   3.090   7.454   3.585  0.4003  0.8379  2.0749
 4561SOL     OW15550   1.236   3.765   8.371  0.1691 -0.0997 -0.4590
 4561SOL    HW115551   1.261   3.678   8.401 -0.1139  0.4484  1.4831
 4561SOL    HW215552   1.313   3.819   8.386  0.4574 -0.0456 -1.9621
 4562SOL     OW15553   7.316   7.568   7.341 -0.3555  0.1383 -0.3793
 4562SOL    HW115554   7.367   7.519   7.405  0.1880  0.4597 -0.5584
 4562SOL    HW215555   7.381   7.602   7.280 -0.5042  2.4430  0.6277
 4563SOL     OW15556   5.392   5.365   3.465 -0.4924 -0.6812  0.2289
 4563SOL    HW115557   5.459   5.340   3.529 -0.3747  0.4144  0.5533
 4563SOL    HW215558   5.368   5.283   3.422  1.6257 -0.9862 -0.4611
 4564SOL     OW15559   0.833   5.167   6.527  0.3926  0.6366 -0.1879
 4564SOL    HW115560   0.770   5.152   6.456  2.6718 -1.3046 -1.9798
 4564SOL    HW215561   0.892   5.234   6.493  0.9178  0.4244  0.2970
 4565SOL     OW15562   0.925   1.607   6.040 -0.7548  0.3352 -0.2832
 4565SOL    HW115563   1.006   1.559   6.059 -1.4779 -0.3190  1.3599
 4565SOL    HW215564   0.857   1.541   6.049 -1.6810  1.4069  0.9427
 4566SOL     OW15565   3.058   0.360   5.181  0.5681 -0.2192  0.1732
 4566SOL    HW115566   3.082   0.322   5.265  2.1714  2.7728  1.2345
 4566SOL    HW215567   2.965   0.380   5.189 -0.5663 -4.2290 -0.7195
 4567SOL     OW15568   5.797   2.162   7.776 -0.2884 -0.2900  0.4859
 4567SOL    HW115569   5.864   2.231   7.777 -1.7599  1.2922 -0.8923
 4567SOL    HW215570   5.845   2.081   7.760  1.3036  0.8132 -0.6443
 4568SOL     OW15571   5.783   1.684   1.809  0.1796 -0.0830 -0.4526
 4568SOL    HW115572   5.702   1.700   1.858  0.5203 -1.0748  0.4527
 4568SOL    HW215573   5.844   1.650   1.873  0.8290 -0.8571 -1.4567
 4569SOL     OW15574   6.319   8.245   7.050 -0.1764  0.1577 -0.1092
 4569SOL    HW115575   6.310   8.157   7.086 -1.1694 -0.7342 -2.3361
 4569SOL    HW215576   6.410   8.249   7.020  0.2915  0.4564  1.3019
 4570SOL     OW15577   7.358   3.110   3.813 -0.2307  0.0228 -0.1494
 4570SOL    HW115578   7.272   3.067   3.816 -0.3982  0.2225 -1.3299
 4570SOL    HW215579   7.403   3.081   3.892 -0.2155 -2.5901 -1.0299
 4571SOL     OW15580   6.586   1.799   8.921 -0.4840  0.1410 -0.2936
 4571SOL    HW115581   6.492   1.786   8.911 -0.5652  1.2018 -1.0952
 4571SOL    HW215582   6.610   1.860   8.850  1.4768 -2.9187 -2.5193
 4572SOL     OW15583   4.968   8.529   0.804  0.7261 -0.2859 -0.7545
 4572SOL    HW115584   4.985   8.495   0.716 -0.2126 -1.7023 -0.4187
 4572SOL    HW215585   5.038   8.492   0.858  0.9802  0.1311 -0.7947
 4573SOL     OW15586   4.340   1.212   0.401  0.2612  0.7775  0.5437
 4573SOL    HW115587   4.267   1.160   0.436  1.0687  0.8829  2.5174
 4573SOL    HW215588   4.402   1.146   0.370 -0.9505  0.6915 -1.9069
 4574SOL     OW15589   0.887   1.319   1.353 -0.0232  0.1965  0.2099
 4574SOL    HW115590   0.821   1.345   1.289 -0.3147  0.4044  0.5882
 4574SOL    HW215591   0.969   1.354   1.319 -0.5355  2.5287  1.1759
 4575SOL     OW15592   4.099   2.475   5.810 -0.0969  0.1266  0.6276
 4575SOL    HW115593   4.150   2.395   5.826 -0.4349 -0.3338 -0.5295
 4575SOL    HW215594   4.150   2.523   5.744  0.3706  1.1380  1.6826
 4576SOL     OW15595   4.195   4.143   7.084  0.6657 -0.0225 -0.4201
 4576SOL    HW115596   4.227   4.054   7.093  2.7947  0.5775 -1.4782
 4576SOL    HW215597   4.127   4.151   7.151 -0.9679 -2.9854 -1.5241
 4577SOL     OW15598   2.992   8.172   4.125 -0.1925 -0.3157 -0.5876
 4577SOL    HW115599   2.986   8.229   4.201  2.7409  2.7480 -2.3928
 4577SOL    HW215600   3.066   8.114   4.144  0.6746  0.5899 -1.1195
 4578SOL     OW15601   7.471   3.978   5.392  0.6360  0.1242  0.2402
 4578SOL    HW115602   7.518   4.060   5.412 -0.6653  0.4690  2.1926
 4578SOL    HW215603   7.522   3.910   5.436 -0.2897  0.4291  1.8831
 4579SOL     OW15604   3.990   3.959   1.299  0.5320  0.6004 -0.1526
 4579SOL    HW115605   4.068   3.905   1.312 -1.3145 -2.2136  0.2164
 4579SOL    HW215606   3.991   3.980   1.205 -0.0961 -2.6648 -1.0145
 4580SOL     OW15607   8.630   4.493   6.503 -0.2687  0.0171  0.0621
 4580SOL    HW115608   8.689   4.476   6.430 -1.3013  1.2204 -1.0986
 4580SOL    HW215609   8.653   4.426   6.568  2.3638  0.4370 -0.3002
 4581SOL     OW15610   2.849   8.735   0.884  0.0743 -0.2730  0.6043
 4581SOL    HW115611   2.782   8.709   0.822 -1.0361  0.3926  1.4878
 4581SOL    HW215612   2.893   8.653   0.908 -0.3349 -0.6985 -0.0716
 4582SOL     OW15613   2.751   2.970   4.764 -0.2162  0.1279  0.2478
 4582SOL    HW115614   2.834   2.933   4.733 -0.6097  0.8897 -1.8657
 4582SOL    HW215615   2.735   3.045   4.707 -1.2915  1.3296  2.0454
 4583SOL     OW15616   7.717   3.008   2.227  0.5554  0.0406 -0.4219
 4583SOL    HW115617   7.703   2.959   2.308  0.7428  2.1579  0.9710
 4583SOL    HW215618   7.631   3.011   2.187  0.4852 -1.1569 -0.4222
 4584SOL     OW15619   7.878   0.736   6.946 -0.1636 -0.5748  0.2747
 4584SOL    HW115620   7.901   0.828   6.932 -0.7185 -0.2834  1.1459
 4584SOL    HW215621   7.784   0.732   6.927 -0.3013 -0.7863  0.9453
 4585SOL     OW15622   1.903   4.473   1.902 -0.7459  0.3918  0.2982
 4585SOL    HW115623   1.811   4.487   1.879 -0.3661  0.4105 -1.2863
 4585SOL    HW215624   1.904   4.385   1.941 -1.2651 -0.0793 -0.7138
 4586SOL     OW15625   3.826   5.555   6.138 -0.1549 -0.2209  0.2215
 4586SOL    HW115626   3.865   5.580   6.054  2.6477 -0.6936  1.2738
 4586SOL    HW215627   3.854   5.464   6.152 -2.1866 -0.8075  0.8356
 4587SOL     OW15628   6.406   2.002   1.290  0.2878  0.6372 -0.5035
 4587SOL    HW115629   6.322   1.958   1.274  0.2106  0.6656 -0.1869
 4587SOL    HW215630   6.470   1.948   1.244 -0.0934  1.5028 -2.1186
 4588SOL     OW15631   3.882   7.226   4.900 -0.0390 -0.6825  0.2232
 4588SOL    HW115632   3.873   7.131   4.894 -1.8774 -0.6170  1.0602
 4588SOL    HW215633   3.925   7.241   4.984  0.2258 -0.7670  0.1035
 4589SOL     OW15634   2.903   1.614   0.882  0.0740  0.3802  0.0263
 4589SOL    HW115635   2.954   1.694   0.869 -0.5048  0.6786 -0.4934
 4589SOL    HW215636   2.969   1.545   0.893  0.6417  0.5303 -1.9933
 4590SOL     OW15637   3.252   4.261   5.027  0.2653  0.4322 -0.8926
 4590SOL    HW115638   3.291   4.225   5.107 -1.4821 -1.3831 -0.7710
 4590SOL    HW215639   3.292   4.211   4.956  1.3306  1.5930 -1.1375
 4591SOL     OW15640   3.644   4.565   7.462 -0.1994 -0.0545  0.1743
 4591SOL    HW115641   3.574   4.500   7.472 -0.9102  0.7347  0.3658
 4591SOL    HW215642   3.682   4.546   7.376 -1.0195 -0.1296 -0.1798
 4592SOL     OW15643   7.976   8.155   2.794  0.0147  0.2157 -0.2247
 4592SOL    HW115644   8.020   8.184   2.874  0.0939  0.4466 -0.3509
 4592SOL    HW215645   7.883   8.168   2.812  0.1005  1.8693 -0.7786
 4593SOL     OW15646   8.710   5.764   8.430 -0.0154  0.1754 -0.0091
 4593SOL    HW115647   8.661   5.839   8.397  1.3878  1.1346  0.0425
 4593SOL    HW215648   8.688   5.760   8.523 -2.4719 -1.3807 -0.5430
 4594SOL     OW15649   5.660   4.642   2.334  0.2583 -0.0528  0.2569
 4594SOL    HW115650   5.701   4.658   2.249  0.6567  0.2245  0.4984
 4594SOL    HW215651   5.669   4.725   2.380 -2.6031  0.8053 -0.5035
 4595SOL     OW15652   6.133   4.960   7.751 -0.3637 -0.2678  0.7297
 4595SOL    HW115653   6.145   4.868   7.776 -0.5535 -0.1822  1.1474
 4595SOL    HW215654   6.219   4.987   7.718 -0.2631 -0.5496  0.7540
 4596SOL     OW15655   3.219   6.918   6.895 -0.0951  0.2060 -0.3712
 4596SOL    HW115656   3.146   6.856   6.887 -0.2654  0.4726 -0.8934
 4596SOL    HW215657   3.244   6.939   6.805 -0.3480  1.2512 -0.2177
 4597SOL     OW15658   4.418   0.263   6.388  0.0905 -0.0247  0.4400
 4597SOL    HW115659   4.481   0.277   6.317  0.9905  1.0024  1.4106
 4597SOL    HW215660   4.360   0.194   6.355  1.5407 -0.8052 -0.5999
 4598SOL     OW15661   4.374   0.538   0.578 -0.5506 -0.2208 -0.2559
 4598SOL    HW115662   4.315   0.477   0.623 -1.9721  0.8044 -0.6329
 4598SOL    HW215663   4.318   0.581   0.513  0.5932  0.8938 -0.5423
 4599SOL     OW15664   5.809   3.488   8.212 -0.3553 -0.1004  0.0790
 4599SOL    HW115665   5.734   3.537   8.243 -0.4772 -0.8111  0.9800
 4599SOL    HW215666   5.870   3.487   8.286 -0.6018 -1.7597  0.3091
 4600SOL     OW15667   8.622   5.602   7.453  0.0558 -0.1323 -0.1416
 4600SOL    HW115668   8.532   5.620   7.478  0.0944 -0.5688  0.3422
 4600SOL    HW215669   8.672   5.611   7.534  0.4972  0.4019 -0.4639
 4601SOL     OW15670   5.607   4.951   4.179 -0.4984  0.3000  0.6221
 4601SOL    HW115671   5.641   4.972   4.267  1.0187  3.6253 -0.5942
 4601SOL    HW215672   5.553   5.026   4.156  1.4375  0.9523 -2.3228
 4602SOL     OW15673   1.771   2.567   4.813  0.7213  0.4334 -0.1409
 4602SOL    HW115674   1.824   2.579   4.892  1.6548 -3.3232 -0.0067
 4602SOL    HW215675   1.681   2.583   4.842  1.0885 -0.4740  1.6338
 4603SOL     OW15676   8.456   1.970   2.133  0.0489  0.3890 -0.1684
 4603SOL    HW115677   8.488   2.060   2.124  2.1695 -0.3297 -0.3472
 4603SOL    HW215678   8.423   1.965   2.223  1.5021  0.8956  0.4153
 4604SOL     OW15679   4.481   6.323   4.752 -0.2223 -0.3416  0.7108
 4604SOL    HW115680   4.442   6.236   4.741 -0.3166 -0.0626 -1.7269
 4604SOL    HW215681   4.423   6.382   4.704  0.3597  0.9222  1.5035
 4605SOL     OW15682   4.875   0.091   2.115  0.3714 -0.1211 -0.2163
 4605SOL    HW115683   4.869   0.058   2.204 -1.2041  0.4056 -0.0973
 4605SOL    HW215684   4.933   0.167   2.121  0.6025 -0.3352  0.2779
 4606SOL     OW15685   7.022   8.421   4.011  0.2098  0.3592  0.3851
 4606SOL    HW115686   7.075   8.446   4.087  0.1272 -0.0474  0.5811
 4606SOL    HW215687   7.000   8.329   4.027  1.4864 -0.2059 -0.8948
 4607SOL     OW15688   7.023   8.280   6.981 -0.1003 -0.6299  0.5518
 4607SOL    HW115689   6.997   8.345   7.045  3.7210  1.0552  0.6863
 4607SOL    HW215690   6.947   8.271   6.923 -2.1600  0.9170  2.8284
 4608SOL     OW15691   6.304   4.894   6.269 -0.3349  0.3715 -0.0734
 4608SOL    HW115692   6.320   4.930   6.356  0.0241  2.4519 -0.9369
 4608SOL    HW215693   6.212   4.867   6.271  0.0753 -1.1096  1.3917
 4609SOL     OW15694   5.001   5.627   7.621 -0.1986 -0.0083  0.0270
 4609SOL    HW115695   4.978   5.545   7.665  0.7234  0.3913  1.2859
 4609SOL    HW215696   5.087   5.610   7.582 -1.1740 -0.4976 -2.0677
 4610SOL     OW15697   3.412   5.837   8.545  0.0184  0.1589  0.4614
 4610SOL    HW115698   3.376   5.867   8.461  0.3867  0.8492  0.5454
 4610SOL    HW215699   3.379   5.748   8.554  1.0227 -0.4217 -1.0547
 4611SOL     OW15700   7.840   6.172   5.698  0.5859  0.0660  0.1333
 4611SOL    HW115701   7.769   6.166   5.635  0.3969  1.8777  0.1198
 4611SOL    HW215702   7.810   6.236   5.762  1.5804 -0.2867  0.9844
 4612SOL     OW15703   6.761   2.213   1.042 -0.1774  0.7249 -0.3910
 4612SOL    HW115704   6.737   2.246   0.955  4.4924  1.2618 -1.7744
 4612SOL    HW215705   6.780   2.120   1.028  1.0653  0.9182 -0.1466
 4613SOL     OW15706   5.836   2.445   5.081 -0.0157  0.1284  0.0366
 4613SOL    HW115707   5.808   2.536   5.073  0.8812  0.4003 -0.1198
 4613SOL    HW215708   5.822   2.423   5.173  1.1276  0.9008  0.4146
 4614SOL     OW15709   0.600   3.260   1.545 -0.3855  0.5292  0.4034
 4614SOL    HW115710   0.639   3.326   1.602 -0.2777  1.5469 -0.8016
 4614SOL    HW215711   0.533   3.307   1.497 -0.7342 -0.3962 -0.0395
 4615SOL     OW15712   7.377   8.384   5.667 -0.8402 -0.0921 -0.6621
 4615SOL    HW115713   7.437   8.311   5.686 -1.3251 -0.4198 -0.3552
 4615SOL    HW215714   7.425   8.440   5.606 -0.9847 -1.4237 -2.0836
 4616SOL     OW15715   5.888   2.956   8.448 -0.3432  0.1522 -0.1823
 4616SOL    HW115716   5.912   2.883   8.505  0.2422 -0.1542 -0.8094
 4616SOL    HW215717   5.807   2.928   8.406 -0.9073  0.4739  0.6456
 4617SOL     OW15718   0.891   8.429   6.377  0.0883 -0.3151 -0.3840
 4617SOL    HW115719   0.863   8.475   6.298  1.9044  1.3141 -0.1488
 4617SOL    HW215720   0.830   8.458   6.445 -0.1958 -0.0719 -0.7394
 4618SOL     OW15721   7.312   2.966   4.219  0.2138  0.1083  0.3548
 4618SOL    HW115722   7.340   2.976   4.310 -0.0167  0.1935  0.4162
 4618SOL    HW215723   7.233   3.019   4.213 -0.3319 -0.6898  0.3592
 4619SOL     OW15724   7.054   8.760   2.287  0.3009 -0.1134 -0.2305
 4619SOL    HW115725   6.981   8.819   2.270 -1.1374 -2.2946 -2.3189
 4619SOL    HW215726   7.112   8.771   2.211  2.2608  1.5685  1.3831
 4620SOL     OW15727   5.260   1.610   6.642 -0.1994 -0.2945 -0.1896
 4620SOL    HW115728   5.326   1.625   6.710 -2.7413  1.2717  2.1592
 4620SOL    HW215729   5.214   1.530   6.670 -1.3183  0.4100  0.0816
 4621SOL     OW15730   8.507   2.948   2.928 -0.0982 -0.2548  0.0982
 4621SOL    HW115731   8.536   2.863   2.895 -0.4611 -0.9929  1.5742
 4621SOL    HW215732   8.492   2.933   3.022 -1.5940  1.0701  0.0999
 4622SOL     OW15733   0.532   4.077   2.451 -0.6819  0.3087  0.4916
 4622SOL    HW115734   0.541   4.127   2.370  0.7647 -1.5732 -0.5992
 4622SOL    HW215735   0.478   4.002   2.427 -1.9783  0.7846  1.8314
 4623SOL     OW15736   5.585   8.217   5.748 -0.0843  0.1125 -0.4181
 4623SOL    HW115737   5.633   8.185   5.824  0.3680 -0.1434 -0.8004
 4623SOL    HW215738   5.602   8.311   5.746 -1.7789  0.4869  0.9656
 4624SOL     OW15739   6.577   4.768   5.629  0.3760  0.2173  0.3003
 4624SOL    HW115740   6.544   4.685   5.663  1.8807 -0.6472 -0.2482
 4624SOL    HW215741   6.515   4.790   5.559 -1.3338  0.7727  1.8966
 4625SOL     OW15742   1.076   3.676   3.036 -0.1894 -0.1618 -0.1987
 4625SOL    HW115743   1.101   3.768   3.025  0.0551 -0.4513 -2.7011
 4625SOL    HW215744   0.981   3.676   3.024 -0.3145 -0.1452  0.7235
 4626SOL     OW15745   5.001   0.179   2.899 -0.2949  0.2041  0.8118
 4626SOL    HW115746   5.044   0.123   2.835 -0.4228  0.8353  0.1619
 4626SOL    HW215747   4.945   0.236   2.847 -1.2704 -0.0275  1.5704
 4627SOL     OW15748   4.148   2.037   8.048 -0.1898 -0.4208  0.3774
 4627SOL    HW115749   4.216   2.049   8.114 -0.2220 -1.0608  0.5323
 4627SOL    HW215750   4.187   1.977   7.984 -0.5235 -0.6166  0.3527
 4628SOL     OW15751   4.620   6.305   1.564 -0.2710  0.2806 -0.3508
 4628SOL    HW115752   4.560   6.237   1.533 -0.5051 -0.0759  0.8431
 4628SOL    HW215753   4.596   6.319   1.655 -1.6172  3.4890 -1.0900
 4629SOL     OW15754   8.778   3.327   7.040 -0.2493  0.6620  0.3213
 4629SOL    HW115755   8.845   3.326   7.109  0.8610 -1.0886 -0.7239
 4629SOL    HW215756   8.701   3.287   7.081  0.6994 -1.2804  0.3302
 4630SOL     OW15757   8.993   5.569   6.621  0.5503 -0.3990  0.0428
 4630SOL    HW115758   8.978   5.509   6.548 -0.8954  1.1732 -1.0515
 4630SOL    HW215759   9.040   5.643   6.582  0.5645  0.0571  0.8990
 4631SOL     OW15760   2.568   2.746   5.125  0.0626 -0.5284 -0.3401
 4631SOL    HW115761   2.549   2.677   5.062 -1.9470  0.0587 -0.4674
 4631SOL    HW215762   2.575   2.826   5.073  0.7640 -0.3958 -0.0483
 4632SOL     OW15763   5.676   6.394   3.252 -0.5477 -0.9623  0.1309
 4632SOL    HW115764   5.699   6.395   3.345  0.8009 -1.1873 -0.1741
 4632SOL    HW215765   5.627   6.476   3.238  1.1207  0.1771  0.6197
 4633SOL     OW15766   2.248   5.468   1.617  0.0471  0.7824  0.2819
 4633SOL    HW115767   2.335   5.506   1.603  0.1746  1.3188  2.2079
 4633SOL    HW215768   2.197   5.495   1.541  1.2405  1.4927 -0.2925
 4634SOL     OW15769   2.052   8.991   1.179  0.5132  0.4072 -0.7135
 4634SOL    HW115770   2.065   8.939   1.259 -2.0106 -0.1870 -0.6094
 4634SOL    HW215771   2.119   9.059   1.184  2.8994 -1.7883 -0.0136
 4635SOL     OW15772   5.988   6.160   8.391 -0.0760 -0.1895  0.4269
 4635SOL    HW115773   6.048   6.087   8.378  1.4985  1.1837 -0.3397
 4635SOL    HW215774   5.912   6.138   8.338  1.4662 -0.0819 -1.9428
 4636SOL     OW15775   3.054   3.132   4.005 -0.3280 -0.1356 -1.0070
 4636SOL    HW115776   3.045   3.146   4.099  1.0527  0.2601 -0.9082
 4636SOL    HW215777   3.138   3.088   3.995 -0.5787 -0.4097 -2.0407
 4637SOL     OW15778   7.875   2.553   1.802  0.0385  0.2656  0.3429
 4637SOL    HW115779   7.881   2.575   1.895 -1.2606  0.1233  0.4785
 4637SOL    HW215780   7.786   2.519   1.791  0.5840 -0.9100 -0.7066
 4638SOL     OW15781   1.773   6.274   2.584 -0.0201 -0.4163 -0.0925
 4638SOL    HW115782   1.793   6.357   2.627  1.2216 -1.7046  1.9640
 4638SOL    HW215783   1.803   6.286   2.494  2.0658  0.7047  0.6859
 4639SOL     OW15784   6.239   2.282   0.757  0.1642  0.2934  0.3647
 4639SOL    HW115785   6.253   2.199   0.803 -2.1033  0.0342  0.7174
 4639SOL    HW215786   6.315   2.336   0.781  0.0808 -0.5516  2.7896
 4640SOL     OW15787   6.621   3.630   5.110  0.1555  0.0181 -0.1700
 4640SOL    HW115788   6.617   3.601   5.202  0.3332 -3.0090 -1.0129
 4640SOL    HW215789   6.715   3.637   5.091  0.1201  0.5614 -0.1563
 4641SOL     OW15790   8.396   1.984   4.588 -0.0982  0.2554  0.1225
 4641SOL    HW115791   8.352   1.947   4.511 -0.6375 -0.6628  0.8594
 4641SOL    HW215792   8.461   2.044   4.551 -0.2345 -0.2935 -1.0606
 4642SOL     OW15793   6.203   6.410   0.713  0.0896 -0.5002 -0.1443
 4642SOL    HW115794   6.249   6.435   0.633  1.6356 -1.1598  0.4835
 4642SOL    HW215795   6.150   6.335   0.689 -0.1638 -0.1266 -0.7550
 4643SOL     OW15796   7.262   3.634   4.700 -0.0585 -0.3107 -0.4156
 4643SOL    HW115797   7.271   3.683   4.618 -0.5176 -0.1968 -0.3968
 4643SOL    HW215798   7.272   3.700   4.768  1.1522 -0.5258 -0.3510
 4644SOL     OW15799   0.694   7.901   8.950 -0.0500 -0.7526  0.4055
 4644SOL    HW115800   0.700   7.988   8.912 -1.3880 -0.6298  0.4365
 4644SOL    HW215801   0.666   7.916   9.040  0.5923 -1.1816  0.6889
 4645SOL     OW15802   6.765   3.823   3.917  0.7436 -0.3467 -0.0959
 4645SOL    HW115803   6.857   3.849   3.920  0.3089  1.5117 -1.1533
 4645SOL    HW215804   6.727   3.877   3.848 -1.3429 -0.4523  0.8922
 4646SOL     OW15805   2.489   0.321   4.402  0.1340  0.3332  0.1343
 4646SOL    HW115806   2.536   0.244   4.373  0.7462  0.5265  0.5863
 4646SOL    HW215807   2.557   0.387   4.416 -0.3089  0.7382  0.4239
 4647SOL     OW15808   2.841   6.486   6.865 -0.2369 -0.2736  0.7248
 4647SOL    HW115809   2.877   6.407   6.826  0.2420  0.4251 -0.3015
 4647SOL    HW215810   2.829   6.464   6.957  2.3823 -0.6989  1.0442
 4648SOL     OW15811   8.093   3.245   2.495 -0.1689  0.0018 -0.2903
 4648SOL    HW115812   8.012   3.238   2.444  0.2757 -0.9606 -0.8832
 4648SOL    HW215813   8.082   3.181   2.566 -0.6764  1.1538  0.7181
 4649SOL     OW15814   6.080   6.586   8.550  0.3160  0.6758 -0.6504
 4649SOL    HW115815   6.072   6.531   8.472  4.1700  0.1134 -0.8442
 4649SOL    HW215816   6.056   6.528   8.623 -2.3439  0.9213 -1.2307
 4650SOL     OW15817   3.133   1.882   1.114 -0.4881  0.1957  0.1746
 4650SOL    HW115818   3.051   1.930   1.124 -0.3606  0.7132 -1.0862
 4650SOL    HW215819   3.133   1.853   1.022  1.1157  0.9489 -0.0961
 4651SOL     OW15820   0.924   3.599   4.846 -0.2277 -0.3041 -0.4098
 4651SOL    HW115821   1.017   3.578   4.842 -0.0728  0.3012 -0.2647
 4651SOL    HW215822   0.902   3.632   4.759  0.4977  2.5826  0.3785
 4652SOL     OW15823   5.495   4.230   8.913 -0.0091  0.0428  0.0237
 4652SOL    HW115824   5.460   4.230   9.002  0.9719 -0.4189  0.4244
 4652SOL    HW215825   5.466   4.147   8.876  0.7405 -0.4072  0.4056
 4653SOL     OW15826   7.246   5.698   3.934 -0.5218  0.5172  0.1024
 4653SOL    HW115827   7.260   5.785   3.972  1.2255 -0.2983  1.5188
 4653SOL    HW215828   7.195   5.651   4.000  1.2820 -0.4610  0.8882
 4654SOL     OW15829   6.044   0.778   3.614 -0.2543 -0.5832 -0.4891
 4654SOL    HW115830   5.962   0.743   3.578 -1.4063  0.1780  1.2544
 4654SOL    HW215831   6.028   0.784   3.708  1.2924  0.9381 -0.2752
 4655SOL     OW15832   8.943   5.441   2.740 -0.0306 -0.4352 -0.2882
 4655SOL    HW115833   9.014   5.500   2.716 -0.5926 -0.1065 -1.1838
 4655SOL    HW215834   8.923   5.393   2.660 -1.1057 -0.2069 -0.1729
 4656SOL     OW15835   2.409   1.930   8.227 -0.4084 -0.1121 -0.0212
 4656SOL    HW115836   2.489   1.898   8.185  1.3138 -0.2764  3.0692
 4656SOL    HW215837   2.387   2.010   8.180  0.9290 -0.6665 -1.6529
 4657SOL     OW15838   2.520   5.414   2.629  0.3285 -0.0194 -0.1170
 4657SOL    HW115839   2.528   5.396   2.722  0.9633  2.5184  0.3915
 4657SOL    HW215840   2.590   5.476   2.610 -0.9811  1.0532 -1.8347
 4658SOL     OW15841   6.147   6.795   6.294  0.2821 -0.1863 -0.5149
 4658SOL    HW115842   6.164   6.767   6.384  0.3196 -0.3581 -0.5746
 4658SOL    HW215843   6.153   6.891   6.297 -0.2167 -0.1595 -0.2331
 4659SOL     OW15844   4.426   8.278   7.501  0.1006 -0.7242  0.3712
 4659SOL    HW115845   4.388   8.366   7.498  0.6941 -0.4977 -1.6219
 4659SOL    HW215846   4.510   8.290   7.544  0.2766 -0.2620 -0.0884
 4660SOL     OW15847   3.844   1.962   0.785  0.4176  0.4397 -0.1956
 4660SOL    HW115848   3.936   1.987   0.785  0.6945 -0.5136  0.8537
 4660SOL    HW215849   3.844   1.867   0.793 -0.6613  0.5009  0.8235
 4661SOL     OW15850   0.563   7.139   4.685 -0.3002 -0.3862  0.2934
 4661SOL    HW115851   0.564   7.135   4.781 -2.3055  0.0836  0.3640
 4661SOL    HW215852   0.530   7.053   4.658 -0.4309 -0.2536  0.0368
 4662SOL     OW15853   3.545   0.395   5.569 -0.2754 -0.4796  0.5689
 4662SOL    HW115854   3.449   0.397   5.571 -0.3151 -0.5929 -0.5021
 4662SOL    HW215855   3.570   0.486   5.583 -0.5518 -0.3981  0.5548
 4663SOL     OW15856   8.436   6.507   4.732 -0.0358  0.0954  0.6014
 4663SOL    HW115857   8.438   6.411   4.736 -1.0844 -0.0381 -0.8941
 4663SOL    HW215858   8.518   6.531   4.689  0.5001 -0.0746  1.5100
 4664SOL     OW15859   3.259   7.747   4.206  0.3673 -0.4112  0.3241
 4664SOL    HW115860   3.328   7.705   4.257 -0.2161 -0.5244  1.0484
 4664SOL    HW215861   3.290   7.744   4.116  1.4230 -0.2182  0.6610
 4665SOL     OW15862   2.570   0.834   1.797  0.5805 -0.7504  0.2373
 4665SOL    HW115863   2.619   0.881   1.729 -1.3433  0.2434 -0.5362
 4665SOL    HW215864   2.481   0.870   1.792 -0.8291 -3.9271  0.1317
 4666SOL     OW15865   3.638   8.071   1.618 -0.0720 -0.2517  0.1558
 4666SOL    HW115866   3.649   8.165   1.612 -1.1702 -0.0191  1.2626
 4666SOL    HW215867   3.691   8.044   1.693 -0.1596 -0.4296  0.1569
 4667SOL     OW15868   7.438   8.167   3.489 -0.4370  0.7151 -0.0513
 4667SOL    HW115869   7.410   8.246   3.535 -2.5959 -0.4011  0.6689
 4667SOL    HW215870   7.407   8.094   3.543  1.8911 -0.6733 -0.4623
 4668SOL     OW15871   4.020   8.887   1.411  0.3274  0.1797  0.2222
 4668SOL    HW115872   4.023   8.876   1.506 -1.9635  0.7924  0.4246
 4668SOL    HW215873   4.025   8.982   1.398  0.1775  0.1254 -0.2416
 4669SOL     OW15874   3.639   1.537   2.185 -0.1370 -0.3184  0.3163
 4669SOL    HW115875   3.719   1.559   2.232  0.5900 -1.0227 -0.5528
 4669SOL    HW215876   3.598   1.622   2.166  0.0974  0.0176  1.2701
 4670SOL     OW15877   1.943   2.007   4.826 -0.7160  0.7955 -0.3957
 4670SOL    HW115878   1.926   1.986   4.918 -1.9993 -0.0400 -0.7988
 4670SOL    HW215879   1.887   1.947   4.777  1.3656 -0.1384 -1.7916
 4671SOL     OW15880   5.977   0.726   1.675 -0.0251 -0.8082  0.0259
 4671SOL    HW115881   6.000   0.756   1.763  0.8386 -0.9978 -0.1219
 4671SOL    HW215882   5.983   0.630   1.680  2.2295 -0.7835 -0.7689
 4672SOL     OW15883   3.044   8.821   6.420 -0.4207  0.1532  0.2959
 4672SOL    HW115884   3.052   8.757   6.349 -0.8295 -0.4866  0.8089
 4672SOL    HW215885   3.125   8.873   6.416 -0.4576  0.1430 -0.6463
 4673SOL     OW15886   6.118   2.345   5.361 -0.3017 -0.0162  0.1634
 4673SOL    HW115887   6.051   2.283   5.390 -1.0379  0.1351 -1.1451
 4673SOL    HW215888   6.191   2.290   5.332 -0.2919 -0.2158  0.5613
 4674SOL     OW15889   3.492   6.508   4.497 -0.3410 -0.2049  0.1872
 4674SOL    HW115890   3.585   6.532   4.499 -0.1785 -0.7561 -0.5362
 4674SOL    HW215891   3.486   6.440   4.431 -0.6412 -2.7295  2.6348
 4675SOL     OW15892   7.305   5.310   7.954 -0.2886  0.3389  0.3273
 4675SOL    HW115893   7.234   5.363   7.920 -0.5041 -0.0077  0.2266
 4675SOL    HW215894   7.367   5.304   7.881 -0.8364 -0.5551 -0.0817
 4676SOL     OW15895   6.003   4.657   5.046 -0.3310  0.3274 -0.3531
 4676SOL    HW115896   5.971   4.620   4.964  2.3999  0.5559 -1.6277
 4676SOL    HW215897   6.026   4.581   5.099  0.3051  0.1625 -0.8529
 4677SOL     OW15898   0.844   8.974   6.122 -0.9014 -0.0207  0.3096
 4677SOL    HW115899   0.768   9.032   6.116 -1.0444 -0.2087  0.2766
 4677SOL    HW215900   0.880   8.972   6.034 -1.3407 -0.5705  0.1386
 4678SOL     OW15901   2.103   4.651   6.983 -0.2539 -0.8451  0.2831
 4678SOL    HW115902   2.060   4.737   6.988  0.5521 -0.1640 -2.5312
 4678SOL    HW215903   2.176   4.656   7.045  0.6951  1.1535 -0.8944
 4679SOL     OW15904   8.962   1.462   3.351  0.3619  0.0831  0.2449
 4679SOL    HW115905   9.053   1.450   3.378  0.5366 -0.1675 -0.4184
 4679SOL    HW215906   8.913   1.396   3.400  0.9767 -1.8270 -1.5669
 4680SOL     OW15907   5.357   8.512   5.668 -0.0656  0.3623  0.5659
 4680SOL    HW115908   5.293   8.456   5.714  1.7178 -2.5984 -0.2992
 4680SOL    HW215909   5.315   8.533   5.585  0.7833 -3.7224 -1.1496
 4681SOL     OW15910   2.379   2.606   3.200  0.4063 -0.0391 -0.3233
 4681SOL    HW115911   2.407   2.565   3.282  1.6772  1.2721 -0.0601
 4681SOL    HW215912   2.355   2.695   3.224  1.4065  0.5733 -1.4451
 4682SOL     OW15913   4.995   1.191   8.283 -0.4421  0.7622 -0.3342
 4682SOL    HW115914   5.019   1.114   8.336  0.2784  1.3647  0.2440
 4682SOL    HW215915   5.078   1.237   8.269 -1.0447  2.1422  0.4582
 4683SOL     OW15916   4.685   6.364   7.213 -0.5860  0.0645 -0.5928
 4683SOL    HW115917   4.627   6.316   7.154  0.4534 -2.5099  0.3725
 4683SOL    HW215918   4.770   6.321   7.204  0.2070  1.1903  0.9710
 4684SOL     OW15919   2.301   7.531   7.100  0.1193  0.1449 -0.1386
 4684SOL    HW115920   2.248   7.497   7.028 -2.5610  1.9710  0.8135
 4684SOL    HW215921   2.312   7.624   7.080  2.5416 -0.0577  0.0200
 4685SOL     OW15922   3.815   7.053   8.776 -0.7936  0.0990  0.1049
 4685SOL    HW115923   3.835   7.002   8.855  0.1119  0.3623  0.0572
 4685SOL    HW215924   3.732   7.096   8.796 -1.6082 -1.4234  0.1188
 4686SOL     OW15925   8.073   5.698   0.875  0.3788 -0.6541  0.3762
 4686SOL    HW115926   8.087   5.687   0.781  0.9760 -2.1556  0.6100
 4686SOL    HW215927   8.136   5.638   0.916  0.4891  0.3491  1.7516
 4687SOL     OW15928   8.015   7.992   6.114 -0.2499 -0.0021  0.1232
 4687SOL    HW115929   8.010   7.972   6.207  0.2055  0.2480  0.2043
 4687SOL    HW215930   8.069   8.071   6.108 -1.6270  0.9421 -0.2427
 4688SOL     OW15931   4.823   4.293   5.876  0.4032  0.5658 -0.0110
 4688SOL    HW115932   4.887   4.313   5.944  0.0267  0.2050  0.4581
 4688SOL    HW215933   4.865   4.227   5.821 -0.4349 -1.5408  1.7190
 4689SOL     OW15934   4.242   5.893   5.306 -0.1351  0.2917 -0.0837
 4689SOL    HW115935   4.225   5.807   5.346  1.1920 -0.3355 -0.8163
 4689SOL    HW215936   4.238   5.877   5.212 -1.8808  1.4788 -0.2608
 4690SOL     OW15937   3.013   1.550   8.861 -0.6040  0.5218 -0.2356
 4690SOL    HW115938   3.087   1.598   8.825 -0.8459  1.1736  0.1223
 4690SOL    HW215939   2.938   1.609   8.852 -0.6659  0.7277  1.3472
 4691SOL     OW15940   7.415   1.927   1.305 -0.7317 -0.3745 -0.0149
 4691SOL    HW115941   7.471   1.862   1.263  0.4333  0.3012  0.4561
 4691SOL    HW215942   7.382   1.884   1.383  0.3389 -0.2904  0.4949
 4692SOL     OW15943   4.617   8.296   3.147  0.0327 -0.2431  0.2944
 4692SOL    HW115944   4.650   8.382   3.120  0.3367  0.5763  3.0282
 4692SOL    HW215945   4.523   8.299   3.128  0.2749  0.1174 -0.9402
 4693SOL     OW15946   8.488   7.958   2.622  0.3045 -0.2511 -0.1906
 4693SOL    HW115947   8.489   7.911   2.539  1.9460  1.1650 -1.0343
 4693SOL    HW215948   8.406   8.008   2.620  1.4176  1.6238 -2.1017
 4694SOL     OW15949   6.725   3.380   1.947  0.6030 -0.1897 -0.1382
 4694SOL    HW115950   6.671   3.332   1.884 -0.1982 -0.2143  0.5576
 4694SOL    HW215951   6.690   3.469   1.946  0.8563 -0.0880 -0.0339
 4695SOL     OW15952   8.304   7.041   3.156  0.0941  0.1361 -0.1591
 4695SOL    HW115953   8.211   7.062   3.165  0.3451  0.7682  1.1594
 4695SOL    HW215954   8.307   6.946   3.146 -0.7075  0.1444 -0.5704
 4696SOL     OW15955   2.905   6.242   8.143  0.6761  0.3481  0.0529
 4696SOL    HW115956   2.972   6.304   8.171  1.1069 -0.9250  2.0009
 4696SOL    HW215957   2.860   6.217   8.223  0.6873 -2.0535 -0.6020
 4697SOL     OW15958   3.363   1.764   1.844 -0.3225  0.1615 -0.2168
 4697SOL    HW115959   3.457   1.774   1.835 -0.0509 -0.9243  1.1940
 4697SOL    HW215960   3.343   1.680   1.803 -0.1751 -1.1390  2.2503
 4698SOL     OW15961   5.119   7.027   4.061 -0.8635  0.1509 -0.2589
 4698SOL    HW115962   5.137   6.938   4.089 -2.1035 -0.1262 -0.2873
 4698SOL    HW215963   5.081   7.070   4.137 -0.9794  0.4298 -0.4704
 4699SOL     OW15964   3.074   6.204   3.206  0.1419 -0.0762 -0.0577
 4699SOL    HW115965   3.118   6.257   3.140 -0.0804  1.5969  1.1041
 4699SOL    HW215966   3.069   6.259   3.284  0.2701 -1.9418  1.3513
 4700SOL     OW15967   8.238   2.282   8.862  0.0026 -0.6182 -0.1746
 4700SOL    HW115968   8.247   2.269   8.957  0.7711 -0.5082 -0.2236
 4700SOL    HW215969   8.153   2.245   8.841  0.5246 -2.1779  0.2865
 4701SOL     OW15970   1.990   6.201   5.850  0.0942 -0.0427 -0.4378
 4701SOL    HW115971   1.993   6.238   5.938 -1.2642  1.8957 -1.1396
 4701SOL    HW215972   2.055   6.131   5.851  1.9323  1.5816  1.3491
 4702SOL     OW15973   3.556   0.850   7.762 -0.1937 -0.0792 -0.4624
 4702SOL    HW115974   3.485   0.867   7.700 -1.2474 -0.5685  0.5865
 4702SOL    HW215975   3.598   0.771   7.728 -0.9921 -0.5550 -0.3710
 4703SOL     OW15976   7.088   0.281   2.975 -0.0147 -0.1709 -0.0115
 4703SOL    HW115977   7.149   0.338   3.022  0.6860 -0.4356 -0.5868
 4703SOL    HW215978   7.143   0.220   2.927 -0.7523 -1.2803  0.4966
 4704SOL     OW15979   4.816   6.644   5.638 -0.0260 -1.2637 -0.6638
 4704SOL    HW115980   4.866   6.716   5.675 -0.6751 -1.8745  1.5607
 4704SOL    HW215981   4.726   6.661   5.664  0.1090 -4.1414  2.3913
 4705SOL     OW15982   2.565   7.589   7.419 -0.1704  0.1149 -0.2948
 4705SOL    HW115983   2.590   7.523   7.484 -1.9637 -0.6839 -0.3624
 4705SOL    HW215984   2.585   7.673   7.462 -2.8689 -0.3107  2.1047
 4706SOL     OW15985   7.935   0.062   2.320 -0.1669 -0.1787  0.0766
 4706SOL    HW115986   8.012   0.063   2.377 -0.2281 -1.9320  0.2681
 4706SOL    HW215987   7.886   0.140   2.343  1.2434  0.6484  0.3861
 4707SOL     OW15988   6.149   4.652   2.488  0.3690 -0.0070 -0.0237
 4707SOL    HW115989   6.201   4.653   2.568  1.3592 -1.5228 -0.5793
 4707SOL    HW215990   6.155   4.741   2.454  1.0978  0.2994  0.8678
 4708SOL     OW15991   7.446   7.133   8.247  0.4344 -0.3963 -0.2865
 4708SOL    HW115992   7.536   7.163   8.254  0.8554 -1.7612  0.5127
 4708SOL    HW215993   7.408   7.187   8.177  1.7140  0.5290 -0.3021
 4709SOL     OW15994   7.614   6.921   7.936  0.4103 -0.7738  0.1129
 4709SOL    HW115995   7.646   6.972   8.011  0.4977 -1.1069  0.3073
 4709SOL    HW215996   7.684   6.926   7.872  0.2789 -0.3752 -0.0005
 4710SOL     OW15997   7.600   3.762   8.592 -0.4506  0.2902 -0.1776
 4710SOL    HW115998   7.625   3.841   8.638 -1.8531  0.0129  1.1445
 4710SOL    HW215999   7.538   3.718   8.651  0.2697 -1.7877 -0.8670
 4711SOL     OW16000   4.895   3.759   1.697 -0.2968 -0.2196  0.1004
 4711SOL    HW116001   4.977   3.804   1.675 -0.4316 -0.1030 -0.1693
 4711SOL    HW216002   4.841   3.768   1.618  0.4428 -2.7100 -0.7739
 4712SOL     OW16003   7.109   7.940   0.127 -0.3986 -0.7030  0.2061
 4712SOL    HW116004   7.052   7.881   0.178  0.6993 -0.0055  2.3723
 4712SOL    HW216005   7.186   7.886   0.106  0.0803 -0.4136  1.1615
 4713SOL     OW16006   1.377   8.954   5.977  0.7459  0.5639  1.1267
 4713SOL    HW116007   1.384   9.047   5.999  2.1442  0.2402  2.1672
 4713SOL    HW216008   1.415   8.947   5.890  0.0727  1.0594  0.7889
 4714SOL     OW16009   3.672   2.463   6.803  0.6998  1.0591  0.0704
 4714SOL    HW116010   3.592   2.417   6.777  0.9914  1.5209 -1.8027
 4714SOL    HW216011   3.644   2.553   6.821  0.6590  0.9971  0.3182
 4715SOL     OW16012   2.936   0.571   8.108  0.7670  0.3222  0.2817
 4715SOL    HW116013   2.925   0.582   8.203  0.9531  0.0441  0.3378
 4715SOL    HW216014   3.010   0.628   8.086  0.6513  0.4726  0.2855
 4716SOL     OW16015   3.978   0.306   4.735  0.1432 -0.5213  0.1751
 4716SOL    HW116016   4.063   0.341   4.708  0.1037 -0.9144 -0.4770
 4716SOL    HW216017   3.961   0.348   4.819  0.5788  0.2325 -0.0978
 4717SOL     OW16018   0.418   0.891   8.771  0.1720 -0.3344  0.2743
 4717SOL    HW116019   0.470   0.816   8.743 -0.4770 -0.5263 -0.4644
 4717SOL    HW216020   0.481   0.962   8.782  0.8604 -1.0994  1.4579
 4718SOL     OW16021   5.329   4.854   0.340  0.3300 -0.1979  0.5480
 4718SOL    HW116022   5.404   4.914   0.344 -0.3667  0.7181  0.2372
 4718SOL    HW216023   5.276   4.887   0.267 -0.1541 -1.1036  0.4779
 4719SOL     OW16024   5.746   8.454   7.930  0.5998 -0.0563 -0.0209
 4719SOL    HW116025   5.821   8.494   7.973  0.6990 -0.2279 -0.0316
 4719SOL    HW216026   5.678   8.450   7.998  0.6046  0.0837 -0.0071
 4720SOL     OW16027   7.940   3.769   1.778  0.4140  0.3405  0.3965
 4720SOL    HW116028   7.885   3.698   1.812  0.0701 -1.1399 -2.8535
 4720SOL    HW216029   7.883   3.846   1.779  0.1249  0.1445  2.1136
 4721SOL     OW16030   1.149   7.741   6.569  0.1041  0.0044  0.3957
 4721SOL    HW116031   1.218   7.675   6.560 -1.3030 -1.4143 -0.6129
 4721SOL    HW216032   1.196   7.825   6.568  1.8375 -0.9156  0.1680
 4722SOL     OW16033   1.806   3.867   6.723 -0.0253 -0.2177 -0.1335
 4722SOL    HW116034   1.772   3.780   6.701 -0.4320  0.0537 -0.6079
 4722SOL    HW216035   1.816   3.910   6.638  1.2318 -0.1833  0.0204
 4723SOL     OW16036   7.762   8.028   0.282 -0.1013  0.7744  0.0354
 4723SOL    HW116037   7.739   7.988   0.198  1.6478 -0.0073 -0.1027
 4723SOL    HW216038   7.793   8.115   0.260  3.7190 -0.5690 -0.6567
 4724SOL     OW16039   5.920   3.126   8.980 -0.7043 -0.3408 -0.5350
 4724SOL    HW116040   5.986   3.191   8.957 -0.0021 -0.8941 -0.1434
 4724SOL    HW216041   5.946   3.047   8.932 -2.1806 -0.0528 -1.8987
 4725SOL     OW16042   1.759   6.277   0.793 -0.0800  0.5051 -0.0704
 4725SOL    HW116043   1.785   6.186   0.808  2.7988  1.4354  1.4319
 4725SOL    HW216044   1.670   6.283   0.829 -0.2759 -1.6429 -0.0572
 4726SOL     OW16045   1.371   1.134   1.162  0.1504 -0.2821  0.2820
 4726SOL    HW116046   1.347   1.053   1.118 -1.6390  0.6427 -0.5442
 4726SOL    HW216047   1.303   1.146   1.229  0.7929  0.1780  0.8634
 4727SOL     OW16048   1.682   4.023   6.005  0.3473 -0.2603 -0.4007
 4727SOL    HW116049   1.685   3.940   6.052  0.3772 -0.2808 -0.4388
 4727SOL    HW216050   1.599   4.063   6.032  0.0185 -0.5999 -0.8862
 4728SOL     OW16051   7.159   6.011   7.587  0.4745  0.1362  0.1903
 4728SOL    HW116052   7.181   6.099   7.617  1.0501 -0.0689  0.3792
 4728SOL    HW216053   7.231   5.956   7.618 -0.8263 -0.7524  1.7917
 4729SOL     OW16054   5.920   1.262   2.555 -0.0648  0.1278 -0.8272
 4729SOL    HW116055   5.878   1.179   2.531 -0.1982  0.2584 -1.0446
 4729SOL    HW216056   5.973   1.240   2.631 -1.1554  0.1418 -0.0446
 4730SOL     OW16057   6.281   4.797   4.969 -0.1739  0.1360 -0.4899
 4730SOL    HW116058   6.308   4.797   4.877  0.4937  1.1691 -0.3117
 4730SOL    HW216059   6.187   4.779   4.967 -0.2824  0.7698 -1.4156
 4731SOL     OW16060   3.811   8.759   6.214  0.0235 -0.0871 -0.3451
 4731SOL    HW116061   3.896   8.777   6.255 -0.2040 -0.3367  0.2522
 4731SOL    HW216062   3.773   8.846   6.199 -0.5092 -0.0072  1.3180
 4732SOL     OW16063   5.474   3.472   5.864  0.1317 -0.6298 -0.4893
 4732SOL    HW116064   5.531   3.492   5.939 -1.3124  0.6920  0.3332
 4732SOL    HW216065   5.400   3.426   5.903 -1.4617  1.5442 -0.7445
 4733SOL     OW16066   1.071   5.833   1.987 -0.1275 -0.1972 -0.7208
 4733SOL    HW116067   1.061   5.739   1.997 -0.6300 -0.1250 -0.4896
 4733SOL    HW216068   1.006   5.858   1.922 -1.4980  0.2775  0.7542
 4734SOL     OW16069   8.849   7.443   1.505 -0.8295  0.3839 -0.1413
 4734SOL    HW116070   8.880   7.501   1.435  0.8643 -0.2195  0.0549
 4734SOL    HW216071   8.912   7.456   1.576 -0.3619 -1.7285 -0.1139
 4735SOL     OW16072   5.985   7.340   7.948  0.0004 -0.0546 -0.3735
 4735SOL    HW116073   5.925   7.410   7.973  0.7650  0.4538  0.0588
 4735SOL    HW216074   5.993   7.286   8.026 -1.3835 -1.2335 -1.0016
 4736SOL     OW16075   6.963   7.894   6.840  0.1850 -0.7594  0.0982
 4736SOL    HW116076   7.040   7.838   6.852  0.3734 -0.3529  0.8782
 4736SOL    HW216077   6.908   7.875   6.916 -0.6588 -1.3059 -0.6361
 4737SOL     OW16078   5.410   8.991   4.543  0.2119  0.0061 -0.2966
 4737SOL    HW116079   5.403   8.992   4.638 -0.3026 -1.4495 -0.2998
 4737SOL    HW216080   5.476   8.924   4.524 -0.4287 -0.4524 -0.9868
 4738SOL     OW16081   7.475   8.475   4.426 -0.1119 -0.4090  0.1608
 4738SOL    HW116082   7.388   8.515   4.416 -1.4109 -3.5122 -3.5033
 4738SOL    HW216083   7.536   8.544   4.401 -1.7349  0.9849 -0.1813
 4739SOL     OW16084   1.739   3.280   7.001 -0.1211 -0.0700  0.5159
 4739SOL    HW116085   1.791   3.291   6.922 -1.0804  1.8191  0.0940
 4739SOL    HW216086   1.781   3.208   7.048  1.5303 -0.0392 -0.8452
 4740SOL     OW16087   4.537   4.103   3.196 -0.2247 -0.5071 -0.0507
 4740SOL    HW116088   4.509   4.084   3.286  0.8508  0.8759  0.6183
 4740SOL    HW216089   4.631   4.122   3.203 -0.3111  0.5546 -1.3010
 4741SOL     OW16090   1.661   7.095   5.851  0.0358  0.2827  0.1219
 4741SOL    HW116091   1.566   7.081   5.852  0.1385 -0.4694 -0.2318
 4741SOL    HW216092   1.686   7.093   5.943 -0.1843 -0.2820  0.1713
 4742SOL     OW16093   3.847   1.638   6.340  0.1825  0.1081 -0.0272
 4742SOL    HW116094   3.776   1.648   6.277 -0.3973 -0.8927  0.4467
 4742SOL    HW216095   3.854   1.724   6.382  0.3607  0.6918 -1.2067
 4743SOL     OW16096   3.343   5.977   3.253  0.4213  0.4560 -0.2278
 4743SOL    HW116097   3.311   5.978   3.343 -2.6716 -0.5285 -1.1729
 4743SOL    HW216098   3.327   5.887   3.223  0.6193  0.9663 -2.0009
 4744SOL     OW16099   0.516   3.718   6.178 -0.6722 -0.3803  0.8954
 4744SOL    HW116100   0.563   3.766   6.109  0.8669 -0.5185  1.8165
 4744SOL    HW216101   0.544   3.628   6.168 -1.8715 -0.7380  0.5718
 4745SOL     OW16102   5.909   0.511   7.077  0.4093  0.0504  0.2507
 4745SOL    HW116103   5.938   0.421   7.094  0.1422  0.1053  1.0251
 4745SOL    HW216104   5.871   0.508   6.990  1.5935 -0.2997 -0.2800
 4746SOL     OW16105   4.494   5.274   6.371 -0.7257  0.0521  0.0924
 4746SOL    HW116106   4.490   5.313   6.458  0.6028 -1.1536  0.7280
 4746SOL    HW216107   4.420   5.213   6.369  0.4667 -1.4996  1.2189
 4747SOL     OW16108   0.742   8.383   1.142  0.1053  0.3560 -0.2513
 4747SOL    HW116109   0.690   8.303   1.148  1.1503 -0.5306 -2.0733
 4747SOL    HW216110   0.832   8.353   1.137  0.5553  1.6735 -0.4301
 4748SOL     OW16111   4.989   2.205   8.211  0.3311 -0.0521 -0.0645
 4748SOL    HW116112   4.905   2.230   8.172  1.1977  2.4226 -0.5097
 4748SOL    HW216113   4.967   2.133   8.271 -1.6834 -1.1146 -1.9401
 4749SOL     OW16114   8.090   4.987   3.018  0.2170 -0.0999 -0.2134
 4749SOL    HW116115   8.033   5.009   3.091  1.8228  2.3062  0.4345
 4749SOL    HW216116   8.032   4.980   2.943 -1.1520  0.1602  0.7937
 4750SOL     OW16117   5.155   1.072   1.969  0.2438 -0.2341 -0.0237
 4750SOL    HW116118   5.130   1.148   1.917 -0.1447 -0.3472 -0.0033
 4750SOL    HW216119   5.080   1.013   1.962  0.8116 -0.9103 -0.6022
 4751SOL     OW16120   1.473   3.916   4.551  0.3518  0.2431 -0.5249
 4751SOL    HW116121   1.468   3.831   4.594 -0.3177  0.1404 -0.7993
 4751SOL    HW216122   1.545   3.961   4.595  1.0635 -0.6585 -0.7240
 4752SOL     OW16123   8.808   2.939   3.815  0.2442  0.0908  0.3793
 4752SOL    HW116124   8.863   2.892   3.877 -0.7604 -0.7947  0.6197
 4752SOL    HW216125   8.718   2.923   3.844 -0.1640  1.6124  0.0718
 4753SOL     OW16126   5.480   3.476   4.426 -0.0423  0.2866  0.0435
 4753SOL    HW116127   5.574   3.477   4.445 -0.1573 -0.4296  0.7059
 4753SOL    HW216128   5.472   3.524   4.343  0.8349  0.8582  0.2705
 4754SOL     OW16129   0.686   6.131   6.866  0.4073  0.5720  0.6765
 4754SOL    HW116130   0.738   6.200   6.909  3.5584 -2.1534  1.7048
 4754SOL    HW216131   0.649   6.173   6.789  2.4105  3.3404  1.0822
 4755SOL     OW16132   5.403   0.919   5.273 -0.1109  0.0858 -0.2668
 4755SOL    HW116133   5.308   0.921   5.287 -0.2589  0.4214 -1.2047
 4755SOL    HW216134   5.428   1.012   5.267  0.3240  0.0056  0.2719
 4756SOL     OW16135   7.378   2.072   8.321  0.7001 -0.2402 -0.2891
 4756SOL    HW116136   7.391   2.006   8.389  1.9422  0.4035  0.1150
 4756SOL    HW216137   7.289   2.056   8.290  0.2344 -0.7812  1.2226
 4757SOL     OW16138   0.473   3.240   2.869  0.5395  0.5260 -0.1619
 4757SOL    HW116139   0.422   3.252   2.788  1.2575  1.5898 -0.4682
 4757SOL    HW216140   0.549   3.188   2.841 -0.0742 -0.6034  0.1929
 4758SOL     OW16141   2.371   4.996   2.202 -0.6784 -0.0513  0.5302
 4758SOL    HW116142   2.368   4.908   2.239 -1.3309 -0.1659  0.2163
 4758SOL    HW216143   2.294   5.040   2.239 -0.7355  0.1689  0.1535
 4759SOL     OW16144   7.010   7.642   8.365 -0.2344  0.2040  0.2896
 4759SOL    HW116145   7.099   7.675   8.374  0.0789 -0.1225 -1.2121
 4759SOL    HW216146   7.005   7.567   8.424  0.9798 -0.6553 -0.6301
 4760SOL     OW16147   6.100   2.248   6.044 -0.3028  0.3278  0.1779
 4760SOL    HW116148   6.160   2.180   6.014  0.2775  0.8364  0.1596
 4760SOL    HW216149   6.017   2.228   6.001  0.2973  0.5808 -1.1521
 4761SOL     OW16150   5.254   2.963   4.178  0.1668  0.1205  0.6102
 4761SOL    HW116151   5.339   2.919   4.168  0.0317 -0.2895  1.1811
 4761SOL    HW216152   5.227   2.940   4.267 -0.2915  0.6962  0.6166
 4762SOL     OW16153   7.326   5.771   6.644  0.2693  0.6458  0.5365
 4762SOL    HW116154   7.366   5.856   6.665  2.0213 -0.6118  2.6637
 4762SOL    HW216155   7.334   5.720   6.724 -0.1043 -1.7930 -0.8836
 4763SOL     OW16156   3.901   5.719   5.287 -0.1079  0.0833  0.5885
 4763SOL    HW116157   3.858   5.639   5.319  0.3316 -0.5113 -0.2771
 4763SOL    HW216158   3.849   5.746   5.211  0.9139 -0.5361 -0.3545
 4764SOL     OW16159   4.794   0.400   1.757 -0.5505  0.3341 -0.4196
 4764SOL    HW116160   4.815   0.308   1.769  0.1884  0.7150  1.5974
 4764SOL    HW216161   4.807   0.416   1.663  1.3305 -1.1303 -0.4675
 4765SOL     OW16162   1.464   6.433   4.249  0.3426  0.4090  0.7496
 4765SOL    HW116163   1.484   6.353   4.297  1.0348  0.8817  1.2802
 4765SOL    HW216164   1.539   6.491   4.268  0.6447  0.5953 -0.9219
 4766SOL     OW16165   8.457   8.436   3.062 -0.0344 -0.0008  0.3363
 4766SOL    HW116166   8.444   8.422   3.156 -0.1352  2.1876  0.7012
 4766SOL    HW216167   8.376   8.406   3.021  0.0443 -1.0602  0.9202
 4767SOL     OW16168   2.369   6.988   2.358  0.4462  0.3040  0.2197
 4767SOL    HW116169   2.353   6.970   2.265  0.0935 -0.7361  0.4702
 4767SOL    HW216170   2.454   7.033   2.359  0.8217 -0.3659 -0.5447
 4768SOL     OW16171   1.052   0.763   0.362 -0.2207  0.5158  0.1790
 4768SOL    HW116172   1.096   0.832   0.411 -0.6287  0.1001  1.1749
 4768SOL    HW216173   1.003   0.715   0.429 -2.0654  0.8702 -0.8577
 4769SOL     OW16174   2.925   8.526   7.719 -0.3010  0.2431  0.0117
 4769SOL    HW116175   2.862   8.566   7.779  0.4736  0.9739  0.3566
 4769SOL    HW216176   2.956   8.598   7.665  0.9274  0.0790  0.4685
 4770SOL     OW16177   5.044   1.399   8.556  0.0704 -0.4725 -0.5673
 4770SOL    HW116178   5.063   1.441   8.472 -1.8810  3.1610  0.5786
 4770SOL    HW216179   4.952   1.420   8.572 -0.2876 -3.1263  1.4512
 4771SOL     OW16180   3.723   8.940   1.795 -1.0005  0.6280  0.1599
 4771SOL    HW116181   3.799   8.984   1.834  0.7860 -1.0206 -1.2595
 4771SOL    HW216182   3.654   9.006   1.796  1.2817  3.2326 -1.1890
 4772SOL     OW16183   7.805   0.887   8.599 -0.1790  0.3289 -0.4374
 4772SOL    HW116184   7.743   0.835   8.650  0.2813  0.1853 -0.0144
 4772SOL    HW216185   7.830   0.959   8.658  0.6084 -0.0256 -0.3373
 4773SOL     OW16186   0.093   0.932   5.586 -0.4832  0.0008 -0.3561
 4773SOL    HW116187   0.088   0.941   5.681  1.6357 -0.1232 -0.1672
 4773SOL    HW216188   0.071   1.018   5.552 -1.0773  0.0940  0.2545
 4774SOL     OW16189   6.860   7.408   3.099 -0.0723  0.6785 -0.0166
 4774SOL    HW116190   6.893   7.472   3.038 -2.2482  0.3362 -1.6813
 4774SOL    HW216191   6.772   7.439   3.122  0.0268 -0.1048  1.6098
 4775SOL     OW16192   4.677   1.900   3.056 -0.3598 -0.3350 -0.4282
 4775SOL    HW116193   4.705   1.907   2.965 -0.0393 -1.1278 -0.3960
 4775SOL    HW216194   4.638   1.813   3.063 -0.8302 -0.0890  0.0718
 4776SOL     OW16195   5.094   8.182   0.730  0.2177  1.0993 -0.0419
 4776SOL    HW116196   5.117   8.220   0.645  1.2647 -0.5522 -0.5529
 4776SOL    HW216197   5.158   8.218   0.791  0.7278  0.7604 -0.3680
 4777SOL     OW16198   0.730   8.461   6.587  0.1373 -0.4436 -1.4711
 4777SOL    HW116199   0.791   8.447   6.659 -0.3865 -2.4849 -1.3740
 4777SOL    HW216200   0.690   8.376   6.572  0.5585 -0.2120 -4.5187
 4778SOL     OW16201   2.345   6.507   3.270  0.0630  0.2367 -0.3370
 4778SOL    HW116202   2.382   6.433   3.319 -1.7901 -1.0688 -0.7972
 4778SOL    HW216203   2.380   6.498   3.182  0.7151  0.5894 -0.1229
 4779SOL     OW16204   4.545   8.412   4.401 -0.0471 -0.0071 -0.7314
 4779SOL    HW116205   4.503   8.471   4.337  0.6533  0.3301 -0.8922
 4779SOL    HW216206   4.587   8.345   4.347  0.0243 -0.0721 -0.5938
 4780SOL     OW16207   2.879   3.626   7.820 -0.1655 -0.3051 -0.3111
 4780SOL    HW116208   2.933   3.585   7.888 -0.3482  0.6900  0.4571
 4780SOL    HW216209   2.919   3.597   7.738  2.6761  1.7550  0.2047
 4781SOL     OW16210   6.248   1.123   1.849  0.3338 -0.2598  0.0502
 4781SOL    HW116211   6.316   1.187   1.866  0.6237 -0.5012 -0.1933
 4781SOL    HW216212   6.289   1.038   1.868 -0.6321 -0.2934  2.4026
 4782SOL     OW16213   5.159   1.385   7.929  0.6872  0.5884  0.0992
 4782SOL    HW116214   5.238   1.330   7.925  1.0249  1.0684 -3.0975
 4782SOL    HW216215   5.092   1.334   7.883  0.2393  1.6773 -0.5137
 4783SOL     OW16216   3.604   3.247   2.565 -0.4144  0.0714 -0.1572
 4783SOL    HW116217   3.554   3.238   2.646  0.1281 -0.5820  0.1136
 4783SOL    HW216218   3.599   3.340   2.544  0.9146  0.5775  1.5953
 4784SOL     OW16219   5.369   4.611   1.323  0.2025 -0.1002 -0.4124
 4784SOL    HW116220   5.310   4.558   1.269  2.6689 -3.4805 -0.1850
 4784SOL    HW216221   5.391   4.686   1.268 -1.4294 -0.6811 -1.9618
 4785SOL     OW16222   5.119   4.161   4.559  0.6722  0.2530  0.1640
 4785SOL    HW116223   5.051   4.095   4.553  1.1558 -0.1911 -0.6149
 4785SOL    HW216224   5.118   4.206   4.475  0.0801  1.5329  0.8186
 4786SOL     OW16225   2.353   5.648   6.462 -0.0014  0.0411  0.1434
 4786SOL    HW116226   2.309   5.704   6.526 -1.0407  0.0964 -0.5944
 4786SOL    HW216227   2.364   5.705   6.385  1.7531  0.1562  0.4314
 4787SOL     OW16228   5.209   2.412   0.880  0.0568 -0.3032  0.2815
 4787SOL    HW116229   5.220   2.394   0.787 -0.2530 -1.0229  0.3759
 4787SOL    HW216230   5.288   2.460   0.905  0.3948 -0.5795 -0.2342
 4788SOL     OW16231   7.034   0.264   0.714 -0.2747 -0.2407  0.3992
 4788SOL    HW116232   6.944   0.276   0.685 -0.8497  0.0970  2.2245
 4788SOL    HW216233   7.085   0.323   0.658 -0.9738 -1.3245 -1.4839
 4789SOL     OW16234   7.986   7.270   0.836 -0.1236  0.2212 -0.6742
 4789SOL    HW116235   7.897   7.286   0.867  0.4352  1.3946  0.4315
 4789SOL    HW216236   7.974   7.224   0.752 -1.7453  0.1798 -0.4642
 4790SOL     OW16237   7.304   8.183   8.045 -0.1808  0.1102  0.1941
 4790SOL    HW116238   7.246   8.107   8.054  0.5749 -0.7279 -1.5499
 4790SOL    HW216239   7.372   8.168   8.111  0.4653 -1.2534 -0.7340
 4791SOL     OW16240   6.695   0.705   7.719  0.0837 -0.2242 -0.2733
 4791SOL    HW116241   6.664   0.734   7.633  1.0223  0.6766 -0.3272
 4791SOL    HW216242   6.788   0.727   7.719  0.8052 -2.9595 -0.1726
 4792SOL     OW16243   6.516   7.286   1.597 -0.0300 -0.6861 -0.0428
 4792SOL    HW116244   6.600   7.332   1.597  0.1590 -1.0189  0.4947
 4792SOL    HW216245   6.451   7.355   1.584  0.3514 -0.4950 -0.9993
 4793SOL     OW16246   0.159   3.394   0.840 -0.8918  0.0432  0.7783
 4793SOL    HW116247   0.094   3.464   0.839 -0.9807  0.0006  2.2103
 4793SOL    HW216248   0.122   3.327   0.898  0.3283 -0.0707  1.4478
 4794SOL     OW16249   3.987   5.156   3.749 -1.1366  0.1259 -0.1375
 4794SOL    HW116250   3.997   5.075   3.800  0.4714 -0.6713 -1.5986
 4794SOL    HW216251   3.936   5.129   3.672 -0.7976  0.5364 -0.5105
 4795SOL     OW16252   0.077   7.852   7.192 -0.1944  0.0793 -0.2437
 4795SOL    HW116253   0.138   7.901   7.247  0.5689  0.5723 -1.4820
 4795SOL    HW216254   0.083   7.762   7.223  3.1609 -0.4401 -1.9023
 4796SOL     OW16255   2.387   7.756   8.652  0.4155  0.4872 -0.0956
 4796SOL    HW116256   2.480   7.737   8.656  0.2866 -0.8536 -2.0374
 4796SOL    HW216257   2.347   7.693   8.713  0.6587 -0.0031 -0.4374
 4797SOL     OW16258   2.908   1.297   3.419 -0.0634  0.5756 -0.2133
 4797SOL    HW116259   2.944   1.299   3.330  0.4251  0.1172 -0.0323
 4797SOL    HW216260   2.985   1.286   3.476 -0.1597  2.6734  0.4111
 4798SOL     OW16261   1.275   4.501   0.203 -0.2403  0.6227 -0.1454
 4798SOL    HW116262   1.325   4.420   0.188 -0.4097  0.5431 -0.2790
 4798SOL    HW216263   1.296   4.556   0.127  0.4290  0.9875  0.2871
 4799SOL     OW16264   7.332   6.538   3.961  0.2175  0.2965  0.6664
 4799SOL    HW116265   7.237   6.525   3.966  0.3153 -1.4523 -0.7930
 4799SOL    HW216266   7.367   6.484   4.032  0.2366 -2.0238 -0.9886
 4800SOL     OW16267   8.125   1.249   0.078  0.4169  0.2977 -0.9209
 4800SOL    HW116268   8.126   1.249  -0.018 -1.9713 -1.0694 -1.0295
 4800SOL    HW216269   8.194   1.187   0.103  0.0989 -0.4556 -1.8323
 4801SOL     OW16270   2.968   8.364   1.471 -0.4629  0.8282  0.3068
 4801SOL    HW116271   2.942   8.421   1.543  0.8482  0.4337  1.1231
 4801SOL    HW216272   3.058   8.338   1.492 -0.2229  0.3114 -1.2247
 4802SOL     OW16273   1.412   6.856   8.959  0.1915  0.7247 -0.9145
 4802SOL    HW116274   1.333   6.831   9.006  0.1282 -0.0036 -1.3877
 4802SOL    HW216275   1.483   6.840   9.021  0.1693 -0.8485 -1.2424
 4803SOL     OW16276   3.724   8.334   1.612  0.1464 -0.3086  0.2414
 4803SOL    HW116277   3.736   8.324   1.518 -0.3341 -0.4057  0.1866
 4803SOL    HW216278   3.749   8.425   1.630 -2.5881  0.6968 -0.4890
 4804SOL     OW16279   2.636   8.475   6.580  0.2305 -0.2958  0.0783
 4804SOL    HW116280   2.615   8.484   6.487  0.0618  0.7092  0.2033
 4804SOL    HW216281   2.666   8.384   6.589 -2.2869 -1.2539 -0.4306
 4805SOL     OW16282   6.901   2.361   6.778  0.2898  0.4217 -0.2296
 4805SOL    HW116283   6.809   2.389   6.771  0.2553 -0.1288 -3.2989
 4805SOL    HW216284   6.951   2.443   6.772  0.0380  0.6084  0.1542
 4806SOL     OW16285   5.203   3.805   5.119 -0.1692  0.4434  0.0808
 4806SOL    HW116286   5.128   3.841   5.071 -0.9021 -1.3132 -0.1624
 4806SOL    HW216287   5.279   3.843   5.075 -0.8816  1.2682 -0.4944
 4807SOL     OW16288   3.108   4.751   6.273 -0.4091  0.6084  0.1945
 4807SOL    HW116289   3.110   4.846   6.257 -1.5196  0.6922  0.4159
 4807SOL    HW216290   3.026   4.723   6.232 -0.0075 -0.2912 -0.0008
 4808SOL     OW16291   3.989   5.644   2.496 -0.1379  0.4123  0.3058
 4808SOL    HW116292   3.898   5.665   2.519 -0.2392 -1.4563  1.8724
 4808SOL    HW216293   4.012   5.709   2.429 -3.7849 -1.1714 -2.8773
 4809SOL     OW16294   3.067   1.039   7.110 -0.0736  0.9282 -0.6339
 4809SOL    HW116295   3.111   0.956   7.129  1.5248  1.9690  0.4875
 4809SOL    HW216296   2.985   1.034   7.159  0.4403  0.3793  0.2014
 4810SOL     OW16297   8.640   0.651   8.349  0.4238  0.3321  0.0633
 4810SOL    HW116298   8.616   0.574   8.400  1.0932  1.3788  2.0724
 4810SOL    HW216299   8.610   0.725   8.401  0.3585  1.4669 -1.5036
 4811SOL     OW16300   8.194   7.253   7.952  0.0595 -0.2250  0.9595
 4811SOL    HW116301   8.275   7.228   7.995  1.9884  2.0513 -1.0681
 4811SOL    HW216302   8.198   7.211   7.867  0.2674  1.6520 -0.0088
 4812SOL     OW16303   6.959   7.252   8.774 -0.0852 -0.6311  0.9005
 4812SOL    HW116304   6.944   7.343   8.801  0.5861 -0.6875  1.4920
 4812SOL    HW216305   6.884   7.231   8.719  0.7875  0.9584 -0.9934
 4813SOL     OW16306   1.773   1.057   3.485 -0.5037  0.0066  0.2003
 4813SOL    HW116307   1.757   1.139   3.532 -1.6673 -1.4758  2.5934
 4813SOL    HW216308   1.821   1.003   3.549 -0.5474 -1.4920 -0.9931
 4814SOL     OW16309   7.049   2.991   2.091 -0.0275  0.1287 -0.1834
 4814SOL    HW116310   7.033   2.911   2.042 -1.1979 -1.1220  2.1127
 4814SOL    HW216311   7.101   2.964   2.166 -1.6953  1.1764  1.4500
 4815SOL     OW16312   2.234   3.876   8.315  0.1136 -0.3142  0.3379
 4815SOL    HW116313   2.326   3.853   8.304  0.6001  1.8788 -0.7455
 4815SOL    HW216314   2.197   3.870   8.227 -0.8657 -1.3708  0.7911
 4816SOL     OW16315   6.482   6.712   8.230 -0.4642  0.5534  0.3252
 4816SOL    HW116316   6.549   6.769   8.267 -0.2701  0.5619 -0.0330
 4816SOL    HW216317   6.400   6.744   8.266 -0.3811  1.2196 -0.0679
 4817SOL     OW16318   7.602   6.055   8.515  0.0836  0.0298  0.1385
 4817SOL    HW116319   7.678   6.002   8.494  2.5961  2.6041  1.8963
 4817SOL    HW216320   7.554   6.063   8.433  2.0095 -1.2846 -1.1814
 4818SOL     OW16321   8.753   2.865   1.495  0.6693  0.0592 -0.0270
 4818SOL    HW116322   8.832   2.835   1.541 -0.4721 -2.4379  0.4437
 4818SOL    HW216323   8.682   2.814   1.533 -1.0827  1.5762 -1.0931
 4819SOL     OW16324   6.722   8.821   5.904  0.6337  0.2371 -0.0859
 4819SOL    HW116325   6.669   8.801   5.827 -0.3409 -0.5745  0.7708
 4819SOL    HW216326   6.812   8.819   5.872  0.4750 -3.0397 -0.6494
 4820SOL     OW16327   6.232   4.106   7.832 -0.3042  0.9581 -0.0217
 4820SOL    HW116328   6.160   4.130   7.890 -0.8607 -0.7727  0.0642
 4820SOL    HW216329   6.307   4.094   7.891 -1.2761 -2.5565  0.7449
 4821SOL     OW16330   0.399   1.962   1.861  0.2665 -0.3561  0.2567
 4821SOL    HW116331   0.473   2.021   1.871  1.7759 -1.9497 -0.9954
 4821SOL    HW216332   0.414   1.918   1.777 -0.3331 -3.1087  1.5042
 4822SOL     OW16333   3.798   4.078   3.547  0.4857  0.1150  0.4592
 4822SOL    HW116334   3.876   4.126   3.518  0.2453  0.5500  0.5197
 4822SOL    HW216335   3.768   4.031   3.469  0.5502  0.3060  0.3186
 4823SOL     OW16336   5.960   2.247   3.429  0.4747 -0.0928 -0.1366
 4823SOL    HW116337   6.026   2.295   3.379  0.3220 -0.3825 -0.6248
 4823SOL    HW216338   5.898   2.314   3.459  1.0666  0.1978  0.4512
 4824SOL     OW16339   6.354   3.020   0.757  0.0876  0.2729  0.4648
 4824SOL    HW116340   6.442   3.057   0.755 -0.0174  0.4804 -0.6094
 4824SOL    HW216341   6.305   3.069   0.692 -0.3567 -0.9882 -0.1896
 4825SOL     OW16342   3.390   7.815   6.817  0.4371  0.0051  0.3991
 4825SOL    HW116343   3.363   7.785   6.730  1.6164 -2.6218  0.8436
 4825SOL    HW216344   3.470   7.865   6.801 -0.1669  0.8357 -0.1338
 4826SOL     OW16345   0.145   5.450   0.152 -0.7134 -0.2145  0.3326
 4826SOL    HW116346   0.186   5.521   0.202 -1.0176 -0.5397  1.0683
 4826SOL    HW216347   0.144   5.482   0.062  0.2321  0.2161  0.4548
 4827SOL     OW16348   4.695   5.487   8.814  0.2226  0.2012 -0.1673
 4827SOL    HW116349   4.605   5.487   8.783  0.4659  0.3445 -0.9054
 4827SOL    HW216350   4.747   5.470   8.735  0.7428 -1.8170  0.5450
 4828SOL     OW16351   5.062   4.736   1.211 -0.5046  0.1723  0.1479
 4828SOL    HW116352   5.152   4.767   1.219 -0.9136  1.3707  0.2711
 4828SOL    HW216353   5.071   4.643   1.189  0.7539  0.2306  0.3247
 4829SOL     OW16354   5.562   2.219   3.691  0.4787  0.5831  0.2349
 4829SOL    HW116355   5.565   2.221   3.596  1.2882  0.1664  0.2413
 4829SOL    HW216356   5.642   2.172   3.717 -0.5592 -0.8056  1.0563
 4830SOL     OW16357   4.259   6.291   5.439  0.2414 -0.0283 -0.5078
 4830SOL    HW116358   4.312   6.278   5.360  2.1105 -0.1942  0.7271
 4830SOL    HW216359   4.313   6.257   5.510 -0.6610  1.6879  1.0740
 4831SOL     OW16360   4.214   7.860   1.740 -0.4664 -0.7498 -0.0449
 4831SOL    HW116361   4.220   7.802   1.816  0.7359 -0.1506  0.3475
 4831SOL    HW216362   4.194   7.946   1.778  0.4351 -0.3907 -0.3654
 4832SOL     OW16363   4.810   6.856   7.345 -0.6396 -0.0245 -0.1215
 4832SOL    HW116364   4.809   6.761   7.342  2.9572 -0.2485  1.1888
 4832SOL    HW216365   4.786   6.883   7.256 -4.7533 -1.8975  0.1962
 4833SOL     OW16366   0.372   8.013   2.977 -0.0426  0.3154  0.0733
 4833SOL    HW116367   0.370   7.996   3.071 -0.1853 -0.0982 -0.0024
 4833SOL    HW216368   0.314   7.947   2.940 -1.1322  1.3831 -0.1691
 4834SOL     OW16369   3.027   1.358   4.614 -0.4637 -0.1362 -0.3857
 4834SOL    HW116370   3.112   1.318   4.595 -0.1295  0.1960  0.3782
 4834SOL    HW216371   2.985   1.366   4.528  0.1065 -0.6693 -0.7257
 4835SOL     OW16372   5.318   2.465   2.455  0.2656 -0.6177 -0.1129
 4835SOL    HW116373   5.399   2.476   2.504  1.5618 -0.1038 -2.2132
 4835SOL    HW216374   5.316   2.372   2.431  1.0211 -0.3765 -1.2272
 4836SOL     OW16375   7.812   4.286   3.299 -0.5800  0.1511  0.2822
 4836SOL    HW116376   7.744   4.306   3.235 -1.4110 -2.6097  0.1600
 4836SOL    HW216377   7.890   4.267   3.245 -0.7906 -0.4169  0.1667
 4837SOL     OW16378   7.423   5.076   2.472  0.2562  0.3751  0.2064
 4837SOL    HW116379   7.458   5.163   2.495  0.7540  0.1069  0.5031
 4837SOL    HW216380   7.355   5.093   2.407 -0.5493  1.0966  1.2055
 4838SOL     OW16381   5.757   6.006   8.152  0.1929  0.7755  0.0578
 4838SOL    HW116382   5.682   6.051   8.113  0.4473  1.0917 -0.0738
 4838SOL    HW216383   5.738   6.004   8.246  0.3026  1.3884  0.0927
 4839SOL     OW16384   6.253   1.983   5.484 -0.2411 -0.1635  0.1304
 4839SOL    HW116385   6.322   2.041   5.516  0.1197 -0.3711 -0.2551
 4839SOL    HW216386   6.271   1.899   5.527 -0.5958 -0.0665  0.4713
 4840SOL     OW16387   6.200   1.318   4.073  0.3196  0.0750  0.2774
 4840SOL    HW116388   6.138   1.342   4.003  1.9270 -0.4336 -1.4092
 4840SOL    HW216389   6.283   1.303   4.027  1.5498  0.0856  2.3728
 4841SOL     OW16390   0.161   6.074   6.424  0.0183 -0.3076 -0.1012
 4841SOL    HW116391   0.249   6.077   6.387 -0.8899 -2.2608 -2.7664
 4841SOL    HW216392   0.113   6.142   6.377 -0.0203  0.5815  1.1672
 4842SOL     OW16393   3.432   2.994   3.681 -0.1384 -0.1690 -0.3889
 4842SOL    HW116394   3.478   2.928   3.732  0.3749  0.5021  0.0486
 4842SOL    HW216395   3.498   3.027   3.619  0.0953  1.0138  0.4436
 4843SOL     OW16396   4.633   0.452   3.771 -0.0292 -0.1318  0.0239
 4843SOL    HW116397   4.543   0.442   3.800 -0.0485 -1.1409 -0.3273
 4843SOL    HW216398   4.662   0.362   3.751  0.9446  0.2072 -0.1671
 4844SOL     OW16399   8.376   6.977   4.652 -0.0994 -0.0251 -0.0895
 4844SOL    HW116400   8.406   6.962   4.741  0.3468  0.4907 -0.1508
 4844SOL    HW216401   8.284   6.954   4.653  0.6863 -3.8576 -0.4075
 4845SOL     OW16402   6.003   2.188   4.442  0.6749 -1.2360 -0.4405
 4845SOL    HW116403   6.050   2.114   4.479 -0.6169 -2.0416 -0.3300
 4845SOL    HW216404   5.949   2.221   4.515  2.1941  0.6805 -0.0962
 4846SOL     OW16405   6.629   3.772   3.451 -0.1719 -0.3110  0.3952
 4846SOL    HW116406   6.626   3.717   3.373  2.2533 -0.9071  0.6316
 4846SOL    HW216407   6.606   3.859   3.421 -1.1574 -0.8910 -0.5832
 4847SOL     OW16408   6.815   4.994   7.297  0.1325  0.2854  0.1389
 4847SOL    HW116409   6.909   5.005   7.284 -0.2209  1.3708 -1.8190
 4847SOL    HW216410   6.790   4.924   7.237 -0.3893  0.3889  0.2276
 4848SOL     OW16411   0.808   5.203   1.188  0.8266 -0.4815 -0.5248
 4848SOL    HW116412   0.840   5.290   1.163  1.1996 -0.7709 -1.0804
 4848SOL    HW216413   0.877   5.143   1.159  0.5388 -0.9713 -0.2158
 4849SOL     OW16414   8.554   5.013   3.624 -0.5073  0.3426  0.0151
 4849SOL    HW116415   8.645   5.041   3.632 -0.1002 -1.2891  1.8229
 4849SOL    HW216416   8.544   4.990   3.531  1.2595 -0.5295  0.0136
 4850SOL     OW16417   7.032   0.764   8.996  0.0621 -0.2575  0.3705
 4850SOL    HW116418   7.044   0.732   8.907  0.6994 -1.8315  0.9802
 4850SOL    HW216419   6.938   0.783   9.003 -0.6496 -3.2106  0.2720
 4851SOL     OW16420   8.751   3.923   6.597  1.0052  0.0051  0.9035
 4851SOL    HW116421   8.790   3.858   6.537 -2.1318  0.8340 -2.4344
 4851SOL    HW216422   8.676   3.877   6.636  0.2548  0.8230  0.4684
 4852SOL     OW16423   8.096   2.184   5.815 -0.8398  0.2224 -0.3898
 4852SOL    HW116424   8.052   2.136   5.886  1.8133  0.8971  1.9013
 4852SOL    HW216425   8.044   2.264   5.805 -3.0426 -1.2388 -1.5017
 4853SOL     OW16426   5.467   2.883   3.223 -0.0176 -0.2459  0.3229
 4853SOL    HW116427   5.443   2.953   3.284 -3.9307  0.4292 -1.6251
 4853SOL    HW216428   5.516   2.928   3.154  0.2379 -0.0410  0.6365
 4854SOL     OW16429   6.734   2.307   0.727 -0.0214 -0.2078  0.2891
 4854SOL    HW116430   6.705   2.380   0.782 -1.8448 -1.4747  1.1337
 4854SOL    HW216431   6.660   2.290   0.669  0.1994 -1.5793  0.3539
 4855SOL     OW16432   6.096   4.810   4.685  0.2408 -0.2181 -0.8502
 4855SOL    HW116433   6.119   4.720   4.662  1.2062 -0.1730 -0.1097
 4855SOL    HW216434   6.125   4.862   4.610 -0.6548 -0.5394 -1.4467
 4856SOL     OW16435   7.373   4.931   3.170  0.1421  0.3397  0.6932
 4856SOL    HW116436   7.285   4.893   3.178 -0.8626  2.1411 -0.7610
 4856SOL    HW216437   7.372   5.004   3.232  0.8761 -0.0512  1.1685
 4857SOL     OW16438   6.853   5.916   0.443  0.1068 -0.0759 -0.0088
 4857SOL    HW116439   6.789   5.962   0.497 -0.7804 -2.3601  0.9949
 4857SOL    HW216440   6.922   5.981   0.428 -1.7504  2.0422  0.0082
 4858SOL     OW16441   7.881   5.940   2.494  0.2142  0.3949 -0.5342
 4858SOL    HW116442   7.833   5.869   2.537  0.6172  1.2068  1.3859
 4858SOL    HW216443   7.861   6.017   2.547  0.7973  1.4643 -1.8217
 4859SOL     OW16444   1.890   4.792   4.485  0.2811 -0.2558 -0.1759
 4859SOL    HW116445   1.834   4.825   4.415 -0.3976 -1.5881 -0.2899
 4859SOL    HW216446   1.874   4.852   4.558  0.3511  0.6378 -0.8673
 4860SOL     OW16447   6.981   8.643   0.272  0.8036 -0.0477 -0.1823
 4860SOL    HW116448   7.052   8.649   0.337  0.5909 -1.5841  0.2228
 4860SOL    HW216449   7.010   8.576   0.211 -0.0219 -0.2514 -0.3614
 4861SOL     OW16450   8.932   7.167   8.083 -0.3112  0.0421 -0.7518
 4861SOL    HW116451   8.992   7.095   8.100 -1.5792 -0.6189  1.4665
 4861SOL    HW216452   8.977   7.245   8.117 -0.9962 -0.6072  1.9298
 4862SOL     OW16453   4.456   1.360   8.033 -0.2116 -0.2332 -0.2069
 4862SOL    HW116454   4.475   1.450   8.058 -0.1632 -0.0965 -0.7271
 4862SOL    HW216455   4.542   1.320   8.021 -0.2220 -0.5186  0.5955
 4863SOL     OW16456   7.811   8.548   1.131  0.4359 -0.1628  0.0342
 4863SOL    HW116457   7.816   8.621   1.193  1.6779  0.0981 -0.3442
 4863SOL    HW216458   7.754   8.580   1.061  0.0522  0.0166  0.4228
 4864SOL     OW16459   4.452   5.838   6.329 -0.1899 -0.1840  0.1093
 4864SOL    HW116460   4.460   5.784   6.408  0.1380  0.4233  0.5082
 4864SOL    HW216461   4.358   5.845   6.315 -0.3025  0.5437  1.0661
 4865SOL     OW16462   6.689   7.354   5.950 -0.1881  0.0262 -0.0612
 4865SOL    HW116463   6.740   7.326   6.026 -0.9310  2.3578  1.4224
 4865SOL    HW216464   6.638   7.277   5.926 -0.4281 -0.6279  2.2774
 4866SOL     OW16465   2.641   4.784   5.407 -0.2514  0.5922 -0.4145
 4866SOL    HW116466   2.564   4.768   5.352  0.3527  0.4277 -1.2315
 4866SOL    HW216467   2.716   4.766   5.349  0.4122  1.5504  0.1255
 4867SOL     OW16468   6.844   2.098   6.085 -0.2763  0.0249  0.4930
 4867SOL    HW116469   6.804   2.175   6.126 -1.4048 -0.9276  1.2491
 4867SOL    HW216470   6.915   2.074   6.144 -1.1861 -0.6692  1.3569
 4868SOL     OW16471   0.998   5.004   2.922  0.4471 -0.3699  0.4141
 4868SOL    HW116472   0.997   4.998   2.827  1.1383 -0.1970  0.3903
 4868SOL    HW216473   1.043   4.925   2.951 -0.7112 -0.9588  0.6582
 4869SOL     OW16474   1.869   1.517   7.635 -0.0513 -0.4755 -0.4399
 4869SOL    HW116475   1.860   1.611   7.618  0.7610 -0.3326 -0.1139
 4869SOL    HW216476   1.839   1.506   7.725  0.3773 -0.4330 -0.2878
 4870SOL     OW16477   3.825   0.254   7.142  0.0765 -0.5822  0.2652
 4870SOL    HW116478   3.890   0.184   7.141 -0.3096 -0.9416 -0.8815
 4870SOL    HW216479   3.870   0.331   7.108  0.2710 -0.4671  0.7654
 4871SOL     OW16480   8.421   3.410   6.070  0.0533 -0.2786 -0.6628
 4871SOL    HW116481   8.399   3.330   6.021 -1.1640 -0.2373 -0.2402
 4871SOL    HW216482   8.493   3.384   6.128  1.2992 -0.4027 -2.2171
 4872SOL     OW16483   1.780   4.701   2.110 -0.1354 -0.1473 -0.3565
 4872SOL    HW116484   1.863   4.710   2.064  0.4596 -0.5733  0.5993
 4872SOL    HW216485   1.799   4.643   2.184 -0.9227  0.9496  0.7545
 4873SOL     OW16486   8.592   2.270   4.007 -0.0872 -0.0596 -0.5224
 4873SOL    HW116487   8.662   2.266   3.942 -0.7494  0.6263 -1.3012
 4873SOL    HW216488   8.514   2.240   3.960 -0.4293 -0.2571  0.1646
 4874SOL     OW16489   8.422   1.630   3.828  0.0456  0.3375 -0.4878
 4874SOL    HW116490   8.388   1.678   3.752  0.3914 -0.1125 -0.9276
 4874SOL    HW216491   8.516   1.645   3.826  0.1064 -0.0162 -0.3901
 4875SOL     OW16492   1.906   6.820   7.691 -0.4355 -0.2840  0.5041
 4875SOL    HW116493   1.968   6.852   7.756  0.6230 -2.5717  0.7365
 4875SOL    HW216494   1.926   6.870   7.612  1.2832 -0.4771  0.7664
 4876SOL     OW16495   8.418   1.982   6.710  0.6425 -0.0823 -0.6596
 4876SOL    HW116496   8.409   2.072   6.677  0.0011 -0.6019 -1.9588
 4876SOL    HW216497   8.375   1.984   6.795  2.7692  1.4088  0.4831
 4877SOL     OW16498   6.678   1.392   1.778 -0.5751  0.1404  0.0080
 4877SOL    HW116499   6.661   1.481   1.747 -1.2789 -0.3513 -1.0989
 4877SOL    HW216500   6.710   1.403   1.867  1.2260  1.6149 -0.7449
 4878SOL     OW16501   5.746   3.291   6.479 -0.6568 -0.3044 -0.3164
 4878SOL    HW116502   5.825   3.337   6.505 -1.3872  2.0566 -1.9792
 4878SOL    HW216503   5.700   3.273   6.561  0.8457 -0.3396  0.5461
 4879SOL     OW16504   7.075   7.009   7.926  0.0587 -0.2848  0.0769
 4879SOL    HW116505   7.153   6.955   7.939 -0.6678 -1.0709  1.4026
 4879SOL    HW216506   7.026   6.964   7.857  0.4804 -0.1204 -0.3351
 4880SOL     OW16507   4.571   2.383   1.110  0.1439 -0.0054  0.2074
 4880SOL    HW116508   4.549   2.386   1.203  0.0953  0.2679  0.1873
 4880SOL    HW216509   4.491   2.352   1.067 -0.1354  0.7788  0.1571
 4881SOL     OW16510   7.435   6.184   1.787 -0.2837 -0.1745  0.4875
 4881SOL    HW116511   7.347   6.211   1.761  0.5780  0.4564 -2.0992
 4881SOL    HW216512   7.493   6.237   1.733  1.6421 -2.1360  0.5001
 4882SOL     OW16513   1.664   5.251   3.343 -0.5492 -0.1027 -0.1535
 4882SOL    HW116514   1.677   5.270   3.436  0.0049 -0.6512 -0.1090
 4882SOL    HW216515   1.677   5.335   3.299  0.8460 -0.1426  0.1255
 4883SOL     OW16516   0.238   2.282   2.375  0.1487 -0.2988 -0.0156
 4883SOL    HW116517   0.302   2.284   2.304  0.4178 -0.8014  0.2128
 4883SOL    HW216518   0.189   2.201   2.362 -0.5158  0.1348 -0.2517
 4884SOL     OW16519   1.484   0.511   1.099 -0.0222 -0.1766 -0.5006
 4884SOL    HW116520   1.393   0.513   1.069 -0.0064  0.5066 -0.5245
 4884SOL    HW216521   1.515   0.424   1.076 -0.0129  0.2809 -2.4896
 4885SOL     OW16522   3.105   7.641   7.994 -0.4775  0.2934  0.6100
 4885SOL    HW116523   3.151   7.663   7.913 -0.2386 -0.1787  0.6174
 4885SOL    HW216524   3.170   7.595   8.047 -1.3685 -1.7778  0.0057
 4886SOL     OW16525   7.029   4.261   1.573 -0.3745 -0.4716  0.3250
 4886SOL    HW116526   7.028   4.345   1.618 -0.4756 -0.2725 -0.0433
 4886SOL    HW216527   7.117   4.228   1.587 -0.0498  0.1131 -0.2862
 4887SOL     OW16528   1.047   1.131   5.489  0.3351 -0.3028  0.1287
 4887SOL    HW116529   1.032   1.135   5.395 -1.9617 -1.8960  0.3529
 4887SOL    HW216530   1.127   1.079   5.499  0.6703  0.0007 -0.9202
 4888SOL     OW16531   6.252   4.348   4.043  0.2122 -0.2754  0.2356
 4888SOL    HW116532   6.208   4.304   3.970  0.0662 -0.2394  0.3007
 4888SOL    HW216533   6.225   4.298   4.120 -0.8575  0.5881  0.4441
 4889SOL     OW16534   5.668   1.229   1.043  0.1719  0.0070 -0.3600
 4889SOL    HW116535   5.608   1.169   1.088 -0.8251  2.0168  1.1558
 4889SOL    HW216536   5.745   1.233   1.099 -0.4000  1.2690  0.3728
 4890SOL     OW16537   5.019   5.892   7.739 -0.1580  0.3285  0.4268
 4890SOL    HW116538   5.032   5.799   7.756  3.2842  0.6546  0.3528
 4890SOL    HW216539   4.968   5.923   7.814  2.0613 -0.9545  2.6274
 4891SOL     OW16540   6.744   4.977   0.179 -1.2996  0.0343  0.1343
 4891SOL    HW116541   6.660   4.957   0.219 -1.1915  2.0931  1.5824
 4891SOL    HW216542   6.781   5.046   0.235  0.8509 -0.0403 -1.0867
 4892SOL     OW16543   0.610   1.460   7.636  0.1511 -0.4997  0.1357
 4892SOL    HW116544   0.558   1.519   7.582  1.2907  0.7815  0.3807
 4892SOL    HW216545   0.627   1.509   7.717  1.6045 -0.9138  0.1250
 4893SOL     OW16546   4.176   7.051   2.343  0.0766 -0.0101  0.0752
 4893SOL    HW116547   4.267   7.034   2.318  0.2479  1.0731 -0.0659
 4893SOL    HW216548   4.172   7.145   2.358 -1.5244  0.3461 -2.1024
 4894SOL     OW16549   5.898   2.726   2.253 -0.2048 -0.1352 -0.4991
 4894SOL    HW116550   5.971   2.713   2.192  0.6398 -1.0966  0.6627
 4894SOL    HW216551   5.829   2.766   2.200  1.5693  1.9823 -1.3627
 4895SOL     OW16552   8.247   4.759   3.012 -0.4956  0.4118  0.1053
 4895SOL    HW116553   8.189   4.688   2.982 -1.8663  2.5326 -2.8197
 4895SOL    HW216554   8.191   4.837   3.014  1.5822  2.0018  0.2306
 4896SOL     OW16555   5.014   1.639   6.436 -0.0954 -0.5465  0.4546
 4896SOL    HW116556   5.050   1.619   6.523 -0.4642 -0.9877  0.5108
 4896SOL    HW216557   5.005   1.734   6.435 -2.1928 -0.6602  1.7722
 4897SOL     OW16558   5.755   7.842   8.825 -0.4814 -0.9134  0.4340
 4897SOL    HW116559   5.803   7.826   8.744 -1.0156 -1.4481  0.2071
 4897SOL    HW216560   5.813   7.811   8.895 -0.5357 -1.6657  0.1553
 4898SOL     OW16561   0.828   0.958   7.403  0.1156  0.5879  0.0083
 4898SOL    HW116562   0.857   1.043   7.368 -0.1913  0.4454 -0.6238
 4898SOL    HW216563   0.865   0.894   7.342  0.1766  0.2844  0.3672
 4899SOL     OW16564   0.194   0.378   4.921 -0.2040  0.2264  0.5651
 4899SOL    HW116565   0.159   0.380   5.010 -2.1633 -0.1566 -0.1438
 4899SOL    HW216566   0.261   0.309   4.923  0.6102  1.0031  1.9776
 4900SOL     OW16567   0.966   8.478   4.107 -0.1897  0.1689  0.4406
 4900SOL    HW116568   0.938   8.565   4.138 -2.2754 -0.5068  0.5919
 4900SOL    HW216569   1.055   8.469   4.140 -0.4121  1.7042  1.5950
 4901SOL     OW16570   3.178   4.621   7.921 -0.1876 -0.2943 -0.4069
 4901SOL    HW116571   3.246   4.676   7.881 -0.5155 -0.2610 -0.9240
 4901SOL    HW216572   3.174   4.544   7.865 -0.2172 -0.5278 -0.0816
 4902SOL     OW16573   2.144   8.637   0.372 -0.4500 -0.1855 -0.6516
 4902SOL    HW116574   2.065   8.613   0.324  0.0490 -2.1729 -0.5633
 4902SOL    HW216575   2.212   8.644   0.305 -0.4384  0.3244 -0.5913
 4903SOL     OW16576   8.119   4.595   7.112  0.2668  0.2588 -0.4313
 4903SOL    HW116577   8.137   4.680   7.070  1.1144  0.7295  0.8215
 4903SOL    HW216578   8.104   4.617   7.204 -1.2457 -0.7804 -0.3913
 4904SOL     OW16579   2.953   0.169   3.807 -0.2466  0.7917  0.4426
 4904SOL    HW116580   2.869   0.167   3.762 -0.5096  3.1036  0.7319
 4904SOL    HW216581   3.000   0.243   3.769  1.6913 -0.4511  0.2881
 4905SOL     OW16582   4.365   2.516   5.696  0.1207 -0.1069 -0.1066
 4905SOL    HW116583   4.429   2.469   5.750 -0.6004 -0.2995  0.6172
 4905SOL    HW216584   4.415   2.550   5.622  0.8903 -0.9827 -0.0047
 4906SOL     OW16585   8.809   1.322   6.434  0.0095  0.2902 -0.2954
 4906SOL    HW116586   8.869   1.395   6.449  0.3915 -0.0749  0.0040
 4906SOL    HW216587   8.780   1.333   6.344 -0.6950  1.3502  0.0424
 4907SOL     OW16588   3.323   2.619   3.837  0.3826  0.1802 -0.2075
 4907SOL    HW116589   3.300   2.602   3.928 -1.7227  1.6426 -0.4106
 4907SOL    HW216590   3.398   2.679   3.842  0.9684 -0.5852  0.5227
 4908SOL     OW16591   2.173   5.516   1.155  0.2210  0.0269  0.3277
 4908SOL    HW116592   2.236   5.553   1.217  2.3478 -0.1832 -1.5955
 4908SOL    HW216593   2.152   5.588   1.096 -0.0586 -0.3558 -0.0467
 4909SOL     OW16594   2.152   1.703   4.580  0.1336  0.2342 -0.3653
 4909SOL    HW116595   2.063   1.737   4.567  0.7307  2.8272  1.5067
 4909SOL    HW216596   2.204   1.748   4.513  0.4816  0.8910  0.3408
 4910SOL     OW16597   2.746   4.191   1.361  0.1845  0.3901  0.7031
 4910SOL    HW116598   2.672   4.225   1.312 -2.4194 -1.0115  3.3736
 4910SOL    HW216599   2.748   4.097   1.341  2.4901  0.6551 -0.7176
 4911SOL     OW16600   2.213   2.254   3.526 -0.3430 -0.0849  0.0912
 4911SOL    HW116601   2.258   2.281   3.607  0.8810 -0.5250 -0.4094
 4911SOL    HW216602   2.228   2.159   3.521 -0.0836 -0.0056 -0.8363
 4912SOL     OW16603   7.864   8.793   5.970  0.0081  0.2827 -0.2118
 4912SOL    HW116604   7.849   8.758   5.882 -0.1040 -0.1262 -0.0337
 4912SOL    HW216605   7.952   8.764   5.993 -0.7007 -1.3652  0.6072
 4913SOL     OW16606   5.735   6.269   5.371 -0.6507  0.0327  0.4941
 4913SOL    HW116607   5.679   6.301   5.301 -2.1291  1.6469  2.2927
 4913SOL    HW216608   5.676   6.254   5.445  0.8221 -1.6531  1.4221
 4914SOL     OW16609   4.992   3.757   8.543 -0.1619  0.0827 -0.0923
 4914SOL    HW116610   5.008   3.694   8.612  0.1116 -1.0442 -1.1493
 4914SOL    HW216611   4.967   3.838   8.589 -3.1410 -1.4619  1.2869
 4915SOL     OW16612   6.634   3.682   6.050 -0.2209  0.5457  0.6308
 4915SOL    HW116613   6.549   3.642   6.068 -0.0384 -0.2035 -0.1323
 4915SOL    HW216614   6.612   3.770   6.019 -0.6533  0.7986  1.6017
 4916SOL     OW16615   3.441   0.470   2.119 -0.1099  0.5766 -0.5303
 4916SOL    HW116616   3.486   0.544   2.158 -1.3458 -0.0083  2.3121
 4916SOL    HW216617   3.474   0.394   2.166 -0.4025 -0.4595 -1.9145
 4917SOL     OW16618   5.054   4.491   6.325  0.4997  0.3806  0.0671
 4917SOL    HW116619   5.044   4.575   6.279 -0.2703 -0.1621 -0.7864
 4917SOL    HW216620   5.032   4.425   6.259  0.5365 -0.4674  0.8941
 4918SOL     OW16621   5.579   4.768   5.660 -0.0953 -0.6832 -0.6750
 4918SOL    HW116622   5.567   4.858   5.631  0.6656 -0.5049 -0.4393
 4918SOL    HW216623   5.666   4.743   5.629  0.3550 -0.8003  0.6313
 4919SOL     OW16624   1.832   2.213   1.630 -0.0909 -0.6853  0.2660
 4919SOL    HW116625   1.908   2.270   1.641 -0.0161  0.0924 -3.1632
 4919SOL    HW216626   1.868   2.130   1.598 -0.5953  0.0183 -2.4070
 4920SOL     OW16627   4.328   8.435   4.884 -0.7632 -0.0738  0.4067
 4920SOL    HW116628   4.362   8.353   4.848 -0.5445 -0.1089  0.6891
 4920SOL    HW216629   4.315   8.491   4.807 -2.0344 -0.7644  0.0769
 4921SOL     OW16630   1.283   3.924   6.994  0.0005  0.3186 -0.0116
 4921SOL    HW116631   1.377   3.936   6.986  0.3584 -1.8847  0.1692
 4921SOL    HW216632   1.257   3.881   6.912 -0.8461  0.8440 -0.0323
 4922SOL     OW16633   0.871   8.043   3.743  0.0459 -0.1915 -0.1465
 4922SOL    HW116634   0.882   8.082   3.657 -3.0299 -1.4743 -1.2365
 4922SOL    HW216635   0.907   8.108   3.804  0.6897  1.5151 -2.2387
 4923SOL     OW16636   7.164   1.634   2.367 -0.1864 -0.5926 -0.1329
 4923SOL    HW116637   7.120   1.563   2.414  0.3342 -0.5533  0.4308
 4923SOL    HW216638   7.205   1.686   2.436  1.0013 -0.8042 -0.6521
 4924SOL     OW16639   7.484   0.006   3.343  0.5976  0.2932 -0.3354
 4924SOL    HW116640   7.482  -0.080   3.301 -0.2747  0.1938 -0.1032
 4924SOL    HW216641   7.406   0.007   3.399  0.5585  1.2620 -0.3982
 4925SOL     OW16642   2.781   6.728   1.743  0.6923 -0.5391  0.3532
 4925SOL    HW116643   2.725   6.754   1.816 -0.3441  0.0382 -0.6182
 4925SOL    HW216644   2.752   6.639   1.721  0.8415 -0.6230  0.5007
 4926SOL     OW16645   2.283   1.828   0.512 -0.2540 -0.1213  0.2689
 4926SOL    HW116646   2.218   1.768   0.548 -2.4431  1.8789 -0.0998
 4926SOL    HW216647   2.302   1.794   0.424 -1.1583 -0.4656  0.2019
 4927SOL     OW16648   6.017   8.543   3.769  0.0051  0.2847  1.2025
 4927SOL    HW116649   5.999   8.631   3.736  2.6461  0.8204  0.9252
 4927SOL    HW216650   5.985   8.485   3.701  0.6543  1.1747  0.0943
 4928SOL     OW16651   5.565   2.375   5.858 -0.0627  0.3289 -0.1566
 4928SOL    HW116652   5.599   2.464   5.846  0.8385  0.2897  1.7509
 4928SOL    HW216653   5.471   2.383   5.841  0.0865  1.5300 -0.5022
 4929SOL     OW16654   4.682   0.616   6.198 -0.4166 -0.1603 -0.3688
 4929SOL    HW116655   4.660   0.555   6.269 -1.3024  0.4942 -0.0644
 4929SOL    HW216656   4.649   0.574   6.119  0.4785 -0.8449 -0.3991
 4930SOL     OW16657   8.921   2.234   1.447  0.7084  0.3873  0.7643
 4930SOL    HW116658   8.971   2.214   1.526  2.5678 -2.5057 -0.9352
 4930SOL    HW216659   8.983   2.219   1.375 -1.0092  2.4591 -1.3110
 4931SOL     OW16660   1.890   2.461   2.026 -0.3676 -0.0196 -0.1617
 4931SOL    HW116661   1.908   2.495   1.938  1.2604  0.3231  0.2759
 4931SOL    HW216662   1.905   2.535   2.084 -0.6357 -0.4610  0.4732
 4932SOL     OW16663   3.185   4.227   5.532 -0.3270  0.0168 -0.2913
 4932SOL    HW116664   3.194   4.280   5.453 -1.0939  0.4563 -0.0884
 4932SOL    HW216665   3.157   4.141   5.500 -0.4705  0.1450 -0.5111
 4933SOL     OW16666   5.807   8.519   8.893  0.2321 -0.1712 -0.5824
 4933SOL    HW116667   5.854   8.593   8.855  0.1111  0.0611 -0.2758
 4933SOL    HW216668   5.768   8.474   8.818  2.1523 -1.2214 -1.0327
 4934SOL     OW16669   5.370   0.432   5.197 -0.7580 -0.0531 -0.7021
 4934SOL    HW116670   5.389   0.377   5.273  0.0007 -1.2545 -1.7237
 4934SOL    HW216671   5.439   0.499   5.199 -0.9130  0.1012 -0.1827
 4935SOL     OW16672   6.490   0.810   4.295  0.2103 -0.0153  0.0717
 4935SOL    HW116673   6.509   0.896   4.259  1.1165 -0.0487  0.4443
 4935SOL    HW216674   6.395   0.803   4.292  0.0080  1.6261  1.4337
 4936SOL     OW16675   0.627   8.102   4.886  0.2530 -0.4330  0.3568
 4936SOL    HW116676   0.570   8.171   4.919 -0.2910 -0.6775 -0.0715
 4936SOL    HW216677   0.568   8.033   4.857  0.6780 -0.0614 -1.5407
 4937SOL     OW16678   5.286   2.939   7.533  0.0020  0.2741  0.1828
 4937SOL    HW116679   5.332   2.972   7.610 -0.0376  1.9996 -0.4854
 4937SOL    HW216680   5.296   2.844   7.537  0.4920  0.3708  1.9901
 4938SOL     OW16681   8.277   5.171   7.121 -0.0333  0.9329  0.1210
 4938SOL    HW116682   8.316   5.258   7.117 -1.3246  1.5598  0.6295
 4938SOL    HW216683   8.183   5.186   7.105 -0.1033 -0.5004 -0.9373
 4939SOL     OW16684   8.640   6.867   7.292  0.4508 -0.3764  0.0848
 4939SOL    HW116685   8.566   6.928   7.297  1.3083  0.8668 -1.4526
 4939SOL    HW216686   8.601   6.782   7.274 -0.5771  0.6134 -2.9939
 4940SOL     OW16687   2.611   7.024   1.936 -0.2982 -0.1965  0.1957
 4940SOL    HW116688   2.575   7.013   1.848  0.1532 -2.8277  0.2677
 4940SOL    HW216689   2.534   7.043   1.990 -0.8144 -0.2524 -0.4976
 4941SOL     OW16690   8.774   6.268   2.044  0.2459  0.5311 -0.1116
 4941SOL    HW116691   8.693   6.308   2.014  1.3810  1.2552 -2.4911
 4941SOL    HW216692   8.793   6.200   1.979  1.3600  0.1038  0.6226
 4942SOL     OW16693   4.769   5.016   2.602 -0.3098 -0.3047  0.7432
 4942SOL    HW116694   4.799   5.021   2.512  0.4454 -0.8717  0.9503
 4942SOL    HW216695   4.733   4.928   2.610  0.2346 -0.4946  1.1695
 4943SOL     OW16696   7.552   6.539   1.913 -0.0630 -0.1636 -0.3256
 4943SOL    HW116697   7.500   6.598   1.968  0.0342 -1.8234  1.6417
 4943SOL    HW216698   7.643   6.560   1.936  0.0411  0.0968 -0.9397
 4944SOL     OW16699   7.154   3.828   0.155 -0.3212 -0.4943 -0.5583
 4944SOL    HW116700   7.157   3.734   0.173  1.6095 -0.1209  1.4734
 4944SOL    HW216701   7.240   3.848   0.117 -0.2166  0.6303  0.2163
 4945SOL     OW16702   6.225   6.895   3.373 -0.4697 -0.0149  0.2278
 4945SOL    HW116703   6.256   6.818   3.325  1.9246  1.5541 -0.9207
 4945SOL    HW216704   6.142   6.918   3.331  0.0970 -0.4438 -1.1828
 4946SOL     OW16705   3.903   6.008   6.854 -0.0259  0.1679 -0.1357
 4946SOL    HW116706   3.975   6.034   6.796  0.1703 -1.2406 -0.5420
 4946SOL    HW216707   3.907   6.072   6.926  1.6163  0.1302 -0.1489
 4947SOL     OW16708   7.241   8.565   6.872  0.2062 -0.2103  0.4773
 4947SOL    HW116709   7.232   8.608   6.956  0.7675  0.4367  0.2103
 4947SOL    HW216710   7.164   8.508   6.866 -0.0333  0.0239  1.2492
 4948SOL     OW16711   7.690   7.645   4.878 -1.1308 -0.3834  0.2197
 4948SOL    HW116712   7.682   7.658   4.783  1.5426  0.2346 -0.0112
 4948SOL    HW216713   7.782   7.623   4.891 -1.0940  0.9419  2.8213
 4949SOL     OW16714   8.652   7.433   5.182 -0.6557  0.7755 -0.0910
 4949SOL    HW116715   8.724   7.495   5.197  0.6306 -0.9088  1.0266
 4949SOL    HW216716   8.646   7.383   5.263 -2.7814  0.5125 -0.3632
 4950SOL     OW16717   6.875   0.867   3.489  0.7860  0.4673 -0.1292
 4950SOL    HW116718   6.814   0.935   3.463  0.7607  0.3372 -0.4092
 4950SOL    HW216719   6.849   0.844   3.578 -0.4735 -0.5886 -0.7336
 4951SOL     OW16720   0.760   3.470   1.342 -1.0478  0.4790  0.3061
 4951SOL    HW116721   0.795   3.525   1.412 -2.4473  1.7764  0.0559
 4951SOL    HW216722   0.810   3.389   1.348 -0.1682  1.0794  1.8961
 4952SOL     OW16723   2.631   8.286   7.257  0.1249  0.2704  0.5361
 4952SOL    HW116724   2.669   8.260   7.173  0.6377 -2.5652  1.5274
 4952SOL    HW216725   2.536   8.285   7.243  0.0746 -2.5066  0.4515
 4953SOL     OW16726   4.623   3.915   6.860  1.4716  0.3905  0.7140
 4953SOL    HW116727   4.717   3.902   6.857  1.3238 -0.5165 -0.7015
 4953SOL    HW216728   4.605   3.982   6.794  1.2598  1.6710  2.0158
 4954SOL     OW16729   0.836   3.300   3.206 -0.1893 -0.1303 -0.4634
 4954SOL    HW116730   0.907   3.284   3.143  0.4130  0.1300  0.1340
 4954SOL    HW216731   0.852   3.389   3.238 -1.2550  0.2388 -0.8955
 4955SOL     OW16732   1.286   1.802   3.574  0.0418 -0.4935 -0.2172
 4955SOL    HW116733   1.287   1.888   3.531  0.0220  0.4750  1.6317
 4955SOL    HW216734   1.202   1.764   3.550 -0.6546  0.7156  0.2592
 4956SOL     OW16735   4.843   8.116   8.474 -0.1962  0.2588  0.2810
 4956SOL    HW116736   4.841   8.193   8.531  0.9398  0.3188  0.2719
 4956SOL    HW216737   4.887   8.049   8.526  0.8419  0.3110 -0.4932
 4957SOL     OW16738   8.876   6.104   6.294  0.3329  0.2345 -0.3239
 4957SOL    HW116739   8.824   6.184   6.298  0.6769  0.4306  0.8742
 4957SOL    HW216740   8.962   6.133   6.262  0.2614  0.2309 -0.5179
 4958SOL     OW16741   6.331   4.624   0.515  0.0921 -0.1680  0.4061
 4958SOL    HW116742   6.239   4.596   0.522 -0.3428  1.1758  0.4168
 4958SOL    HW216743   6.353   4.654   0.603  0.5743 -0.5422  0.4185
 4959SOL     OW16744   7.794   2.744   3.765 -0.6029  0.8562  0.0273
 4959SOL    HW116745   7.843   2.663   3.780 -0.7201  0.7549 -0.1360
 4959SOL    HW216746   7.844   2.811   3.811 -0.6286  0.6523  0.3593
 4960SOL     OW16747   1.559   4.531   3.252 -0.0936 -0.8257 -0.2065
 4960SOL    HW116748   1.486   4.582   3.288  1.6513  0.9926  0.9834
 4960SOL    HW216749   1.605   4.592   3.195  1.3021 -1.4593  0.1939
 4961SOL     OW16750   8.028   6.259   6.630 -0.4981  0.4466 -0.1219
 4961SOL    HW116751   8.091   6.327   6.652 -1.9231  1.5332  0.8019
 4961SOL    HW216752   8.016   6.210   6.712 -1.4331  0.7664 -0.0539
 4962SOL     OW16753   8.115   3.161   1.604 -0.4192  0.0969 -0.3027
 4962SOL    HW116754   8.112   3.088   1.542  0.9488 -0.5792  0.3711
 4962SOL    HW216755   8.097   3.121   1.689 -3.8950  1.2617 -0.3276
 4963SOL     OW16756   8.610   0.679   3.515  0.5250 -0.8932  0.1509
 4963SOL    HW116757   8.661   0.729   3.450  0.1572 -0.5445  0.1292
 4963SOL    HW216758   8.659   0.598   3.525 -0.3014 -1.6902 -1.8191
 4964SOL     OW16759   0.998   1.512   1.131  0.3012 -0.2789  0.6596
 4964SOL    HW116760   1.065   1.501   1.064  1.9588  2.0601  1.7938
 4964SOL    HW216761   1.027   1.588   1.182 -3.6394  1.4873  0.6705
 4965SOL     OW16762   6.781   5.124   3.814  0.1069 -0.6420  0.3686
 4965SOL    HW116763   6.723   5.145   3.887  0.0609 -1.4599  0.5736
 4965SOL    HW216764   6.743   5.046   3.775  0.1204 -0.1933 -0.5507
 4966SOL     OW16765   2.740   4.447   3.544 -0.2208  0.6899 -0.3060
 4966SOL    HW116766   2.802   4.473   3.612  0.1193 -2.5230  0.8139
 4966SOL    HW216767   2.654   4.470   3.580  0.0279  0.0489  0.7417
 4967SOL     OW16768   0.712   4.909   8.970 -0.1725  0.6526 -0.1507
 4967SOL    HW116769   0.676   4.898   8.882 -1.5121  1.6045  0.2543
 4967SOL    HW216770   0.685   4.997   8.996 -1.0403 -0.1189  1.7446
 4968SOL     OW16771   2.365   5.493   4.961  0.3593 -0.6084  0.3392
 4968SOL    HW116772   2.431   5.547   4.917  1.0426 -1.8213 -0.1730
 4968SOL    HW216773   2.310   5.461   4.889  0.1772 -0.8697  0.5967
 4969SOL     OW16774   4.983   2.839   2.701 -0.3992  0.5589  0.5361
 4969SOL    HW116775   4.964   2.770   2.765  0.2669  0.5920  0.7811
 4969SOL    HW216776   5.010   2.791   2.623  3.0643  0.4721  1.6129
 4970SOL     OW16777   6.721   7.982   3.910  0.3615  0.0654 -0.3526
 4970SOL    HW116778   6.635   8.019   3.927  0.0166 -1.0056  0.3094
 4970SOL    HW216779   6.707   7.888   3.904  1.7744 -0.4099  2.0572
 4971SOL     OW16780   5.398   3.425   3.810 -0.2841 -0.6972 -0.0237
 4971SOL    HW116781   5.391   3.333   3.784 -1.5271 -0.8914  0.9198
 4971SOL    HW216782   5.310   3.460   3.797  0.4480  0.7053 -1.5230
 4972SOL     OW16783   8.046   7.029   3.185 -0.3311 -0.0048  0.0604
 4972SOL    HW116784   7.997   7.093   3.238  2.2072  1.2857  1.0153
 4972SOL    HW216785   8.047   6.949   3.238 -0.9236  0.1250  0.2715
 4973SOL     OW16786   6.319   7.156   4.179  0.1321  0.0841 -0.2547
 4973SOL    HW116787   6.405   7.141   4.219 -0.1762 -1.2473 -0.0590
 4973SOL    HW216788   6.316   7.095   4.106 -0.4363  0.5101 -0.5891
 4974SOL     OW16789   3.360   3.013   8.802 -0.1289 -0.0881  0.1290
 4974SOL    HW116790   3.392   3.050   8.885  0.6551  1.0054 -0.6213
 4974SOL    HW216791   3.326   3.089   8.754 -1.3259 -0.8338 -0.2227
 4975SOL     OW16792   1.333   3.775   5.975 -0.1271 -0.5025  0.0149
 4975SOL    HW116793   1.352   3.778   6.069 -2.0585  0.6294  0.4332
 4975SOL    HW216794   1.257   3.833   5.965 -0.1279 -0.8291 -2.2097
 4976SOL     OW16795   4.157   6.755   8.994 -0.3431  0.1571  0.6216
 4976SOL    HW116796   4.129   6.665   8.979 -1.5183  0.8241 -1.6210
 4976SOL    HW216797   4.171   6.760   9.089 -1.7667 -1.9468  1.0202
 4977SOL     OW16798   2.653   7.079   8.719  0.1694  0.0865 -0.4029
 4977SOL    HW116799   2.715   7.148   8.696  1.9153 -1.2575  0.0427
 4977SOL    HW216800   2.593   7.075   8.644  1.8357  0.1048 -1.7977
 4978SOL     OW16801   6.435   4.561   1.453  0.5988  0.1705 -0.1459
 4978SOL    HW116802   6.481   4.628   1.503 -0.2458  0.4326  0.2954
 4978SOL    HW216803   6.388   4.509   1.518  1.8133 -1.3168 -0.4146
 4979SOL     OW16804   3.600   3.748   2.377 -0.2478 -0.4913 -0.8114
 4979SOL    HW116805   3.600   3.792   2.291  1.3907 -2.7116 -2.0596
 4979SOL    HW216806   3.639   3.811   2.436  2.5782 -0.3216 -2.6544
 4980SOL     OW16807   1.345   1.480   3.912  0.1856 -0.0736 -0.3008
 4980SOL    HW116808   1.431   1.438   3.910 -0.0643 -0.5871 -1.1110
 4980SOL    HW216809   1.363   1.572   3.892  0.4370 -0.4236 -1.8209
 4981SOL     OW16810   7.206   8.818   2.582 -0.2103  0.4280  0.3080
 4981SOL    HW116811   7.219   8.728   2.551 -1.1888  0.7449 -1.1321
 4981SOL    HW216812   7.289   8.862   2.563 -0.6641  0.5287 -1.6769
 4982SOL     OW16813   8.188   0.305   5.844 -0.3508 -0.2140  0.5841
 4982SOL    HW116814   8.182   0.210   5.851 -2.1476 -0.1985 -0.1110
 4982SOL    HW216815   8.200   0.335   5.933 -1.8074 -1.0005  1.0724
 4983SOL     OW16816   6.425   0.043   0.655 -0.3944  0.1801 -0.6348
 4983SOL    HW116817   6.338   0.003   0.647 -0.5305 -0.0430  1.5090
 4983SOL    HW216818   6.429   0.104   0.581 -2.0129 -0.4363 -1.2967
 4984SOL     OW16819   6.512   1.572   3.421  0.5388 -0.5116  0.1447
 4984SOL    HW116820   6.554   1.610   3.343 -1.7281  1.0553 -0.4186
 4984SOL    HW216821   6.431   1.534   3.387 -0.6206  0.4400  1.7565
 4985SOL     OW16822   4.029   2.770   7.081  0.2140  0.0548  0.0615
 4985SOL    HW116823   3.984   2.828   7.142 -1.2274 -0.4465 -0.4857
 4985SOL    HW216824   4.055   2.827   7.008 -0.8036  0.1185 -0.2676
 4986SOL     OW16825   1.695   2.036   7.737  0.2728  0.4454  0.6522
 4986SOL    HW116826   1.698   2.089   7.657  1.2307  0.2579  0.5442
 4986SOL    HW216827   1.725   2.095   7.806  3.1712 -0.3847  0.2402
 4987SOL     OW16828   8.836   7.366   3.794  0.3437 -0.2464  0.6037
 4987SOL    HW116829   8.914   7.350   3.742  0.8133  2.2639  0.3856
 4987SOL    HW216830   8.770   7.307   3.758  1.6219 -1.0945 -0.4435
 4988SOL     OW16831   7.198   0.105   2.785 -0.2497  0.3572  0.1941
 4988SOL    HW116832   7.131   0.038   2.769  0.9304 -0.7048 -0.5517
 4988SOL    HW216833   7.170   0.181   2.734 -0.5058 -0.3433 -0.7354
 4989SOL     OW16834   0.422   8.382   6.730 -0.3087 -0.6100 -0.5429
 4989SOL    HW116835   0.389   8.305   6.777 -2.1658  0.6157  0.2682
 4989SOL    HW216836   0.510   8.357   6.702 -0.8443 -3.0212 -0.3043
 4990SOL     OW16837   6.406   2.967   2.704  0.2768 -0.7149 -0.3451
 4990SOL    HW116838   6.322   3.008   2.727 -0.7865 -2.7920 -0.2477
 4990SOL    HW216839   6.381   2.892   2.649  2.2554 -0.1494 -2.1372
 4991SOL     OW16840   0.152   4.933   5.133  0.3000 -0.1697  0.2161
 4991SOL    HW116841   0.109   5.006   5.178 -0.4901  0.3342 -1.3073
 4991SOL    HW216842   0.097   4.857   5.151  0.8197 -0.3075  1.3364
 4992SOL     OW16843   8.476   4.526   7.483 -0.0356  0.0864 -0.3373
 4992SOL    HW116844   8.452   4.434   7.472 -1.5689  0.3898  0.2942
 4992SOL    HW216845   8.408   4.575   7.438  0.4097  0.9338 -0.1115
 4993SOL     OW16846   7.824   6.321   6.452  0.7885  0.0419  0.1834
 4993SOL    HW116847   7.792   6.266   6.380  1.3134  0.8191 -0.6699
 4993SOL    HW216848   7.892   6.268   6.494  0.5272 -0.3944  0.0643
 4994SOL     OW16849   6.040   6.617   6.875 -0.3023  0.1253  0.8183
 4994SOL    HW116850   6.079   6.676   6.940  1.1229  0.6256 -0.4195
 4994SOL    HW216851   5.982   6.674   6.823  0.4144  0.2759  0.1632
 4995SOL     OW16852   2.710   1.605   8.462 -0.0112 -0.2032 -0.0987
 4995SOL    HW116853   2.707   1.573   8.552  0.4292  1.5478  0.5844
 4995SOL    HW216854   2.621   1.635   8.444  0.2480  0.8769  0.3378
 4996SOL     OW16855   3.624   3.713   0.296 -0.3487 -0.1648 -0.9033
 4996SOL    HW116856   3.675   3.637   0.325 -1.0488  0.5721  2.8017
 4996SOL    HW216857   3.533   3.681   0.295 -0.6774  0.5659  0.9182
 4997SOL     OW16858   3.733   3.274   8.386  0.4763  0.1405 -0.1366
 4997SOL    HW116859   3.735   3.296   8.293  0.5281  0.8702  0.0315
 4997SOL    HW216860   3.743   3.358   8.431 -0.1897 -0.1249  0.5362
 4998SOL     OW16861   2.096   6.679   1.685 -0.1066  0.1616 -0.6784
 4998SOL    HW116862   2.017   6.629   1.708  1.3621 -1.2627  1.7301
 4998SOL    HW216863   2.110   6.736   1.760 -0.2618  2.3874 -2.2553
 4999SOL     OW16864   0.479   0.126   4.366 -0.3015 -0.0343 -0.1935
 4999SOL    HW116865   0.400   0.112   4.314  0.5679 -3.2106 -0.8709
 4999SOL    HW216866   0.464   0.078   4.447  0.5886  0.1039  0.0662
 5000SOL     OW16867   0.650   2.105   0.316 -0.2689  0.2608  0.2160
 5000SOL    HW116868   0.715   2.035   0.318 -0.2985  0.2049 -0.5255
 5000SOL    HW216869   0.578   2.071   0.369 -0.1611 -0.1512  0.1046
 5001SOL     OW16870   3.859   4.807   5.576  0.0325  0.2074  0.1709
 5001SOL    HW116871   3.937   4.752   5.580 -1.7354 -2.5073  0.2328
 5001SOL    HW216872   3.794   4.753   5.531 -0.2166  4.5423 -5.9251
 5002SOL     OW16873   3.283   4.156   1.055 -0.0546  0.6098  0.1737
 5002SOL    HW116874   3.280   4.176   1.148  0.7762 -0.3758  0.4228
 5002SOL    HW216875   3.358   4.098   1.044 -1.6755 -1.4623 -0.6733
 5003SOL     OW16876   3.294   3.041   3.912  0.1165  0.1695  0.2181
 5003SOL    HW116877   3.337   3.037   3.826 -1.1616  0.6664 -0.4812
 5003SOL    HW216878   3.359   3.080   3.970  0.4915  1.2103 -0.8757
 5004SOL     OW16879   4.782   7.597   3.500 -0.0070 -0.0439  1.0894
 5004SOL    HW116880   4.765   7.657   3.573 -0.1350 -1.0860  1.9347
 5004SOL    HW216881   4.877   7.602   3.487  0.0499 -0.0294  1.4900
 5005SOL     OW16882   2.195   5.573   6.750 -0.5580 -0.7058  0.0951
 5005SOL    HW116883   2.174   5.657   6.709 -1.3253 -1.0053 -0.1428
 5005SOL    HW216884   2.286   5.582   6.778 -1.3085  1.1109  2.2772
 5006SOL     OW16885   3.606   3.283   0.085 -0.2466 -0.7152 -0.2979
 5006SOL    HW116886   3.698   3.279   0.059 -0.2775 -1.1037 -0.3489
 5006SOL    HW216887   3.576   3.193   0.080 -0.3991 -0.7213  0.5724
 5007SOL     OW16888   2.296   7.760   1.584 -0.5280  0.4261 -0.1368
 5007SOL    HW116889   2.262   7.839   1.625 -0.2270  1.6713 -2.1695
 5007SOL    HW216890   2.390   7.763   1.600 -0.6427 -0.0908  0.6823
 5008SOL     OW16891   2.735   1.849   0.863  0.0239  0.2655 -0.2247
 5008SOL    HW116892   2.678   1.772   0.866  0.9772 -0.4383  1.8260
 5008SOL    HW216893   2.772   1.848   0.775 -0.8425 -0.9733 -0.6006
 5009SOL     OW16894   5.697   8.806   4.339 -0.1576  0.0274 -0.2730
 5009SOL    HW116895   5.664   8.772   4.422 -0.2983 -0.9382 -0.7110
 5009SOL    HW216896   5.756   8.738   4.308 -1.2574 -0.3210 -1.6936
 5010SOL     OW16897   3.585   2.521   3.570 -0.0577  0.1116  0.1140
 5010SOL    HW116898   3.678   2.540   3.566 -0.1923  0.6155 -2.5388
 5010SOL    HW216899   3.546   2.576   3.502 -2.2510 -0.4057  0.8448
 5011SOL     OW16900   2.482   8.030   0.085 -0.5556  0.3203 -0.1361
 5011SOL    HW116901   2.490   8.000   0.175 -0.2113  1.5310  0.2551
 5011SOL    HW216902   2.530   7.966   0.033 -3.8273 -2.5742  0.0060
 5012SOL     OW16903   4.264   3.950   3.612  0.0943 -0.1919 -0.4920
 5012SOL    HW116904   4.185   3.966   3.561  0.2672  1.2733 -0.3572
 5012SOL    HW216905   4.256   4.008   3.688  0.9979 -0.4778 -0.1607
 5013SOL     OW16906   6.593   1.984   6.626 -0.3509  0.3864 -0.1431
 5013SOL    HW116907   6.655   1.921   6.588 -0.7081 -0.7280  1.0484
 5013SOL    HW216908   6.620   1.992   6.717 -1.0066  1.1002 -0.0087
 5014SOL     OW16909   1.780   0.019   1.025 -0.4656  0.5664 -0.1685
 5014SOL    HW116910   1.773  -0.002   0.932 -1.1643 -3.0587  0.5379
 5014SOL    HW216911   1.871   0.047   1.037  0.2638 -0.9732 -1.6533
 5015SOL     OW16912   6.519   0.612   1.294  0.0229  0.0340 -0.5754
 5015SOL    HW116913   6.602   0.621   1.342 -0.0973 -0.2515 -0.3067
 5015SOL    HW216914   6.505   0.518   1.288 -1.3170  0.0630  1.2170
 5016SOL     OW16915   4.297   5.314   3.930 -0.1916 -0.2172 -0.0309
 5016SOL    HW116916   4.264   5.225   3.923  0.8829 -0.6070 -0.3840
 5016SOL    HW216917   4.380   5.306   3.976  1.6500  0.0921 -3.0111
 5017SOL     OW16918   7.239   7.641   0.040 -0.0924  0.4257 -0.2690
 5017SOL    HW116919   7.257   7.677  -0.046  0.4426  0.6897 -0.0538
 5017SOL    HW216920   7.318   7.661   0.091 -0.2543 -0.0443  0.1744
 5018SOL     OW16921   0.972   3.930   2.607  0.1765  0.4133 -0.7196
 5018SOL    HW116922   0.918   3.897   2.679  1.0466  0.3121 -0.1018
 5018SOL    HW216923   1.061   3.909   2.632  0.4471 -0.3946 -2.2399
 5019SOL     OW16924   4.407   6.600   7.184  0.7999 -0.1279 -0.5626
 5019SOL    HW116925   4.388   6.583   7.276 -1.1027 -0.5421 -0.9814
 5019SOL    HW216926   4.373   6.523   7.138 -0.8537  1.2774 -1.8359
 5020SOL     OW16927   8.177   8.792   2.570  1.1826 -0.2288  0.4259
 5020SOL    HW116928   8.226   8.724   2.615  1.5907 -0.2770 -0.0744
 5020SOL    HW216929   8.170   8.864   2.633  0.9621 -0.6366  0.8690
 5021SOL     OW16930   1.926   8.034   5.319 -0.1154  0.5693 -0.2068
 5021SOL    HW116931   1.849   8.032   5.261 -0.6534  0.4056  0.4993
 5021SOL    HW216932   1.889   8.032   5.407  0.7398 -2.4132  0.1866
 5022SOL     OW16933   0.829   0.402   0.722 -0.3181 -0.2093  0.5185
 5022SOL    HW116934   0.850   0.440   0.808  1.0056  0.8867 -0.2379
 5022SOL    HW216935   0.845   0.309   0.732  1.9655  0.1654  0.9280
 5023SOL     OW16936   5.423   4.153   0.978 -0.2031 -0.2031 -0.9716
 5023SOL    HW116937   5.368   4.090   1.024 -1.5973  2.0552  0.6914
 5023SOL    HW216938   5.366   4.189   0.910 -0.1942  0.7698 -0.4894
 5024SOL     OW16939   8.282   0.980   5.943 -0.0283  0.0201  0.2065
 5024SOL    HW116940   8.360   1.002   5.994  0.3032 -0.4125 -0.1099
 5024SOL    HW216941   8.308   0.906   5.889 -0.1930  0.8050 -1.0027
 5025SOL     OW16942   4.346   7.422   7.505  0.2681  0.4544 -0.1803
 5025SOL    HW116943   4.406   7.429   7.579 -1.7730 -0.9047  1.7139
 5025SOL    HW216944   4.375   7.344   7.457  0.9266  0.7084 -0.2134
 5026SOL     OW16945   7.089   1.121   0.286 -0.2065  0.4535 -0.2366
 5026SOL    HW116946   7.144   1.131   0.208 -1.9357  0.9082 -1.4607
 5026SOL    HW216947   7.086   1.027   0.302 -3.0665 -0.1640 -3.2863
 5027SOL     OW16948   6.565   2.497   5.052  0.1927  0.0125 -0.0776
 5027SOL    HW116949   6.650   2.531   5.024  0.4816  0.9547  1.8522
 5027SOL    HW216950   6.581   2.404   5.067  0.5190 -0.0987 -0.9952
 5028SOL     OW16951   6.308   4.097   5.717  0.2991  0.4309 -0.4246
 5028SOL    HW116952   6.316   4.133   5.628 -0.5527  0.4983 -0.4849
 5028SOL    HW216953   6.228   4.044   5.714  2.2647 -2.8028 -0.7884
 5029SOL     OW16954   4.870   0.131   1.802 -0.3504  0.3947 -0.5955
 5029SOL    HW116955   4.908   0.088   1.725  0.2608 -0.9255  0.4006
 5029SOL    HW216956   4.935   0.118   1.871 -1.0753  1.1783  0.2552
 5030SOL     OW16957   7.627   5.840   7.595  0.0914  0.2898 -0.3906
 5030SOL    HW116958   7.629   5.753   7.554  0.2287  0.1488 -0.0881
 5030SOL    HW216959   7.540   5.846   7.634 -0.8783  1.2775 -2.5062
 5031SOL     OW16960   8.247   3.165   2.253  0.2330 -0.4044 -0.4955
 5031SOL    HW116961   8.330   3.211   2.262 -0.7187  1.2515  0.4523
 5031SOL    HW216962   8.208   3.169   2.340 -0.3740 -2.1303 -0.6570
 5032SOL     OW16963   3.437   2.900   0.667 -0.1918  0.1261 -0.1089
 5032SOL    HW116964   3.364   2.938   0.715 -0.8811 -0.9240 -0.3048
 5032SOL    HW216965   3.425   2.930   0.577  1.1389  2.1526  0.3107
 5033SOL     OW16966   0.310   0.415   1.234 -0.1521  0.0058 -0.3008
 5033SOL    HW116967   0.297   0.453   1.321  2.0835 -0.5171  0.3040
 5033SOL    HW216968   0.223   0.421   1.193 -1.4941 -0.5188  2.2509
 5034SOL     OW16969   6.234   7.811   1.310 -0.1117  0.2617 -0.1351
 5034SOL    HW116970   6.212   7.890   1.359  1.1586  0.4291  0.2109
 5034SOL    HW216971   6.156   7.792   1.258 -1.7800 -0.3024  2.4001
 5035SOL     OW16972   6.805   0.766   2.570 -0.5130 -0.2250 -0.2124
 5035SOL    HW116973   6.748   0.742   2.498 -1.1390 -0.2067  0.2704
 5035SOL    HW216974   6.758   0.834   2.617  1.0885  1.8204 -1.3784
 5036SOL     OW16975   5.274   5.174   0.760 -0.1054  0.2140 -0.4627
 5036SOL    HW116976   5.227   5.253   0.733 -0.0754 -0.1744 -1.7263
 5036SOL    HW216977   5.239   5.105   0.703 -0.2439 -0.7261  0.7207
 5037SOL     OW16978   5.342   1.681   0.485 -0.4797  0.1119 -0.4926
 5037SOL    HW116979   5.290   1.658   0.408  0.8135 -3.8125 -0.4463
 5037SOL    HW216980   5.369   1.596   0.521 -0.0141  1.7939  3.6302
 5038SOL     OW16981   4.451   0.603   5.186  0.0928  0.2196 -0.5000
 5038SOL    HW116982   4.427   0.693   5.162 -0.2852  0.6012  1.2153
 5038SOL    HW216983   4.535   0.589   5.141  0.3417  1.5547 -0.5149
 5039SOL     OW16984   7.318   8.019   1.497  0.4272  0.2922  0.1091
 5039SOL    HW116985   7.297   7.986   1.409  0.8585  0.5780 -0.1059
 5039SOL    HW216986   7.285   7.951   1.556  0.5342 -0.1217 -0.2954
 5040SOL     OW16987   7.224   2.904   4.571  0.0126 -0.6750 -0.5434
 5040SOL    HW116988   7.214   2.884   4.664 -0.5930 -1.6926 -0.8137
 5040SOL    HW216989   7.303   2.958   4.566  0.2232 -0.8727  0.5194
 5041SOL     OW16990   5.806   8.262   8.145 -0.2180 -0.4278 -0.4277
 5041SOL    HW116991   5.775   8.220   8.225 -0.5540 -1.5135 -1.0926
 5041SOL    HW216992   5.796   8.194   8.077 -0.2266  0.5545 -1.4414
 5042SOL     OW16993   6.245   2.797   7.003  0.0528 -0.0512  0.4611
 5042SOL    HW116994   6.236   2.864   6.935 -1.5855 -2.0252 -1.4171
 5042SOL    HW216995   6.323   2.748   6.979  0.2509  0.1000  0.7968
 5043SOL     OW16996   6.356   1.938   2.484 -0.0597  0.1743 -0.3770
 5043SOL    HW116997   6.270   1.977   2.469  0.9211  2.0685 -1.3871
 5043SOL    HW216998   6.393   1.987   2.558  1.1514  1.2014 -1.6043
 5044SOL     OW16999   3.717   3.218   2.106  0.1689 -0.1727  0.0180
 5044SOL    HW117000   3.636   3.206   2.156 -1.3783  1.6680 -1.8723
 5044SOL    HW217001   3.740   3.310   2.119  1.9885 -0.6617  0.4879
 5045SOL     OW17002   3.317   4.716   5.302  0.0302 -0.0491 -0.3983
 5045SOL    HW117003   3.388   4.665   5.265  1.2008 -0.4183  2.1526
 5045SOL    HW217004   3.328   4.803   5.263  0.3911 -0.6944 -1.8209
 5046SOL     OW17005   1.252   3.154   4.801  0.5062  0.1987  0.5752
 5046SOL    HW117006   1.268   3.238   4.758  0.3024  0.5291  1.1284
 5046SOL    HW217007   1.191   3.109   4.743 -1.6087  1.5873  1.6010
 5047SOL     OW17008   6.956   7.527   2.217  0.2208  0.1188 -0.5085
 5047SOL    HW117009   6.935   7.442   2.255 -1.1153  1.1660  1.2960
 5047SOL    HW217010   6.995   7.576   2.290  0.6181  1.1750 -1.4034
 5048SOL     OW17011   1.926   2.087   8.925 -0.1997  0.1617  0.3125
 5048SOL    HW117012   2.009   2.131   8.938 -1.4310  2.6532  0.3231
 5048SOL    HW217013   1.864   2.158   8.905 -2.2228 -1.6350 -0.1704
 5049SOL     OW17014   3.176   2.233   4.882 -0.3647  0.1135  0.5047
 5049SOL    HW117015   3.224   2.313   4.860 -1.5085  1.1650  1.6233
 5049SOL    HW217016   3.236   2.185   4.940 -0.0177  0.6067  0.5662
 5050SOL     OW17017   2.420   1.729   8.945 -0.0311  0.8490 -0.1427
 5050SOL    HW117018   2.483   1.659   8.958 -0.2684  0.4852 -0.9032
 5050SOL    HW217019   2.428   1.752   8.853 -3.7024 -1.9319 -1.4050
 5051SOL     OW17020   7.995   5.416   1.611  0.4429  0.1938  0.3821
 5051SOL    HW117021   8.055   5.483   1.644 -1.2409  1.5451  0.8178
 5051SOL    HW217022   7.917   5.425   1.665 -1.0288  0.0202 -1.6053
 5052SOL     OW17023   3.915   1.142   1.433  0.3065 -0.8036  0.4879
 5052SOL    HW117024   3.910   1.188   1.517  1.1118 -2.3585  1.4331
 5052SOL    HW217025   3.844   1.078   1.435 -1.2537  0.7389 -1.1145
 5053SOL     OW17026   7.825   0.281   3.576 -0.0556 -0.4801 -0.7618
 5053SOL    HW117027   7.872   0.267   3.493 -0.9101 -1.4918 -1.0894
 5053SOL    HW217028   7.894   0.302   3.639  0.5424  1.1318 -1.8820
 5054SOL     OW17029   1.955   4.392   3.335 -0.0501 -0.7732 -0.2725
 5054SOL    HW117030   1.890   4.441   3.285 -0.4791  0.1043  1.0860
 5054SOL    HW217031   1.942   4.301   3.308 -2.7390 -0.8193  0.8498
 5055SOL     OW17032   4.122   5.154   8.428 -0.2588  0.0600  0.4653
 5055SOL    HW117033   4.096   5.062   8.420  1.4396 -0.5142  1.0890
 5055SOL    HW217034   4.207   5.158   8.384 -0.4588  1.4289  0.1548
 5056SOL     OW17035   1.815   3.059   6.585  0.2932  0.3278 -0.1481
 5056SOL    HW117036   1.763   2.989   6.546  0.6613  0.2531 -0.5099
 5056SOL    HW217037   1.779   3.139   6.548 -0.0984  0.3291  0.2304
 5057SOL     OW17038   2.598   3.259   7.654  0.1819  0.5666  0.0785
 5057SOL    HW117039   2.527   3.324   7.651  0.7803  1.1997 -1.9882
 5057SOL    HW217040   2.554   3.176   7.672 -0.8221  1.2443  0.8960
 5058SOL     OW17041   5.632   0.027   6.310  0.0964  0.4257  0.1641
 5058SOL    HW117042   5.681   0.089   6.364 -0.4887  1.2820 -0.2599
 5058SOL    HW217043   5.574  -0.017   6.371 -0.5676  1.3889  0.2507
 5059SOL     OW17044   2.528   0.650   3.873 -0.1010  0.1435  0.1598
 5059SOL    HW117045   2.482   0.601   3.942 -0.5395 -0.0024 -0.2285
 5059SOL    HW217046   2.490   0.738   3.877 -1.8491 -0.4805 -1.4324
 5060SOL     OW17047   4.348   8.369   5.386 -0.3922  0.0666  0.5654
 5060SOL    HW117048   4.297   8.434   5.336 -0.1719 -0.8138 -0.8809
 5060SOL    HW217049   4.282   8.318   5.433 -0.6215  0.8450  1.0945
 5061SOL     OW17050   5.772   5.555   2.526  0.7503  0.1806 -0.4377
 5061SOL    HW117051   5.801   5.464   2.529 -2.0830 -0.8173 -0.2382
 5061SOL    HW217052   5.708   5.562   2.597 -1.9922  1.1863 -2.8327
 5062SOL     OW17053   5.405   4.966   6.451  0.0115  0.3560 -0.0569
 5062SOL    HW117054   5.356   5.021   6.513  2.9445  1.7517  1.2321
 5062SOL    HW217055   5.422   4.885   6.499  1.0629  0.8807  0.4999
 5063SOL     OW17056   8.923   3.251   3.330  0.0610 -0.4562 -0.0283
 5063SOL    HW117057   8.905   3.282   3.419  0.0126  1.6804 -0.7247
 5063SOL    HW217058   8.861   3.180   3.316 -2.2130  1.2931  0.5491
 5064SOL     OW17059   5.302   0.258   8.196  0.5446  0.4414  0.5382
 5064SOL    HW117060   5.366   0.195   8.228 -1.2259 -1.1796  1.1035
 5064SOL    HW217061   5.279   0.228   8.109 -0.9764 -0.3029  1.1512
 5065SOL     OW17062   7.367   3.734   1.974 -0.0194  0.0149 -0.7738
 5065SOL    HW117063   7.395   3.786   2.050  3.7235 -2.2471 -0.3821
 5065SOL    HW217064   7.426   3.761   1.904  0.6613 -2.1546 -1.1011
 5066SOL     OW17065   1.874   6.851   8.823 -0.5280  0.2021  0.2017
 5066SOL    HW117066   1.848   6.924   8.767  1.4405  1.0041  0.2620
 5066SOL    HW217067   1.888   6.778   8.763 -0.0161  0.5979 -0.1700
 5067SOL     OW17068   6.399   5.416   0.812 -0.3364  0.6094  0.1059
 5067SOL    HW117069   6.322   5.364   0.791  0.1274 -0.1466  0.2249
 5067SOL    HW217070   6.434   5.444   0.727  0.2345 -0.5130 -0.0445
 5068SOL     OW17071   7.039   0.742   4.739 -0.0425 -0.2661 -0.5540
 5068SOL    HW117072   7.099   0.667   4.749 -0.7473 -0.7241  0.4391
 5068SOL    HW217073   7.087   0.815   4.778 -0.2573 -0.7250  0.6457
 5069SOL     OW17074   8.884   5.192   5.177 -0.3404  0.3511  0.2746
 5069SOL    HW117075   8.891   5.288   5.180  0.3486  0.4932 -2.8241
 5069SOL    HW217076   8.793   5.176   5.154 -0.2447  0.3094 -0.0786
 5070SOL     OW17077   7.663   4.706   0.827  0.3268  0.0242  0.1088
 5070SOL    HW117078   7.684   4.793   0.796 -0.6529  0.6378  1.0952
 5070SOL    HW217079   7.629   4.660   0.750  0.5687  0.5997 -0.3463
 5071SOL     OW17080   3.659   7.121   7.808  0.0403 -0.2646  0.3878
 5071SOL    HW117081   3.745   7.160   7.822 -0.3429  0.6017  0.4209
 5071SOL    HW217082   3.597   7.192   7.827 -0.7707 -1.4314  2.4479
 5072SOL     OW17083   6.620   2.642   1.141  0.5170 -0.0296  0.1716
 5072SOL    HW117084   6.541   2.594   1.167 -0.1263  0.7072 -0.3555
 5072SOL    HW217085   6.587   2.718   1.093  1.4407  1.6869  2.0886
 5073SOL     OW17086   5.549   2.314   1.250  0.1780  0.0246 -0.3788
 5073SOL    HW117087   5.521   2.401   1.223 -0.2353  0.0451  0.1021
 5073SOL    HW217088   5.469   2.272   1.283  0.3859 -0.5086 -0.5416
 5074SOL     OW17089   5.458   5.330   4.728 -0.0848 -0.0689  0.0070
 5074SOL    HW117090   5.370   5.362   4.707 -1.2279 -2.4895  0.7755
 5074SOL    HW217091   5.516   5.378   4.668 -1.8307  1.8991 -0.2442
 5075SOL     OW17092   0.876   6.276   8.722  0.1212  0.3564 -0.1110
 5075SOL    HW117093   0.881   6.298   8.815 -0.8903  0.9983 -0.1940
 5075SOL    HW217094   0.786   6.246   8.709  1.2418 -3.5626 -0.0904
 5076SOL     OW17095   5.956   4.599   2.928  0.0071 -0.4712 -0.0583
 5076SOL    HW117096   5.915   4.607   2.842 -1.5374  0.2884  0.6963
 5076SOL    HW217097   5.888   4.560   2.983  0.3948  0.5467  1.1843
 5077SOL     OW17098   3.312   6.214   4.842 -0.8335 -0.2413 -0.4433
 5077SOL    HW117099   3.357   6.198   4.925 -3.2815  0.9365  1.2384
 5077SOL    HW217100   3.374   6.267   4.791  0.5638 -0.6306  0.7690
 5078SOL     OW17101   7.744   0.571   5.212 -0.5252 -0.1206  0.4659
 5078SOL    HW117102   7.775   0.660   5.200 -0.3557  0.2038  2.8187
 5078SOL    HW217103   7.681   0.557   5.141  0.6625  1.2589 -0.9162
 5079SOL     OW17104   0.056   7.618   7.344  0.4161 -0.2835  0.1228
 5079SOL    HW117105   0.133   7.562   7.351  0.1056 -0.8408 -0.7694
 5079SOL    HW217106   0.056   7.669   7.424  1.4364 -0.6355  0.3573
 5080SOL     OW17107   3.145   8.612   4.120  0.1440  0.0356 -0.4558
 5080SOL    HW117108   3.205   8.545   4.087  0.4618  0.3405 -0.4969
 5080SOL    HW217109   3.131   8.589   4.211  1.0211  0.4613 -0.2006
 5081SOL     OW17110   0.756   4.202   1.811  0.5738 -0.1389 -0.4129
 5081SOL    HW117111   0.783   4.213   1.720 -0.7332  1.1345 -0.6835
 5081SOL    HW217112   0.819   4.253   1.862  0.0483  0.9248 -0.8152
 5082SOL     OW17113   7.181   4.172   7.465  0.0740 -0.1097 -0.7162
 5082SOL    HW117114   7.157   4.186   7.556  1.5051  1.0048 -0.4845
 5082SOL    HW217115   7.161   4.255   7.422  0.8976 -0.0872 -1.0728
 5083SOL     OW17116   0.183   3.231   4.346  0.1390  0.3406 -1.0821
 5083SOL    HW117117   0.196   3.237   4.251 -2.1322 -1.2061 -1.5694
 5083SOL    HW217118   0.094   3.199   4.356  0.9394 -1.3987  1.5509
 5084SOL     OW17119   0.106   7.469   0.844  0.2204 -0.1009 -0.1498
 5084SOL    HW117120   0.060   7.509   0.771  0.4935  1.5707  0.5616
 5084SOL    HW217121   0.043   7.470   0.916  1.2125  2.0175  0.7730
 5085SOL     OW17122   3.404   3.729   6.461 -0.2317 -0.1049 -0.0532
 5085SOL    HW117123   3.427   3.696   6.548 -0.6824  1.0813  0.5510
 5085SOL    HW217124   3.407   3.825   6.470 -0.0939  0.0417 -1.4025
 5086SOL     OW17125   7.940   4.698   1.593  0.6900 -0.0844  0.6735
 5086SOL    HW117126   7.886   4.620   1.605  1.6616 -0.7147  1.0916
 5086SOL    HW217127   8.009   4.672   1.532  1.3812  0.2460  1.2815
 5087SOL     OW17128   1.464   0.862   0.479  0.1330 -0.6852  0.3953
 5087SOL    HW117129   1.521   0.900   0.412 -0.0813 -1.9911 -0.5858
 5087SOL    HW217130   1.381   0.909   0.469  1.0478  1.4314  2.0304
 5088SOL     OW17131   4.386   0.829   7.657 -0.7570  0.0697  0.5193
 5088SOL    HW117132   4.411   0.784   7.576  1.0476 -1.0200  1.6054
 5088SOL    HW217133   4.353   0.914   7.628 -0.5010 -0.4283 -1.3714
 5089SOL     OW17134   1.439   8.836   6.865 -0.0784  0.0726 -0.0799
 5089SOL    HW117135   1.426   8.930   6.857 -0.7913 -0.1695 -2.7040
 5089SOL    HW217136   1.390   8.811   6.944 -1.0765  1.6955 -0.1576
 5090SOL     OW17137   3.979   6.437   4.768  0.2479  0.1899  0.1931
 5090SOL    HW117138   3.973   6.528   4.736 -0.6687  0.2513  0.5003
 5090SOL    HW217139   3.979   6.384   4.688  3.0160  0.5070 -0.1050
 5091SOL     OW17140   6.964   8.952   4.189 -0.1490 -0.2301 -0.2460
 5091SOL    HW117141   6.999   8.874   4.232  1.6306  0.7846  0.2464
 5091SOL    HW217142   6.961   8.929   4.096 -1.2052 -1.4133  0.0501
 5092SOL     OW17143   7.400   5.576   5.838 -0.0107  0.2466 -0.2274
 5092SOL    HW117144   7.334   5.557   5.772  0.4730  1.1779 -1.0131
 5092SOL    HW217145   7.464   5.631   5.792 -0.1516  1.7203  1.2703
 5093SOL     OW17146   3.366   0.278   8.856  0.1005  0.4192 -0.4429
 5093SOL    HW117147   3.414   0.222   8.796 -2.1839 -1.2681 -0.8198
 5093SOL    HW217148   3.370   0.365   8.816  0.6960 -0.1813 -1.7358
 5094SOL     OW17149   2.668   4.346   4.170 -0.7275 -0.7462 -0.2170
 5094SOL    HW117150   2.697   4.374   4.083 -0.3724  0.0133  0.1357
 5094SOL    HW217151   2.575   4.366   4.172 -1.1071 -2.2755 -0.9968
 5095SOL     OW17152   0.234   6.023   7.401 -0.5977  0.3797 -0.7232
 5095SOL    HW117153   0.325   6.040   7.377 -0.3086 -2.3101 -1.8193
 5095SOL    HW217154   0.183   6.059   7.329 -0.1385 -1.2811 -1.9373
 5096SOL     OW17155   8.327   4.753   8.289 -0.2454 -0.1107 -0.2895
 5096SOL    HW117156   8.367   4.813   8.352 -0.6036  0.8579 -0.9625
 5096SOL    HW217157   8.249   4.799   8.258  0.6950  0.1192 -2.5300
 5097SOL     OW17158   5.606   1.665   3.552  0.3030 -0.7530 -0.0537
 5097SOL    HW117159   5.638   1.692   3.638 -0.4705 -1.8249  0.5941
 5097SOL    HW217160   5.569   1.745   3.513 -1.5040 -0.7107  1.6072
 5098SOL     OW17161   3.198   2.508   2.703  0.2737  0.9206 -0.1858
 5098SOL    HW117162   3.289   2.513   2.732 -0.1051 -1.5158  1.7474
 5098SOL    HW217163   3.193   2.571   2.630  3.4045  1.2978 -0.2354
 5099SOL     OW17164   0.898   4.544   6.034 -0.1784  0.2269 -0.1627
 5099SOL    HW117165   0.832   4.498   6.084  1.1254 -1.9057 -0.2783
 5099SOL    HW217166   0.858   4.559   5.948 -1.3927  1.3484  0.5655
 5100SOL     OW17167   4.909   1.479   4.823  0.7380 -0.1112  0.2835
 5100SOL    HW117168   4.940   1.491   4.733 -0.6741  0.2551 -0.1807
 5100SOL    HW217169   4.844   1.548   4.835  2.6436  1.4691  2.4572
 5101SOL     OW17170   4.039   1.844   2.572 -0.2088  0.0987  0.0177
 5101SOL    HW117171   3.981   1.913   2.604 -0.0950 -0.0516  0.5568
 5101SOL    HW217172   4.123   1.862   2.614  0.4589  0.9658 -1.6229
 5102SOL     OW17173   3.173   5.677   1.726 -0.3539 -0.1366 -0.0991
 5102SOL    HW117174   3.220   5.729   1.659  0.3738  0.7595  1.0653
 5102SOL    HW217175   3.115   5.621   1.675 -0.5127  1.1815 -1.4695
 5103SOL     OW17176   8.309   8.023   6.339  0.4402 -0.8213 -0.0135
 5103SOL    HW117177   8.275   8.013   6.427  0.1055 -0.5938 -0.1131
 5103SOL    HW217178   8.394   8.064   6.350  0.0303  0.0047  0.1651
 5104SOL     OW17179   3.642   4.588   8.244  0.2664 -0.0650 -0.2481
 5104SOL    HW117180   3.568   4.540   8.207  0.5661 -0.6872 -0.0542
 5104SOL    HW217181   3.718   4.535   8.222  0.5161 -0.1165  0.7184
 5105SOL     OW17182   8.253   0.303   8.526 -0.0098  0.0116  0.3443
 5105SOL    HW117183   8.217   0.267   8.444 -0.0551 -1.8113  1.1210
 5105SOL    HW217184   8.199   0.265   8.595  1.4914 -0.3667  1.3662
 5106SOL     OW17185   8.938   8.615   4.515 -0.6584 -0.2705  0.3430
 5106SOL    HW117186   8.874   8.580   4.453 -1.2533  2.5303 -0.7765
 5106SOL    HW217187   9.017   8.626   4.463 -0.2019 -0.8002  0.9185
 5107SOL     OW17188   1.067   7.835   0.563 -0.4341 -0.0867 -0.2793
 5107SOL    HW117189   1.035   7.924   0.548 -0.9233 -0.1287  0.4595
 5107SOL    HW217190   0.988   7.781   0.565 -0.3370 -0.2194  1.3732
 5108SOL     OW17191   6.775   7.504   4.147 -0.2771  0.0023 -0.0159
 5108SOL    HW117192   6.817   7.479   4.229 -0.2549 -0.6165 -0.2070
 5108SOL    HW217193   6.787   7.428   4.090 -0.8102  0.1910 -0.3921
 5109SOL     OW17194   4.353   5.176   0.863  0.2970  0.1587 -0.3116
 5109SOL    HW117195   4.306   5.105   0.907  2.0540 -0.4765  0.6462
 5109SOL    HW217196   4.411   5.213   0.931  2.9661 -0.7201 -1.9340
 5110SOL     OW17197   6.714   8.058   4.695  0.2580 -0.1899 -0.2765
 5110SOL    HW117198   6.725   8.128   4.760  4.4138 -0.5066 -0.3386
 5110SOL    HW217199   6.762   7.983   4.732  0.1609 -1.3575 -2.3577
 5111SOL     OW17200   5.825   2.634   5.855 -0.0388 -0.1574 -0.6926
 5111SOL    HW117201   5.909   2.589   5.869 -0.3542 -0.3572  0.7132
 5111SOL    HW217202   5.845   2.703   5.792  1.0407 -0.5942 -0.8554
 5112SOL     OW17203   6.841   7.025   0.708  0.2760 -0.5903 -0.2143
 5112SOL    HW117204   6.858   7.065   0.623 -1.9330  0.5941 -0.1713
 5112SOL    HW217205   6.758   6.979   0.697  0.9597 -2.1732  0.7744
 5113SOL     OW17206   3.765   8.710   1.952 -0.1248 -0.1287  0.2418
 5113SOL    HW117207   3.721   8.778   1.901  0.6278  0.0149 -0.2311
 5113SOL    HW217208   3.844   8.753   1.986 -0.8008 -0.1058  1.8661
 5114SOL     OW17209   0.266   4.330   4.820 -0.5953 -0.1892 -0.0555
 5114SOL    HW117210   0.293   4.376   4.741  1.9095  0.9522  1.3638
 5114SOL    HW217211   0.316   4.248   4.819 -0.0605  0.1215  0.6516
 5115SOL     OW17212   6.593   2.272   2.736  0.2682 -0.0880  0.0499
 5115SOL    HW117213   6.505   2.235   2.740  0.3693 -0.3732 -0.3418
 5115SOL    HW217214   6.582   2.355   2.691 -0.0171  0.5556  1.2561
 5116SOL     OW17215   5.805   0.046   5.319  0.0586  0.4181  0.4744
 5116SOL    HW117216   5.772   0.038   5.409 -1.9314 -0.7684 -0.2955
 5116SOL    HW217217   5.844  -0.039   5.301 -3.4425 -1.0314 -1.1435
 5117SOL     OW17218   2.748   8.886   0.177 -0.3189  0.0243 -0.2859
 5117SOL    HW117219   2.813   8.896   0.247 -0.5770  0.6557 -0.1300
 5117SOL    HW217220   2.792   8.915   0.098  0.0840 -1.0036 -0.4623
 5118SOL     OW17221   3.825   6.566   0.273  0.2839 -0.1914  0.1448
 5118SOL    HW117222   3.740   6.573   0.317 -0.1106 -0.5197 -0.5516
 5118SOL    HW217223   3.856   6.478   0.295  1.1849  0.4687  1.6829
 5119SOL     OW17224   6.018   1.640   1.218 -0.3375  0.6011 -0.3681
 5119SOL    HW117225   6.063   1.724   1.211 -0.4462  0.5283 -2.1755
 5119SOL    HW217226   6.073   1.589   1.279  0.4536  1.5014 -0.3044
 5120SOL     OW17227   3.650   4.468   3.493  0.3155  0.3330 -0.4985
 5120SOL    HW117228   3.611   4.419   3.421 -1.2866 -0.7581  1.0352
 5120SOL    HW217229   3.740   4.486   3.464  0.0536 -1.0247 -2.2932
 5121SOL     OW17230   4.500   3.097   7.082 -0.4621  0.2592  0.2244
 5121SOL    HW117231   4.423   3.042   7.071  0.0007 -0.7345  1.5533
 5121SOL    HW217232   4.499   3.157   7.008 -1.4506 -1.0021 -0.8156
 5122SOL     OW17233   3.193   7.650   0.948 -0.3164  0.1391  0.6145
 5122SOL    HW117234   3.147   7.733   0.963  1.6026  1.4474 -0.3124
 5122SOL    HW217235   3.184   7.603   1.030 -2.6868  0.6027  0.6904
 5123SOL     OW17236   8.026   5.943   2.276 -0.0112 -0.6482 -0.6679
 5123SOL    HW117237   7.969   5.972   2.204  0.5552  2.0158 -0.1226
 5123SOL    HW217238   7.968   5.936   2.351 -0.0379 -0.3392 -0.6612
 5124SOL     OW17239   2.898   1.167   7.776  0.0790  0.0080 -0.4433
 5124SOL    HW117240   2.993   1.178   7.783 -0.0352  0.3611  0.7575
 5124SOL    HW217241   2.883   1.144   7.684  1.4214 -1.1437 -0.4077
 5125SOL     OW17242   6.165   5.798   8.601 -0.5742  0.2658 -0.1476
 5125SOL    HW117243   6.126   5.774   8.517 -0.4930  2.4109 -0.8571
 5125SOL    HW217244   6.121   5.881   8.624  1.2787  1.0817  0.5969
 5126SOL     OW17245   1.682   3.959   1.409 -0.3850  0.1568  0.2735
 5126SOL    HW117246   1.760   3.949   1.464  0.4411 -0.3865 -0.9434
 5126SOL    HW217247   1.709   4.022   1.341 -1.9624  2.2369  1.4635
 5127SOL     OW17248   4.297   3.912   1.506 -0.4104 -0.2305 -0.2842
 5127SOL    HW117249   4.304   3.833   1.452 -2.1150  0.5352 -1.7371
 5127SOL    HW217250   4.244   3.886   1.581 -1.9274 -0.2472 -1.3220
 5128SOL     OW17251   1.165   4.787   2.983  0.2155 -0.1311  0.0912
 5128SOL    HW117252   1.247   4.742   2.962 -0.2527 -1.7901  1.5321
 5128SOL    HW217253   1.134   4.743   3.062 -0.5176  2.4987  1.4023
 5129SOL     OW17254   5.007   3.948   0.471 -0.3276  0.0749  0.8675
 5129SOL    HW117255   5.065   4.012   0.512  0.4513  0.8630 -1.3412
 5129SOL    HW217256   4.937   4.000   0.431 -0.2697 -0.5242 -0.0448
 5130SOL     OW17257   4.441   4.033   3.434  0.1206 -0.0448  0.1997
 5130SOL    HW117258   4.516   4.031   3.493 -0.1614  0.9736  0.6291
 5130SOL    HW217259   4.372   3.985   3.481 -0.4473  1.6852  1.2518
 5131SOL     OW17260   2.592   7.164   6.302  0.5573  0.5428 -0.1474
 5131SOL    HW117261   2.507   7.187   6.264 -0.2522 -1.1272  0.5276
 5131SOL    HW217262   2.613   7.080   6.261  1.3019  0.3603  0.5903
 5132SOL     OW17263   4.216   7.074   4.633 -0.2688 -0.1419 -0.0600
 5132SOL    HW117264   4.284   7.089   4.568 -1.2377 -2.0605 -1.6269
 5132SOL    HW217265   4.264   7.043   4.711  0.7233 -0.4892 -0.7858
 5133SOL     OW17266   4.850   8.508   2.495  0.3347  0.2080 -0.2346
 5133SOL    HW117267   4.892   8.435   2.540  0.4676  0.2264 -0.3288
 5133SOL    HW217268   4.883   8.586   2.540 -1.3074  0.1646  1.1821
 5134SOL     OW17269   7.851   6.377   0.802  0.4820  0.6825  0.0028
 5134SOL    HW117270   7.827   6.435   0.730  0.2694  1.9727  1.0637
 5134SOL    HW217271   7.909   6.312   0.762 -0.7977  0.4632 -1.6026
 5135SOL     OW17272   7.925   1.189   6.589  0.1955  0.3839  0.4451
 5135SOL    HW117273   7.956   1.255   6.528  2.0543 -0.4055  0.4589
 5135SOL    HW217274   7.990   1.190   6.660 -1.2883  0.4915  1.8599
 5136SOL     OW17275   0.989   2.283   1.471  0.2780  0.3288 -0.5648
 5136SOL    HW117276   1.058   2.246   1.416  1.0326  1.8527 -0.6951
 5136SOL    HW217277   1.007   2.377   1.472 -0.5387  0.5018  1.1602
 5137SOL     OW17278   4.690   4.991   1.997  0.6696  0.1062  0.7317
 5137SOL    HW117279   4.722   4.901   1.988  1.2357  0.3270  0.4789
 5137SOL    HW217280   4.767   5.046   1.980  0.0705  0.6609 -0.3099
 5138SOL     OW17281   0.004   0.688   4.591  0.2604 -0.1393 -0.1380
 5138SOL    HW117282  -0.072   0.744   4.575  0.1306  0.6010  2.5394
 5138SOL    HW217283  -0.029   0.618   4.648  0.9380 -1.6364 -1.5296
 5139SOL     OW17284   5.577   4.921   1.899 -0.5819  0.0086 -0.3180
 5139SOL    HW117285   5.516   4.849   1.882  0.3208 -0.9056  0.1943
 5139SOL    HW217286   5.541   4.995   1.851 -2.0644 -0.5170 -0.0580
 5140SOL     OW17287   1.086   5.480   6.216 -0.2224 -0.2805  0.3784
 5140SOL    HW117288   1.172   5.438   6.218  0.4009  0.9316  0.5383
 5140SOL    HW217289   1.101   5.562   6.169 -0.8511  0.8350  2.0281
 5141SOL     OW17290   5.569   4.276   2.755  0.0845  0.1393 -0.7307
 5141SOL    HW117291   5.653   4.253   2.716  0.8337 -0.8343  1.3065
 5141SOL    HW217292   5.574   4.242   2.845 -2.1833  0.7519 -0.3065
 5142SOL     OW17293   6.745   6.608   2.491 -0.6628  0.3923  0.2349
 5142SOL    HW117294   6.808   6.604   2.419 -0.3172 -0.6443  0.5696
 5142SOL    HW217295   6.707   6.695   2.485 -2.0405 -0.2714 -2.3816
 5143SOL     OW17296   2.970   0.597   2.637  0.4788 -0.0006  0.5034
 5143SOL    HW117297   3.064   0.582   2.645  0.4139 -0.3885  0.5759
 5143SOL    HW217298   2.933   0.563   2.719  0.3090  0.4644  0.6248
 5144SOL     OW17299   6.469   2.067   7.666  0.0253  0.6629 -0.7447
 5144SOL    HW117300   6.433   2.128   7.602  1.2696  0.8465 -1.2955
 5144SOL    HW217301   6.502   1.994   7.614 -1.3454 -0.4560 -0.1002
 5145SOL     OW17302   2.287   3.667   4.114  0.1814 -0.2777  0.1970
 5145SOL    HW117303   2.319   3.592   4.065 -0.5281 -0.2088 -0.3984
 5145SOL    HW217304   2.353   3.682   4.181  0.1755 -1.6228  0.5308
 5146SOL     OW17305   5.832   1.934   6.687  0.1376  0.0151  0.0790
 5146SOL    HW117306   5.850   1.850   6.728 -0.7286  0.2625  0.9950
 5146SOL    HW217307   5.736   1.941   6.686  0.1465  0.2833 -1.4586
 5147SOL     OW17308   0.946   1.717   6.866  0.4035  0.2176 -0.7614
 5147SOL    HW117309   0.998   1.652   6.818  0.9610  0.5229 -0.5918
 5147SOL    HW217310   0.960   1.696   6.958  0.0031  0.1364 -0.7193
 5148SOL     OW17311   5.610   5.143   6.464  0.5845  0.0438  0.4567
 5148SOL    HW117312   5.523   5.102   6.458 -0.0410  1.4616 -1.0250
 5148SOL    HW217313   5.671   5.074   6.441 -0.4975  0.0610 -3.0159
 5149SOL     OW17314   4.370   2.769   4.916 -0.4243 -0.5097  0.0211
 5149SOL    HW117315   4.285   2.725   4.921 -0.1867 -1.1505 -1.1653
 5149SOL    HW217316   4.368   2.815   4.831  0.5682 -0.8838 -0.2153
 5150SOL     OW17317   6.760   3.294   8.951  0.3363 -0.0497  0.0489
 5150SOL    HW117318   6.842   3.315   8.995 -0.3755 -1.4234  2.1579
 5150SOL    HW217319   6.752   3.199   8.959 -1.2992  0.0121 -0.4249
 5151SOL     OW17320   8.897   7.051   1.979  0.9133  0.1747  0.2530
 5151SOL    HW117321   8.960   6.982   2.003 -0.4496 -0.0625  3.6857
 5151SOL    HW217322   8.814   7.004   1.970  0.6708  0.8752 -1.5264
 5152SOL     OW17323   7.409   1.205   7.751  0.3202 -0.0102 -0.1440
 5152SOL    HW117324   7.372   1.162   7.673 -0.2992 -0.5147  0.4103
 5152SOL    HW217325   7.446   1.133   7.802  1.6012  0.4290 -0.4177
 5153SOL     OW17326   1.007   3.306   2.999 -0.5730  0.4728 -0.1039
 5153SOL    HW117327   1.007   3.211   2.990 -1.1368  0.4062  0.4863
 5153SOL    HW217328   1.011   3.339   2.910  0.3775 -0.0961 -0.2813
 5154SOL     OW17329   3.995   7.423   0.685  0.2344  0.2710 -0.3660
 5154SOL    HW117330   3.961   7.455   0.601 -0.7427 -1.6326 -0.7570
 5154SOL    HW217331   3.917   7.407   0.738  0.7600 -0.0420  0.3265
 5155SOL     OW17332   0.695   7.786   1.437 -0.3081 -0.3428 -0.4729
 5155SOL    HW117333   0.629   7.807   1.370 -1.3961  1.5374  1.0896
 5155SOL    HW217334   0.644   7.750   1.510  0.2904  1.4839  0.9161
 5156SOL     OW17335   6.269   4.539   8.640  0.5425  0.2401  0.4935
 5156SOL    HW117336   6.293   4.519   8.549 -1.9273  1.6303 -0.5723
 5156SOL    HW217337   6.252   4.633   8.640 -2.4294 -0.1952  1.5921
 5157SOL     OW17338   8.691   8.809   3.745 -0.2199  0.3291 -0.1407
 5157SOL    HW117339   8.695   8.877   3.813  0.0666  0.4503 -0.2748
 5157SOL    HW217340   8.733   8.850   3.669 -0.6243  0.2282 -0.4184
 5158SOL     OW17341   3.183   1.117   2.143  0.4789  0.0487 -0.0145
 5158SOL    HW117342   3.212   1.088   2.056 -0.8023 -1.8020  0.1314
 5158SOL    HW217343   3.174   1.212   2.135  1.6086  0.0649 -1.5188
 5159SOL     OW17344   0.236   4.332   0.655 -0.2374  0.1967 -0.9850
 5159SOL    HW117345   0.244   4.424   0.629  0.6385  0.0845 -1.1635
 5159SOL    HW217346   0.276   4.284   0.582  0.8371 -0.2186 -0.1614
 5160SOL     OW17347   8.986   7.433   0.305  0.2250 -0.8600  0.5851
 5160SOL    HW117348   9.052   7.367   0.285  0.8330 -0.6840  1.8523
 5160SOL    HW217349   8.999   7.501   0.240  0.9083 -1.1066  0.4608
 5161SOL     OW17350   2.975   2.714   7.440 -0.4827 -0.4380  0.1396
 5161SOL    HW117351   2.988   2.785   7.377 -0.7505 -0.3251  0.2089
 5161SOL    HW217352   2.880   2.699   7.441 -0.4218 -0.8446  0.0762
 5162SOL     OW17353   3.588   4.845   6.649 -0.1074  0.2916 -0.0697
 5162SOL    HW117354   3.552   4.759   6.670  0.4522 -0.1149 -0.7593
 5162SOL    HW217355   3.512   4.897   6.621 -0.4623  0.0663  0.4649
 5163SOL     OW17356   1.735   5.822   5.061  0.2646  0.2440  0.4166
 5163SOL    HW117357   1.730   5.729   5.038 -0.7530  0.3694  0.1005
 5163SOL    HW217358   1.645   5.847   5.080  0.0804  1.8269 -2.1211
 5164SOL     OW17359   1.966   3.765   7.409  0.5564  0.0908  0.7722
 5164SOL    HW117360   1.966   3.847   7.458 -0.3911  0.2162  0.5859
 5164SOL    HW217361   1.954   3.791   7.318  1.2086 -0.2057  0.5971
 5165SOL     OW17362   5.002   6.714   0.394 -0.3835  0.3219  0.2041
 5165SOL    HW117363   4.934   6.756   0.342 -0.5128  0.7556  0.7234
 5165SOL    HW217364   5.031   6.781   0.456 -0.6809 -0.3700  1.1292
 5166SOL     OW17365   2.969   8.455   8.241  0.4492  0.0701  0.2918
 5166SOL    HW117366   2.981   8.368   8.278 -0.8207 -1.3327 -2.3182
 5166SOL    HW217367   2.974   8.515   8.316 -1.0449 -2.4269  2.5459
 5167SOL     OW17368   0.504   5.467   5.452 -0.1733 -0.1773 -0.4063
 5167SOL    HW117369   0.493   5.484   5.546  0.5834  1.0850 -0.5299
 5167SOL    HW217370   0.426   5.416   5.428 -0.4026 -0.4785  0.8904
 5168SOL     OW17371   1.799   6.180   1.345  0.2232 -0.4209 -0.0904
 5168SOL    HW117372   1.811   6.219   1.258  0.1542  0.5591  0.3312
 5168SOL    HW217373   1.877   6.205   1.394  0.1136 -0.7023  0.2341
 5169SOL     OW17374   2.525   8.924   7.062  0.4896 -0.5762 -0.1598
 5169SOL    HW117375   2.431   8.942   7.072  0.4701  0.5595 -2.0043
 5169SOL    HW217376   2.540   8.849   7.119 -1.3540 -0.2716  0.8423
 5170SOL     OW17377   1.086   3.831   5.153 -0.3643  0.4520 -0.0368
 5170SOL    HW117378   1.142   3.807   5.079  0.1845  1.7344 -0.0740
 5170SOL    HW217379   1.001   3.849   5.114 -0.6267 -0.8025 -0.0767
 5171SOL     OW17380   3.064   3.087   3.648  0.1664  0.0840  0.2842
 5171SOL    HW117381   2.981   3.073   3.603 -0.8972 -0.2851  2.2768
 5171SOL    HW217382   3.084   3.003   3.688  0.9911  0.4461  0.6536
 5172SOL     OW17383   2.404   2.149   7.185 -0.3431 -0.6428  0.0890
 5172SOL    HW117384   2.434   2.060   7.206 -0.6751 -1.1865 -1.5785
 5172SOL    HW217385   2.331   2.135   7.125 -0.8146  0.7695  0.3083
 5173SOL     OW17386   5.662   6.364   2.879 -0.0371  0.1498  0.5922
 5173SOL    HW117387   5.695   6.453   2.870 -3.8451  1.7378  0.4336
 5173SOL    HW217388   5.622   6.345   2.794 -1.3801 -0.7219  1.3855
 5174SOL     OW17389   0.354   5.687   3.811 -0.0095  0.8010 -0.3919
 5174SOL    HW117390   0.419   5.620   3.788 -0.2808  0.2410  0.4131
 5174SOL    HW217391   0.403   5.749   3.866 -0.5646 -0.7440  2.0411
 5175SOL     OW17392   1.291   7.058   4.983 -0.4105 -0.0727 -0.3878
 5175SOL    HW117393   1.382   7.083   4.967 -0.3715  0.1332  0.1148
 5175SOL    HW217394   1.255   7.038   4.897  0.1091 -0.1453 -0.5905
 5176SOL     OW17395   6.361   6.482   6.030 -0.0576  0.0033  0.2515
 5176SOL    HW117396   6.362   6.456   5.938 -1.1104 -1.1154  0.5257
 5176SOL    HW217397   6.417   6.560   6.034 -0.5083  0.4533 -1.4435
 5177SOL     OW17398   5.190   7.182   7.137  0.0041 -0.2823  0.7272
 5177SOL    HW117399   5.258   7.133   7.090  1.7683  0.6453  2.1548
 5177SOL    HW217400   5.142   7.116   7.186  1.1010 -0.8173  1.1251
 5178SOL     OW17401   4.948   1.240   6.850  0.1214 -0.3012  0.5603
 5178SOL    HW117402   4.953   1.239   6.946 -0.4005  1.6736  0.6400
 5178SOL    HW217403   4.864   1.199   6.830  0.0573 -0.3775  0.9753
 5179SOL     OW17404   4.023   8.645   3.490  0.2176 -0.4093 -0.2413
 5179SOL    HW117405   4.002   8.695   3.569 -1.0141 -0.8332 -0.2709
 5179SOL    HW217406   4.050   8.712   3.426  1.3175 -0.0771  0.5495
 5180SOL     OW17407   1.891   4.114   6.113 -0.7746 -0.9600  0.6676
 5180SOL    HW117408   1.811   4.092   6.065 -2.5231 -1.5869  3.6557
 5180SOL    HW217409   1.878   4.203   6.144  0.4682 -0.4469 -0.1902
 5181SOL     OW17410   7.954   1.169   4.342  0.0953 -0.0124 -0.0837
 5181SOL    HW117411   7.903   1.102   4.387 -1.0553  0.5301 -0.5311
 5181SOL    HW217412   7.970   1.132   4.255  1.2821 -0.5594  0.3442
 5182SOL     OW17413   8.043   6.180   0.362 -0.1213  0.5105 -0.5376
 5182SOL    HW117414   8.096   6.101   0.356 -0.9074 -0.3979  2.7828
 5182SOL    HW217415   7.954   6.151   0.344 -0.1185  1.1896 -1.7855
 5183SOL     OW17416   1.940   6.699   4.541 -0.1851 -0.2077  0.7776
 5183SOL    HW117417   2.005   6.727   4.476 -0.9595 -0.7424 -0.2524
 5183SOL    HW217418   1.909   6.781   4.579  1.0822  0.0558  1.2938
 5184SOL     OW17419   3.001   2.387   3.587 -0.0191 -0.0308 -0.3250
 5184SOL    HW117420   3.095   2.382   3.607 -0.1736 -1.1146  0.2227
 5184SOL    HW217421   2.990   2.331   3.510 -0.2115  0.1091 -0.3977
 5185SOL     OW17422   6.560   7.011   8.328  1.0007  0.6876  0.2035
 5185SOL    HW117423   6.507   7.085   8.356 -1.5595 -0.7603 -0.5510
 5185SOL    HW217424   6.601   6.978   8.408 -2.5581 -0.5997  1.6645
 5186SOL     OW17425   2.000   8.538   8.941  0.0526 -0.0988  0.7130
 5186SOL    HW117426   2.094   8.518   8.936  0.0911 -0.4230  2.2129
 5186SOL    HW217427   1.960   8.454   8.966 -0.2964  0.5937  2.6806
 5187SOL     OW17428   4.152   6.851   4.108 -0.5367 -0.3906  0.4281
 5187SOL    HW117429   4.200   6.932   4.126 -1.2593  0.0960  0.2503
 5187SOL    HW217430   4.063   6.881   4.088 -0.7773 -1.2247  0.2222
 5188SOL     OW17431   8.887   3.191   2.299 -0.1762  0.4736 -0.3313
 5188SOL    HW117432   8.871   3.209   2.392 -0.4789  1.6202 -0.5950
 5188SOL    HW217433   8.978   3.161   2.296 -0.7079 -1.4274  0.5587
 5189SOL     OW17434   8.897   7.113   0.135 -0.0652  0.0761  0.1495
 5189SOL    HW117435   8.917   7.096   0.226 -1.5298  0.8024  0.6546
 5189SOL    HW217436   8.801   7.119   0.132 -0.3993 -3.4730 -2.0835
 5190SOL     OW17437   3.103   2.068   3.794 -0.2957 -0.1630  0.6892
 5190SOL    HW117438   3.095   2.005   3.865  1.5006  0.0864  1.1565
 5190SOL    HW217439   3.186   2.047   3.752 -1.6071 -0.7420 -1.8247
 5191SOL     OW17440   0.717   0.669   6.350  0.5806 -0.2592 -0.4891
 5191SOL    HW117441   0.625   0.653   6.370  0.6723 -2.1358 -1.3558
 5191SOL    HW217442   0.763   0.594   6.386  1.8636  0.9176  0.3964
 5192SOL     OW17443   2.406   1.217   7.782  0.5682 -0.1124  0.2521
 5192SOL    HW117444   2.478   1.253   7.834  1.1978 -1.2559  0.1915
 5192SOL    HW217445   2.336   1.201   7.845  0.5643  0.4776  0.4021
 5193SOL     OW17446   1.663   3.221   2.392 -0.2323 -0.3977 -0.0729
 5193SOL    HW117447   1.611   3.218   2.312  0.0739  1.2793 -0.3906
 5193SOL    HW217448   1.674   3.130   2.418 -0.5639 -0.9625 -1.7992
 5194SOL     OW17449   5.797   5.762   3.835  0.0146  0.1523  0.4043
 5194SOL    HW117450   5.770   5.835   3.780 -0.7896  0.6552  1.4288
 5194SOL    HW217451   5.822   5.802   3.918 -0.5151 -0.7301  1.0075
 5195SOL     OW17452   2.732   1.308   5.440  0.5188  0.1708 -0.4627
 5195SOL    HW117453   2.733   1.212   5.449  0.4322  0.0309 -1.7590
 5195SOL    HW217454   2.657   1.335   5.493  0.0008 -0.5802 -0.7738
 5196SOL     OW17455   2.596   7.639   8.208 -0.1708 -0.2540 -0.3425
 5196SOL    HW117456   2.667   7.700   8.227 -0.5701  0.4183 -0.9620
 5196SOL    HW217457   2.638   7.553   8.208  0.6964  0.1546 -0.9299
 5197SOL     OW17458   5.986   0.365   1.429  0.2137  0.2520 -0.1126
 5197SOL    HW117459   5.996   0.270   1.422 -0.6806  0.2378 -2.0726
 5197SOL    HW217460   6.042   0.400   1.359  0.1358  1.1384  0.2546
 5198SOL     OW17461   6.387   7.439   0.077  0.0162  0.3849  0.0452
 5198SOL    HW117462   6.416   7.352   0.052 -1.5681  0.1841 -1.2724
 5198SOL    HW217463   6.455   7.472   0.136  1.2950 -1.2006 -0.4962
 5199SOL     OW17464   6.426   5.020   3.750 -0.0626  0.4568  0.5965
 5199SOL    HW117465   6.369   4.944   3.739 -0.0378  0.5651 -0.3263
 5199SOL    HW217466   6.505   4.985   3.791  0.4468 -0.2441 -0.9268
 5200SOL     OW17467   8.809   8.162   0.468 -0.0254 -0.3118 -0.2444
 5200SOL    HW117468   8.776   8.244   0.431 -0.6262 -0.4549 -0.0380
 5200SOL    HW217469   8.762   8.094   0.421 -1.8491 -0.4713  1.6882
 5201SOL     OW17470   5.940   1.108   8.481 -0.4867  0.1581  0.3391
 5201SOL    HW117471   6.035   1.120   8.478 -0.5178  0.6378  0.9353
 5201SOL    HW217472   5.905   1.197   8.472 -0.9141 -0.1320 -0.9799
 5202SOL     OW17473   3.759   7.143   1.759  0.7082  0.6001 -0.3136
 5202SOL    HW117474   3.757   7.117   1.666  0.8133 -0.2014 -0.0964
 5202SOL    HW217475   3.668   7.135   1.787  0.8877 -0.5078  0.0061
 5203SOL     OW17476   5.927   5.803   4.154 -0.1358 -0.4275  0.0916
 5203SOL    HW117477   5.864   5.732   4.139 -2.0233  0.8651  1.4183
 5203SOL    HW217478   5.972   5.778   4.235 -0.7331 -0.1828  0.5070
 5204SOL     OW17479   1.488   8.448   7.969 -0.1626 -0.5544  0.0004
 5204SOL    HW117480   1.395   8.428   7.963  0.2590 -2.2986 -1.7651
 5204SOL    HW217481   1.492   8.544   7.972 -2.0018 -0.4600  0.9845
 5205SOL     OW17482   7.378   1.954   4.156  0.5648 -0.4052  0.1124
 5205SOL    HW117483   7.453   1.896   4.167  0.2430 -1.1626 -1.5195
 5205SOL    HW217484   7.342   1.932   4.071 -0.5814  1.0415  0.1795
 5206SOL     OW17485   7.048   6.909   6.890 -0.0533  0.3905  0.0282
 5206SOL    HW117486   7.032   6.988   6.839 -2.6644 -0.9440 -1.4193
 5206SOL    HW217487   7.131   6.875   6.858 -1.6438 -0.4959 -3.6881
 5207SOL     OW17488   4.966   0.761   8.308 -0.0941  0.2229 -0.2207
 5207SOL    HW117489   4.912   0.822   8.359 -0.9959 -0.9434  0.2623
 5207SOL    HW217490   5.019   0.715   8.373 -0.0251 -0.0958 -0.5011
 5208SOL     OW17491   8.098   2.060   0.522  0.0057 -0.5127  0.6093
 5208SOL    HW117492   8.164   2.055   0.452  1.0370 -0.2552  1.5289
 5208SOL    HW217493   8.033   2.123   0.489  1.0687  0.4909  0.3353
 5209SOL     OW17494   2.701   2.208   1.211  0.1429 -0.1762  0.1098
 5209SOL    HW117495   2.725   2.288   1.257  0.1399 -0.1218  0.0172
 5209SOL    HW217496   2.697   2.234   1.119 -1.1482  0.0264  0.2122
 5210SOL     OW17497   2.186   4.251   5.774  0.6074 -0.4938  0.0192
 5210SOL    HW117498   2.170   4.340   5.804  0.7714 -0.6546  0.6045
 5210SOL    HW217499   2.149   4.196   5.843  0.3150 -0.8838 -0.4389
 5211SOL     OW17500   5.797   6.847   8.754 -0.7245 -0.5942 -0.3320
 5211SOL    HW117501   5.818   6.934   8.788 -1.1650  0.0971 -1.7807
 5211SOL    HW217502   5.859   6.832   8.683  0.1390 -2.0033  0.6437
 5212SOL     OW17503   8.158   4.448   2.874 -0.0110 -0.1897  0.0083
 5212SOL    HW117504   8.140   4.404   2.791 -0.4043 -2.0202  1.0237
 5212SOL    HW217505   8.253   4.457   2.877 -0.0309  0.4882 -0.9025
 5213SOL     OW17506   6.217   7.599   8.950 -0.2417  0.3636  0.3467
 5213SOL    HW117507   6.278   7.539   8.993  2.5336  1.8543 -1.1688
 5213SOL    HW217508   6.238   7.685   8.986  1.0115  1.4131 -2.5449
 5214SOL     OW17509   1.872   4.079   0.058  0.6094  0.7720 -0.3526
 5214SOL    HW117510   1.825   4.142   0.114 -0.3484 -0.7979  0.6889
 5214SOL    HW217511   1.949   4.127   0.029 -0.1735  2.4961  0.2325
 5215SOL     OW17512   8.253   1.153   2.466  0.1771  0.0448 -0.1996
 5215SOL    HW117513   8.331   1.208   2.469  0.5239 -0.4573  2.3290
 5215SOL    HW217514   8.184   1.206   2.506 -0.2148 -0.3190 -0.3841
 5216SOL     OW17515   7.323   4.624   6.728 -0.0853 -0.1185 -0.3662
 5216SOL    HW117516   7.231   4.599   6.720 -0.6697  1.4911  0.7402
 5216SOL    HW217517   7.323   4.718   6.710  0.7189  0.6862  3.0726
 5217SOL     OW17518   2.751   0.044   8.899 -0.7821  0.1891 -0.1422
 5217SOL    HW117519   2.751   0.007   8.810 -0.9426  0.1304 -0.1186
 5217SOL    HW217520   2.658   0.058   8.918 -0.7543  0.0949  0.0600
 5218SOL     OW17521   1.449   3.259   3.541 -0.1295 -0.5837 -0.0536
 5218SOL    HW117522   1.409   3.326   3.596 -0.5411  0.1729 -1.2448
 5218SOL    HW217523   1.376   3.206   3.511 -0.0956 -0.0566 -1.0940
 5219SOL     OW17524   6.720   5.472   4.109  0.3850 -0.3151 -0.3589
 5219SOL    HW117525   6.681   5.536   4.169  1.8442  1.5020 -1.2447
 5219SOL    HW217526   6.741   5.523   4.031 -0.1936 -2.3276 -1.9190
 5220SOL     OW17527   8.049   8.006   7.543  0.2198 -0.6076 -0.3553
 5220SOL    HW117528   8.084   8.086   7.581 -0.5110  0.4564 -1.8548
 5220SOL    HW217529   8.124   7.964   7.500  0.4399 -0.3355 -0.2397
 5221SOL     OW17530   3.299   1.372   2.069  0.0912 -0.6762 -0.1517
 5221SOL    HW117531   3.315   1.388   2.162  2.4724  0.2336 -0.6143
 5221SOL    HW217532   3.368   1.311   2.043  0.8570  0.7684 -1.7214
 5222SOL     OW17533   0.710   7.781   2.347  0.0027  0.3034 -0.3072
 5222SOL    HW117534   0.695   7.823   2.432  0.7012 -0.9526  0.4668
 5222SOL    HW217535   0.635   7.808   2.294 -1.5342 -0.4938  1.3447
 5223SOL     OW17536   3.217   6.349   4.221  0.1064 -0.7318 -0.5575
 5223SOL    HW117537   3.298   6.322   4.263  0.0511 -0.3156 -0.1800
 5223SOL    HW217538   3.177   6.267   4.191  1.4129 -0.8295 -2.1454
 5224SOL     OW17539   0.552   6.224   8.498 -0.5823  0.3695  0.1601
 5224SOL    HW117540   0.459   6.200   8.502 -0.5228 -0.3369 -1.5069
 5224SOL    HW217541   0.584   6.214   8.587 -1.7849 -0.8122  0.4907
 5225SOL     OW17542   7.688   5.347   3.827 -0.5124 -0.4040 -0.0382
 5225SOL    HW117543   7.612   5.323   3.775 -0.8465  1.8445 -0.7041
 5225SOL    HW217544   7.763   5.314   3.777 -0.8897  0.7832 -1.4475
 5226SOL     OW17545   7.834   1.297   3.769  0.3876  0.5903  0.1333
 5226SOL    HW117546   7.868   1.363   3.709  0.4328  1.0418  0.6446
 5226SOL    HW217547   7.878   1.315   3.852  0.1908  0.0890  0.3514
 5227SOL     OW17548   2.516   0.071   5.358 -0.4434 -0.3462 -0.5994
 5227SOL    HW117549   2.558   0.112   5.283  1.4666  1.3861  1.2835
 5227SOL    HW217550   2.579   0.005   5.387 -0.3431  0.1992  0.4729
 5228SOL     OW17551   5.120   6.324   4.138  0.4664 -0.1825 -0.1299
 5228SOL    HW117552   5.070   6.302   4.217  0.4423  0.8808  0.1724
 5228SOL    HW217553   5.062   6.300   4.066  0.0377 -0.1582  0.1996
 5229SOL     OW17554   1.269   0.527   5.750  0.5824 -0.4791  0.2577
 5229SOL    HW117555   1.189   0.506   5.798 -0.5428  0.6046 -1.0356
 5229SOL    HW217556   1.337   0.529   5.817 -0.7666  0.1450  1.6941
 5230SOL     OW17557   6.160   4.444   1.342 -0.3739  0.4545 -0.7108
 5230SOL    HW117558   6.190   4.410   1.426  0.7042  0.5629 -1.0307
 5230SOL    HW217559   6.125   4.531   1.362 -3.7496 -0.9801  0.2135
 5231SOL     OW17560   2.197   4.621   7.466 -0.4288 -0.7633 -0.1716
 5231SOL    HW117561   2.138   4.546   7.455 -0.9905 -0.3572 -0.0267
 5231SOL    HW217562   2.168   4.684   7.400 -0.5668 -0.3128  0.3082
 5232SOL     OW17563   5.957   7.996   0.421 -0.1643  0.5124  0.1579
 5232SOL    HW117564   5.991   8.061   0.360  0.8861 -1.1700 -1.1397
 5232SOL    HW217565   6.033   7.970   0.473 -0.7612  0.9439  1.2717
 5233SOL     OW17566   4.940   1.577   7.992  0.5599 -0.2724  0.9582
 5233SOL    HW117567   5.009   1.525   7.950 -0.1818 -2.7878  2.5840
 5233SOL    HW217568   4.986   1.648   8.036  1.7733 -0.2387 -0.3012
 5234SOL     OW17569   4.927   5.266   8.787 -0.3311  0.1334  0.4263
 5234SOL    HW117570   4.886   5.275   8.873 -1.3900  0.7549 -0.1247
 5234SOL    HW217571   5.005   5.321   8.792  1.0232 -1.7420  1.7770
 5235SOL     OW17572   0.421   4.292   5.261  0.4179  0.0864  0.6364
 5235SOL    HW117573   0.326   4.297   5.276  0.2799 -0.9912  0.2397
 5235SOL    HW217574   0.441   4.369   5.208 -0.5196 -0.4955 -0.6141
 5236SOL     OW17575   6.229   6.842   5.079 -0.5593 -0.0297  0.3660
 5236SOL    HW117576   6.141   6.856   5.043  0.1501 -1.4602 -2.1272
 5236SOL    HW217577   6.225   6.756   5.120 -0.0049 -0.7978 -1.0937
 5237SOL     OW17578   8.249   7.361   6.961 -0.2652  0.0790 -0.7115
 5237SOL    HW117579   8.233   7.332   7.051 -0.1666  0.9114 -0.4201
 5237SOL    HW217580   8.270   7.280   6.914 -1.2389 -0.4939 -0.2014
 5238SOL     OW17581   6.945   3.558   2.948  0.4778 -0.4752  0.0699
 5238SOL    HW117582   6.916   3.483   2.895  0.7475 -0.3768 -0.2224
 5238SOL    HW217583   6.918   3.536   3.037  1.8343 -1.6106  0.2499
 5239SOL     OW17584   8.449   0.539   3.326 -0.1220 -0.5611  0.6492
 5239SOL    HW117585   8.480   0.556   3.414 -0.5119 -2.4138  1.1913
 5239SOL    HW217586   8.356   0.516   3.337 -0.3338 -0.2294 -0.3100
 5240SOL     OW17587   5.558   1.768   1.913  0.5044 -0.4250 -0.7511
 5240SOL    HW117588   5.539   1.821   1.990  1.2812 -0.7093 -0.3474
 5240SOL    HW217589   5.472   1.745   1.878  0.0738  3.2922 -2.5395
 5241SOL     OW17590   4.242   2.774   2.924  0.8035  0.1988  0.4924
 5241SOL    HW117591   4.194   2.856   2.933 -0.6856 -0.4605 -1.0314
 5241SOL    HW217592   4.313   2.794   2.863  0.0448  0.2227 -0.4029
 5242SOL     OW17593   3.594   3.976   2.536 -0.1160  0.0446  0.3359
 5242SOL    HW117594   3.650   3.920   2.589  0.7328 -0.8298 -1.4009
 5242SOL    HW217595   3.590   4.059   2.583 -0.0027 -0.9066  2.0993
 5243SOL     OW17596   6.018   4.949   7.002 -0.2230 -0.3662  0.3289
 5243SOL    HW117597   6.073   5.028   7.012 -0.2434 -0.5735  2.4617
 5243SOL    HW217598   6.071   4.879   7.039 -0.8156 -1.0936 -0.1873
 5244SOL     OW17599   3.587   7.872   8.193 -0.6120  0.1736  0.2646
 5244SOL    HW117600   3.584   7.840   8.103  0.6068  0.6494  0.0507
 5244SOL    HW217601   3.569   7.794   8.246 -1.0494 -0.1672 -0.3643
 5245SOL     OW17602   5.954   1.767   8.693 -0.3123 -0.1963  0.1985
 5245SOL    HW117603   5.926   1.858   8.684 -3.7759 -1.0885  0.4236
 5245SOL    HW217604   6.024   1.770   8.758  0.7191  2.4087 -0.8899
 5246SOL     OW17605   1.478   1.516   6.283  0.3271 -0.3518 -0.2116
 5246SOL    HW117606   1.523   1.504   6.367 -0.2292 -0.2070  0.1073
 5246SOL    HW217607   1.428   1.597   6.294  1.8663  0.8168 -1.3876
 5247SOL     OW17608   0.369   1.846   1.606  0.1518 -0.4860  0.3772
 5247SOL    HW117609   0.289   1.897   1.593 -1.2913 -2.8253 -0.5073
 5247SOL    HW217610   0.385   1.806   1.521  2.2336 -0.1878  0.5886
 5248SOL     OW17611   2.184   3.578   6.752 -0.6824  0.2445 -0.4324
 5248SOL    HW117612   2.262   3.626   6.724  1.0733 -2.7632 -1.1410
 5248SOL    HW217613   2.147   3.543   6.670 -2.2776  0.8046 -0.0002
 5249SOL     OW17614   3.870   5.316   6.261 -0.2154 -0.0218  0.2125
 5249SOL    HW117615   3.845   5.372   6.335  1.1252  2.2103 -0.9112
 5249SOL    HW217616   3.919   5.244   6.302 -1.8857 -0.3834  1.6972
 5250SOL     OW17617   6.759   3.561   0.160  0.0350 -0.2261  0.1471
 5250SOL    HW117618   6.700   3.627   0.197 -1.5642 -1.4770 -0.0577
 5250SOL    HW217619   6.806   3.607   0.091  1.1268  1.4432  1.8904
 5251SOL     OW17620   4.671   7.633   4.650 -0.2240  0.1259  0.0386
 5251SOL    HW117621   4.740   7.658   4.712  0.3573  0.1154 -0.5955
 5251SOL    HW217622   4.591   7.630   4.703 -0.0917  2.0318  0.4219
 5252SOL     OW17623   3.500   1.213   4.308  0.4805 -0.2110  0.0521
 5252SOL    HW117624   3.551   1.178   4.381  1.3604 -0.7776 -0.8115
 5252SOL    HW217625   3.560   1.271   4.261  0.3221 -0.8014 -0.9177
 5253SOL     OW17626   8.709   5.951   3.887  0.1514  0.3015  0.5419
 5253SOL    HW117627   8.784   5.935   3.829 -0.9015  0.9973 -1.0693
 5253SOL    HW217628   8.741   5.925   3.974  1.9394 -0.3232 -0.2405
 5254SOL     OW17629   2.449   5.896   1.719 -0.4025  0.2374 -0.0571
 5254SOL    HW117630   2.496   5.979   1.724  0.5345 -0.3480  1.7453
 5254SOL    HW217631   2.369   5.910   1.770  0.3561 -0.3039  1.3258
 5255SOL     OW17632   8.170   2.375   4.105 -0.0991 -0.0736  0.0552
 5255SOL    HW117633   8.244   2.432   4.087 -0.8201  0.7892 -0.2153
 5255SOL    HW217634   8.198   2.321   4.180 -0.2620  2.2813  1.9296
 5256SOL     OW17635   5.616   0.254   0.481  0.6567 -0.0565 -0.2951
 5256SOL    HW117636   5.603   0.161   0.464  0.9663  0.1871 -2.0878
 5256SOL    HW217637   5.576   0.269   0.566 -0.2201 -1.6372 -0.3929
 5257SOL     OW17638   6.636   6.982   7.769  0.4997  0.0145 -0.2862
 5257SOL    HW117639   6.622   6.962   7.862  2.7697 -0.2831  0.0695
 5257SOL    HW217640   6.548   6.986   7.731 -0.4232 -1.8841  1.4527
 5258SOL     OW17641   3.115   0.288   6.333  0.2078  0.5564  0.4951
 5258SOL    HW117642   3.095   0.358   6.271 -1.5313 -1.1493 -1.0112
 5258SOL    HW217643   3.209   0.272   6.321  0.3179  1.6170 -0.2048
 5259SOL     OW17644   3.288   1.615   7.467 -0.0082  0.1681 -0.6185
 5259SOL    HW117645   3.288   1.596   7.373 -2.8163 -1.1968 -0.4435
 5259SOL    HW217646   3.278   1.530   7.509 -1.7457  0.9802  0.7475
 5260SOL     OW17647   2.729   5.844   3.524 -0.5916 -0.1028  0.1883
 5260SOL    HW117648   2.772   5.819   3.606 -1.4340  0.3258  0.7688
 5260SOL    HW217649   2.643   5.876   3.551 -0.6410  0.6268 -0.8140
 5261SOL     OW17650   0.465   6.848   3.120 -0.3565 -0.0000  0.4741
 5261SOL    HW117651   0.481   6.771   3.065  2.1331  0.8644 -0.1290
 5261SOL    HW217652   0.511   6.920   3.076 -0.9255  1.4110  2.0569
 5262SOL     OW17653   4.723   5.533   3.092  0.1793  0.1604  0.0050
 5262SOL    HW117654   4.682   5.497   3.170 -0.7678  1.3433  0.0769
 5262SOL    HW217655   4.678   5.491   3.019 -0.7911  1.0223  0.0887
 5263SOL     OW17656   8.888   8.944   5.698  0.2250  0.9519  0.2454
 5263SOL    HW117657   8.797   8.940   5.727  0.1464 -1.6489 -0.1362
 5263SOL    HW217658   8.891   8.890   5.619  2.1977  0.4752  0.5788
 5264SOL     OW17659   4.382   5.837   2.318  0.0540 -0.0892  0.5434
 5264SOL    HW117660   4.410   5.904   2.381 -0.1270 -0.0371  0.5695
 5264SOL    HW217661   4.288   5.852   2.307  0.0638 -0.1713  0.3466
 5265SOL     OW17662   5.334   6.775   4.032 -0.3456 -0.3350 -0.4146
 5265SOL    HW117663   5.336   6.707   4.099 -1.1747  0.1716  0.1469
 5265SOL    HW217664   5.379   6.849   4.072  1.5589 -0.8850 -1.4430
 5266SOL     OW17665   5.497   5.292   2.342 -0.3384 -0.5122 -0.1765
 5266SOL    HW117666   5.571   5.352   2.329 -0.2792 -0.4367  0.4879
 5266SOL    HW217667   5.420   5.349   2.344 -0.2788 -0.4455  0.4909
 5267SOL     OW17668   1.667   5.534   1.617 -0.3339 -0.1474  0.5507
 5267SOL    HW117669   1.760   5.511   1.619 -0.0412  0.9959  1.7223
 5267SOL    HW217670   1.627   5.474   1.680 -0.1776  0.1382  0.9292
 5268SOL     OW17671   3.391   4.870   0.721 -0.0211 -0.0178  0.6490
 5268SOL    HW117672   3.392   4.934   0.650  1.0611  0.7633  1.3377
 5268SOL    HW217673   3.331   4.801   0.690 -0.3167  0.7576 -0.5939
 5269SOL     OW17674   8.242   3.156   3.531  0.1051 -0.1003 -0.0080
 5269SOL    HW117675   8.209   3.246   3.537 -0.2705 -0.3388  2.0101
 5269SOL    HW217676   8.168   3.106   3.496  0.0385  0.2232 -0.3378
 5270SOL     OW17677   5.243   3.840   5.641 -0.1423  0.2954  0.1328
 5270SOL    HW117678   5.208   3.859   5.728  1.1889 -1.8545  1.2216
 5270SOL    HW217679   5.235   3.745   5.633  1.8344  0.1887 -1.1311
 5271SOL     OW17680   6.688   1.165   3.200 -0.3701  0.2506  0.4085
 5271SOL    HW117681   6.668   1.073   3.182  0.1930  0.4117 -1.1781
 5271SOL    HW217682   6.664   1.177   3.292 -1.1028 -1.2980  0.4511
 5272SOL     OW17683   5.662   5.326   7.060  0.1726 -0.4036  0.3227
 5272SOL    HW117684   5.684   5.233   7.066  1.1057 -0.3564 -1.5679
 5272SOL    HW217685   5.731   5.370   7.110 -0.1972 -0.7046  1.1097
 5273SOL     OW17686   3.047   1.798   3.961 -0.0496 -0.1147 -0.4014
 5273SOL    HW117687   3.012   1.710   3.971 -0.1816  0.1282  1.8972
 5273SOL    HW217688   2.994   1.852   4.020  0.2350  1.4512 -1.5147
 5274SOL     OW17689   7.961   8.652   1.720 -0.2830  0.5032 -0.2311
 5274SOL    HW117690   7.998   8.577   1.674  0.6994  0.0492  1.2246
 5274SOL    HW217691   8.004   8.728   1.680  0.0641  0.1706 -0.4977
 5275SOL     OW17692   2.034   2.866   0.171 -0.2274 -0.5063  0.0897
 5275SOL    HW117693   2.119   2.878   0.212 -0.5189 -1.1688  0.9231
 5275SOL    HW217694   2.004   2.780   0.202  0.4958 -2.1414 -3.2117
 5276SOL     OW17695   2.071   8.252   6.702  0.5137 -0.0285  0.0118
 5276SOL    HW117696   2.053   8.188   6.632 -0.8634  0.4266 -0.0862
 5276SOL    HW217697   2.166   8.251   6.711  0.6221 -1.0941 -0.9331
 5277SOL     OW17698   6.565   0.570   2.642  0.9839 -0.0185  0.0940
 5277SOL    HW117699   6.561   0.477   2.621 -0.6801 -0.7987  3.1871
 5277SOL    HW217700   6.524   0.614   2.568  0.2219 -1.9205 -0.6746
 5278SOL     OW17701   7.607   7.814   7.497  0.0937 -0.0993 -0.1381
 5278SOL    HW117702   7.650   7.897   7.475 -0.5334 -0.1377 -1.6545
 5278SOL    HW217703   7.664   7.748   7.458  1.1816 -0.4982  2.0117
 5279SOL     OW17704   5.486   2.831   7.912 -0.6365 -0.2658  0.6149
 5279SOL    HW117705   5.476   2.766   7.842 -0.4591  1.2902 -0.9267
 5279SOL    HW217706   5.560   2.885   7.885 -1.9201  1.7298  0.8576
 5280SOL     OW17707   0.716   2.010   6.897 -0.3802  0.0699 -0.0636
 5280SOL    HW117708   0.647   2.072   6.923 -0.1917  0.1819  0.1699
 5280SOL    HW217709   0.746   2.043   6.812 -0.2993  0.2836  0.0466
 5281SOL     OW17710   6.136   3.846   8.931 -0.2363  0.0061  0.1389
 5281SOL    HW117711   6.118   3.757   8.902  0.0372 -0.2438  0.7207
 5281SOL    HW217712   6.137   3.841   9.027 -2.0783  0.9899  0.2725
 5282SOL     OW17713   8.170   1.112   4.610 -0.2468  0.1839  0.2993
 5282SOL    HW117714   8.193   1.107   4.517 -0.2042  2.2365  0.1613
 5282SOL    HW217715   8.089   1.061   4.618  0.1423 -0.6277 -0.6962
 5283SOL     OW17716   1.719   1.023   0.350 -0.1308 -0.0990  0.3089
 5283SOL    HW117717   1.661   1.094   0.377 -0.0203 -0.4640  1.5475
 5283SOL    HW217718   1.789   1.067   0.301  1.5397  1.1404  3.4972
 5284SOL     OW17719   3.062   6.003   8.311 -0.0849  0.2767 -0.2561
 5284SOL    HW117720   3.064   5.931   8.374  0.3152 -0.1246 -0.7208
 5284SOL    HW217721   3.076   6.082   8.363 -0.3497  0.0003  0.2334
 5285SOL     OW17722   6.300   7.759   4.204 -0.5090  0.5113 -0.0922
 5285SOL    HW117723   6.232   7.697   4.233  0.4322 -0.2162  0.6149
 5285SOL    HW217724   6.376   7.739   4.259  0.0195  1.8840 -0.2893
 5286SOL     OW17725   6.193   5.095   8.930 -0.5792  0.0984 -0.0357
 5286SOL    HW117726   6.192   5.117   8.836  0.5914  0.9272  0.1285
 5286SOL    HW217727   6.268   5.036   8.940 -1.3240 -0.8399  0.2236
 5287SOL     OW17728   5.471   6.962   7.522  0.2572  0.7592 -0.6923
 5287SOL    HW117729   5.412   6.965   7.447 -0.8628  2.8898  0.1854
 5287SOL    HW217730   5.422   7.006   7.592  2.4392  1.5279  0.4311
 5288SOL     OW17731   7.017   5.721   6.848  0.6134 -0.2325  0.4479
 5288SOL    HW117732   7.060   5.658   6.789  0.2958  0.5633 -0.6703
 5288SOL    HW217733   7.008   5.674   6.931  0.7165 -1.5351 -0.2492
 5289SOL     OW17734   5.155   3.553   1.792  0.1763  0.6781 -0.5443
 5289SOL    HW117735   5.187   3.495   1.723 -0.4371 -0.7110  0.2830
 5289SOL    HW217736   5.061   3.563   1.773  0.2984  1.5235 -0.7456
 5290SOL     OW17737   0.801   7.397   0.298 -0.6375  0.0388 -0.4873
 5290SOL    HW117738   0.706   7.399   0.302 -0.6347 -0.8816  0.2699
 5290SOL    HW217739   0.825   7.483   0.262 -1.7110  0.5618 -0.0037
 5291SOL     OW17740   5.405   6.956   4.498 -0.1860 -0.1805  0.4362
 5291SOL    HW117741   5.372   6.876   4.458 -0.5418  0.2509 -0.1547
 5291SOL    HW217742   5.379   6.949   4.590  0.4691 -1.0926  0.5591
 5292SOL     OW17743   4.176   2.199   8.422 -0.1592 -0.0907  0.1921
 5292SOL    HW117744   4.084   2.225   8.412  0.3169  1.1458 -1.4277
 5292SOL    HW217745   4.222   2.249   8.355  1.3562 -2.6153 -0.7754
 5293SOL     OW17746   2.114   6.495   4.191  0.0560 -0.2163  0.3887
 5293SOL    HW117747   2.140   6.406   4.212 -1.2609 -0.4022  1.3571
 5293SOL    HW217748   2.033   6.486   4.141  0.7141  0.4080 -0.8487
 5294SOL     OW17749   8.536   1.849   0.458 -0.2456  0.8908 -0.3026
 5294SOL    HW117750   8.587   1.918   0.415 -0.7687 -0.0797 -2.6481
 5294SOL    HW217751   8.469   1.895   0.507  0.3525  2.0769 -0.5575
 5295SOL     OW17752   7.164   8.414   7.316 -0.1475 -0.2497 -0.5610
 5295SOL    HW117753   7.177   8.350   7.386 -0.9281  0.9663  0.7447
 5295SOL    HW217754   7.228   8.389   7.249  1.1012 -1.0537  0.8574
 5296SOL     OW17755   1.938   3.074   0.308  0.7566  0.2571 -0.4362
 5296SOL    HW117756   1.974   2.996   0.268  0.7811 -0.2270  0.5032
 5296SOL    HW217757   2.014   3.124   0.338  0.7133  0.1649 -0.1677
 5297SOL     OW17758   8.188   6.517   7.745 -0.4118  0.2558 -0.2206
 5297SOL    HW117759   8.164   6.492   7.834  0.3992  2.3820  0.6783
 5297SOL    HW217760   8.234   6.601   7.756  0.3233  0.2258 -2.5811
 5298SOL     OW17761   5.537   8.514   2.392  0.1776 -0.3736  0.0444
 5298SOL    HW117762   5.576   8.428   2.376 -1.4289 -0.9646 -0.8903
 5298SOL    HW217763   5.504   8.510   2.481  0.6562 -0.4787  0.2232
 5299SOL     OW17764   5.591   7.069   0.709 -0.0950 -0.7076  0.5478
 5299SOL    HW117765   5.634   7.132   0.652  1.1673  0.1153  2.3028
 5299SOL    HW217766   5.501   7.101   0.716 -0.0686 -0.4040 -0.3667
 5300SOL     OW17767   3.369   1.679   6.418  0.6619 -0.0133 -0.3539
 5300SOL    HW117768   3.346   1.761   6.375  0.7184  0.9599  1.3683
 5300SOL    HW217769   3.323   1.612   6.368  0.4087  1.0779 -1.6563
 5301SOL     OW17770   0.225   3.929   8.129 -0.3616 -0.2795  0.6469
 5301SOL    HW117771   0.267   4.005   8.089  0.0912 -0.5066  0.6815
 5301SOL    HW217772   0.149   3.964   8.176 -1.2575 -0.0753 -0.8970
 5302SOL     OW17773   1.464   1.236   5.845 -0.4391 -0.2141  0.0131
 5302SOL    HW117774   1.431   1.317   5.884  1.4210  1.1210 -1.0120
 5302SOL    HW217775   1.430   1.166   5.902 -2.1569  1.2488  0.8855
 5303SOL     OW17776   7.551   7.133   4.522 -0.1577  0.2448 -0.0846
 5303SOL    HW117777   7.523   7.160   4.609  0.5394 -1.6157  0.7709
 5303SOL    HW217778   7.473   7.140   4.467 -1.0084 -0.0521  1.0673
 5304SOL     OW17779   6.143   6.185   0.535 -0.0830 -0.5454 -0.4995
 5304SOL    HW117780   6.227   6.205   0.495 -0.4439  1.1137 -0.4905
 5304SOL    HW217781   6.158   6.103   0.583  1.1489 -0.9834 -1.5616
 5305SOL     OW17782   8.101   5.351   6.927  0.1506 -0.3579 -0.0364
 5305SOL    HW117783   8.008   5.368   6.915  0.4280  0.3061 -1.3998
 5305SOL    HW217784   8.142   5.382   6.847  1.4501 -1.5468  0.1191
 5306SOL     OW17785   2.212   7.484   2.086 -0.0343  0.1659  0.2655
 5306SOL    HW117786   2.201   7.492   1.992  0.7297  0.7609  0.2215
 5306SOL    HW217787   2.130   7.519   2.122 -0.6836 -0.8391 -0.1745
 5307SOL     OW17788   4.132   3.008   4.068 -0.3456  0.0365 -0.6501
 5307SOL    HW117789   4.054   3.060   4.089 -0.2981  0.1606 -0.7866
 5307SOL    HW217790   4.129   2.997   3.973 -1.6848 -2.2581 -0.4212
 5308SOL     OW17791   6.730   7.368   2.030 -0.4854  0.0446  0.0099
 5308SOL    HW117792   6.689   7.306   1.969 -1.2925  0.1153  0.4775
 5308SOL    HW217793   6.802   7.318   2.069  0.5113  0.2113 -1.5005
 5309SOL     OW17794   7.338   4.072   8.374  0.2918 -0.3983  0.3250
 5309SOL    HW117795   7.369   4.078   8.465  1.5629  1.3384 -0.1646
 5309SOL    HW217796   7.392   4.136   8.327  0.5266 -2.1410 -1.9039
 5310SOL     OW17797   1.477   5.069   4.843 -0.1225  0.0051 -0.2111
 5310SOL    HW117798   1.417   5.130   4.885  0.6775  1.0115 -0.4972
 5310SOL    HW217799   1.435   5.048   4.759  0.3756  1.4861 -0.8540
 5311SOL     OW17800   3.267   7.140   0.678  0.3528 -0.1672  0.6913
 5311SOL    HW117801   3.269   7.053   0.636 -1.9079  0.1217 -0.1837
 5311SOL    HW217802   3.271   7.121   0.772  1.6277 -1.0828  0.4830
 5312SOL     OW17803   8.078   2.846   7.156 -0.4146  0.3437  0.2074
 5312SOL    HW117804   8.108   2.823   7.244 -1.3272 -1.2918  0.1410
 5312SOL    HW217805   8.115   2.779   7.099 -1.8907 -0.1316 -0.2574
 5313SOL     OW17806   7.839   0.505   2.762 -0.2213 -0.0471 -0.2846
 5313SOL    HW117807   7.808   0.439   2.823  0.6623 -0.1250  0.0937
 5313SOL    HW217808   7.792   0.585   2.786 -1.6609 -0.6125 -1.0486
 5314SOL     OW17809   1.311   2.429   4.015 -0.0927 -0.8212 -0.3328
 5314SOL    HW117810   1.329   2.335   4.011 -0.2605 -0.8705 -0.0073
 5314SOL    HW217811   1.235   2.436   4.073 -0.6100 -0.5525 -1.0386
 5315SOL     OW17812   0.812   5.912   4.051  0.0830  0.1421 -0.5261
 5315SOL    HW117813   0.731   5.963   4.049  0.4321  0.6997 -0.9777
 5315SOL    HW217814   0.840   5.915   4.143 -0.0199  0.5771 -0.5066
 5316SOL     OW17815   5.333   4.220   4.965  0.1806 -0.1643 -0.1244
 5316SOL    HW117816   5.358   4.304   4.928  0.9047 -1.6919 -3.5039
 5316SOL    HW217817   5.242   4.207   4.937  0.9534 -1.6445 -2.2453
 5317SOL     OW17818   2.637   1.809   1.194 -0.0019 -0.6990 -0.1517
 5317SOL    HW117819   2.616   1.827   1.102 -1.6777  0.0927  0.3433
 5317SOL    HW217820   2.595   1.724   1.211 -2.2512  0.4684  0.5949
 5318SOL     OW17821   5.337   7.895   7.315 -0.3286  0.2661  0.0403
 5318SOL    HW117822   5.410   7.956   7.305 -0.1649 -0.0816 -0.9339
 5318SOL    HW217823   5.351   7.856   7.402  1.0236 -0.2653 -0.3885
 5319SOL     OW17824   7.329   3.388   7.355 -0.6982  0.1232  0.0076
 5319SOL    HW117825   7.349   3.395   7.262  1.4507  0.8819  0.4729
 5319SOL    HW217826   7.363   3.469   7.394  0.4406 -1.1180  1.7512
 5320SOL     OW17827   6.677   2.411   4.577  0.3752 -0.2444  0.0830
 5320SOL    HW117828   6.683   2.454   4.663  0.9929 -0.0451 -0.0555
 5320SOL    HW217829   6.585   2.422   4.552 -0.0737 -1.2639  1.2007
 5321SOL     OW17830   0.769   4.075   8.801  0.7731 -0.1536 -0.3505
 5321SOL    HW117831   0.847   4.131   8.798  0.9817 -0.4425 -0.2771
 5321SOL    HW217832   0.767   4.041   8.890  0.6139 -0.2214 -0.3801
 5322SOL     OW17833   0.755   6.170   1.231  0.2806  0.2846  0.1837
 5322SOL    HW117834   0.765   6.256   1.191  1.7385  0.2602  0.4272
 5322SOL    HW217835   0.839   6.153   1.273 -0.8242 -0.1426  2.3772
 5323SOL     OW17836   1.323   3.321   5.698 -0.9123 -0.6019  0.4059
 5323SOL    HW117837   1.400   3.268   5.678  0.8509  2.4406 -1.6618
 5323SOL    HW217838   1.249   3.269   5.665  0.6849 -1.7245 -1.6699
 5324SOL     OW17839   3.930   4.678   2.042  0.0806 -0.1949 -0.1951
 5324SOL    HW117840   3.881   4.709   2.117  1.6872  1.1883  0.3586
 5324SOL    HW217841   3.894   4.727   1.968 -0.4757 -0.4135 -0.0692
 5325SOL     OW17842   3.201   4.653   8.893  0.7522 -0.1973  0.3295
 5325SOL    HW117843   3.257   4.691   8.825  1.7013 -2.4407 -0.2638
 5325SOL    HW217844   3.263   4.612   8.954 -0.1601  0.1317  1.5059
 5326SOL     OW17845   6.803   3.387   7.529  0.4400  0.0117  0.6650
 5326SOL    HW117846   6.793   3.482   7.526  0.6909  0.1318  2.5991
 5326SOL    HW217847   6.843   3.365   7.445  2.0066  1.8373  0.8548
 5327SOL     OW17848   0.919   7.754   7.631 -0.1035 -0.1463  0.1618
 5327SOL    HW117849   0.976   7.741   7.556 -1.0078  2.0118 -0.9667
 5327SOL    HW217850   0.885   7.666   7.650  0.8285 -0.8820 -1.3752
 5328SOL     OW17851   8.193   2.157   7.908 -0.1244 -0.2108  0.0114
 5328SOL    HW117852   8.243   2.214   7.850 -0.6075  0.6199  0.3860
 5328SOL    HW217853   8.126   2.118   7.852  0.0679 -0.2243 -0.2074
 5329SOL     OW17854   8.423   5.420   6.186  0.0183  0.3365 -0.4546
 5329SOL    HW117855   8.445   5.403   6.277  0.2597 -0.3370 -0.6280
 5329SOL    HW217856   8.508   5.424   6.141 -0.0615  1.4752 -0.5223
 5330SOL     OW17857   1.277   8.192   7.857  0.2092 -0.7955 -0.2362
 5330SOL    HW117858   1.253   8.187   7.950 -0.5365  2.2236 -0.1926
 5330SOL    HW217859   1.371   8.171   7.857  0.6332  0.7947  1.4715
 5331SOL     OW17860   0.970   7.232   6.696 -0.4084 -0.8590  1.0687
 5331SOL    HW117861   1.033   7.288   6.650 -2.6327  0.0730 -1.0727
 5331SOL    HW217862   0.996   7.143   6.675 -1.5583 -0.5040 -2.6698
 5332SOL     OW17863   4.863   3.405   4.729 -0.1869 -0.2425  0.0260
 5332SOL    HW117864   4.791   3.377   4.673  0.0409 -3.0434  0.9854
 5332SOL    HW217865   4.903   3.324   4.759  2.1681  1.2106  1.0934
 5333SOL     OW17866   5.182   4.196   0.820  0.1203  0.0749 -0.1972
 5333SOL    HW117867   5.089   4.188   0.841  0.0480 -0.2128 -0.6019
 5333SOL    HW217868   5.187   4.274   0.764  0.5601  1.8929  2.2404
 5334SOL     OW17869   1.048   0.440   8.494  0.2407  0.0719 -0.0785
 5334SOL    HW117870   0.955   0.422   8.503 -0.1922  1.3929 -1.4418
 5334SOL    HW217871   1.054   0.499   8.419  2.3628 -1.3465 -1.1164
 5335SOL     OW17872   1.688   3.972   7.415  0.2418  0.0470  0.0468
 5335SOL    HW117873   1.764   4.021   7.384 -0.6784  2.4949  1.3505
 5335SOL    HW217874   1.623   4.040   7.435 -1.6946 -1.8573  0.5104
 5336SOL     OW17875   1.323   3.594   1.508  0.3893  0.0705  0.1463
 5336SOL    HW117876   1.247   3.535   1.504  0.7299 -0.3421 -0.4309
 5336SOL    HW217877   1.341   3.604   1.601 -0.3573  0.1492  0.2866
 5337SOL     OW17878   2.255   8.662   1.024 -0.7440  0.2069  0.2105
 5337SOL    HW117879   2.233   8.698   0.938  0.9396  1.1567  0.1415
 5337SOL    HW217880   2.318   8.724   1.061  0.1946 -1.2855  1.2257
 5338SOL     OW17881   0.458   2.493   6.270  0.2740 -0.1554  0.1115
 5338SOL    HW117882   0.435   2.553   6.199 -0.5203 -2.2199 -1.5091
 5338SOL    HW217883   0.378   2.483   6.321  0.3249 -0.0356  0.2138
 5339SOL     OW17884   1.620   4.671   2.435  0.2427 -0.4511 -0.7705
 5339SOL    HW117885   1.619   4.596   2.375 -0.1924 -0.6206 -0.5524
 5339SOL    HW217886   1.712   4.699   2.437  0.5584 -1.4965 -0.2111
 5340SOL     OW17887   4.169   0.818   4.927  0.5657  0.4569  0.0540
 5340SOL    HW117888   4.089   0.870   4.917  0.8424  0.7066 -0.9491
 5340SOL    HW217889   4.185   0.781   4.840  0.9132 -0.5174  0.5206
 5341SOL     OW17890   1.402   2.632   3.306 -0.6026 -0.3268  0.2215
 5341SOL    HW117891   1.479   2.688   3.312 -0.6204 -0.1001 -1.2611
 5341SOL    HW217892   1.436   2.549   3.273 -0.5719 -1.2533  2.4235
 5342SOL     OW17893   4.482   0.874   3.371 -0.2618  0.2784 -0.6102
 5342SOL    HW117894   4.413   0.813   3.346 -0.4769  1.0914 -2.0902
 5342SOL    HW217895   4.558   0.848   3.319  0.2411  0.0782  0.1985
 5343SOL     OW17896   5.719   7.127   2.728  0.1332 -0.4606  0.9301
 5343SOL    HW117897   5.627   7.138   2.750 -0.5676  1.4398 -2.2831
 5343SOL    HW217898   5.762   7.205   2.762 -0.2954  0.6809 -0.9643
 5344SOL     OW17899   4.500   5.324   3.558 -0.6122  0.3287  0.3227
 5344SOL    HW117900   4.461   5.256   3.503 -0.7098 -1.3197  2.3169
 5344SOL    HW217901   4.426   5.363   3.605 -0.2924  0.0144  1.1014
 5345SOL     OW17902   2.638   2.161   7.502  0.2430  0.1385 -0.0835
 5345SOL    HW117903   2.702   2.090   7.513 -0.4973 -0.3000  1.9222
 5345SOL    HW217904   2.558   2.116   7.474  0.3031  0.4495 -0.7628
 5346SOL     OW17905   0.938   6.783   7.120  0.8562 -0.2225 -0.1865
 5346SOL    HW117906   0.909   6.785   7.211  0.6925  0.5939 -0.2484
 5346SOL    HW217907   1.032   6.800   7.124  0.9420 -0.7176 -0.1309
 5347SOL     OW17908   0.049   0.443   0.569  0.4227 -0.0232  0.0523
 5347SOL    HW117909   0.109   0.412   0.501  3.3938 -0.7973  2.7899
 5347SOL    HW217910   0.016   0.362   0.610  0.6574  0.3925  1.0937
 5348SOL     OW17911   1.472   3.664   4.676 -0.0392 -0.2527 -0.2157
 5348SOL    HW117912   1.548   3.654   4.732 -0.0954 -1.1769 -0.2811
 5348SOL    HW217913   1.408   3.602   4.711 -0.0020 -1.0033 -1.4099
 5349SOL     OW17914   2.047   4.977   6.562  0.3664 -0.5477  0.6254
 5349SOL    HW117915   2.077   5.046   6.503 -1.0270 -0.2243  0.2601
 5349SOL    HW217916   2.011   4.909   6.505  0.0110 -0.7268  1.0516
 5350SOL     OW17917   3.154   2.265   2.562  0.0119 -0.2448 -0.2327
 5350SOL    HW117918   3.219   2.195   2.570  0.5450  0.1081 -1.2714
 5350SOL    HW217919   3.123   2.279   2.651  1.6821 -0.1233  0.3782
 5351SOL     OW17920   1.537   5.349   2.914 -0.3363  0.3058 -0.0310
 5351SOL    HW117921   1.527   5.302   2.997  2.0634 -0.7034 -0.2532
 5351SOL    HW217922   1.582   5.429   2.937  1.4380 -0.5288 -0.4622
 5352SOL     OW17923   2.285   8.208   0.945  0.0576  0.1600  0.1764
 5352SOL    HW117924   2.245   8.245   1.023  1.6857 -0.1653  1.2204
 5352SOL    HW217925   2.275   8.275   0.878 -1.8724  0.2134  0.4780
 5353SOL     OW17926   6.795   2.140   4.064 -0.2538 -0.1514  0.3562
 5353SOL    HW117927   6.869   2.080   4.069  0.1783  0.0739 -2.0849
 5353SOL    HW217928   6.791   2.165   3.972 -3.7402 -0.6219  0.2342
 5354SOL     OW17929   6.132   8.257   5.501 -0.2418  0.3275  0.4662
 5354SOL    HW117930   6.161   8.320   5.436  0.0557  0.5438  0.8055
 5354SOL    HW217931   6.148   8.300   5.585 -3.1389  1.2135  0.6929
 5355SOL     OW17932   2.438   6.961   3.225  0.7825 -0.0198 -0.1812
 5355SOL    HW117933   2.531   6.941   3.235  0.6426 -1.2294 -1.0573
 5355SOL    HW217934   2.417   7.015   3.301  2.7587  2.4823 -1.2735
 5356SOL     OW17935   6.352   0.329   2.199  0.0082  0.1967 -0.1771
 5356SOL    HW117936   6.289   0.283   2.145  0.1239 -0.4408  0.2124
 5356SOL    HW217937   6.350   0.283   2.283 -0.3492  1.3143  0.4558
 5357SOL     OW17938   2.232   1.519   2.919 -0.4422 -0.1360 -0.4131
 5357SOL    HW117939   2.193   1.601   2.890 -1.4181 -0.9379 -1.4665
 5357SOL    HW217940   2.323   1.524   2.890 -0.1257  1.0929  0.6780
 5358SOL     OW17941   4.649   4.524   4.239  0.0196 -0.0625 -0.3523
 5358SOL    HW117942   4.657   4.616   4.262  0.9337 -0.5094  1.2783
 5358SOL    HW217943   4.648   4.478   4.323  2.1286 -1.7047 -1.1482
 5359SOL     OW17944   2.077   6.448   6.950 -0.4158 -0.0215 -0.4991
 5359SOL    HW117945   1.987   6.433   6.922 -0.8799 -1.4899  1.5242
 5359SOL    HW217946   2.129   6.393   6.891 -1.0553 -0.7261 -0.4332
 5360SOL     OW17947   2.884   0.851   5.287  0.0699  0.7389  0.6616
 5360SOL    HW117948   2.843   0.832   5.202 -1.4212  0.4727  1.4093
 5360SOL    HW217949   2.826   0.915   5.328  2.0085  2.6504  0.5634
 5361SOL     OW17950   8.721   8.224   1.698  0.1649  0.1916  0.4614
 5361SOL    HW117951   8.802   8.198   1.742 -0.0007 -0.1035  0.5957
 5361SOL    HW217952   8.651   8.199   1.759 -0.0412  0.1982  0.2323
 5362SOL     OW17953   8.230   5.947   1.805 -0.6783 -0.0507  0.2578
 5362SOL    HW117954   8.307   5.990   1.768  1.4671 -2.1498  2.0057
 5362SOL    HW217955   8.200   5.889   1.735 -0.2344  0.2583 -0.1983
 5363SOL     OW17956   2.290   0.016   4.727  0.5656 -0.3518 -0.6958
 5363SOL    HW117957   2.335   0.087   4.773 -1.0115  0.0153  0.3540
 5363SOL    HW217958   2.268  -0.047   4.795 -0.0389 -0.7782 -1.2761
 5364SOL     OW17959   4.258   5.133   2.150 -0.1897 -0.0030 -0.6438
 5364SOL    HW117960   4.320   5.178   2.094  0.6595 -0.0074  0.2775
 5364SOL    HW217961   4.309   5.066   2.194 -0.4836  0.9712  1.2781
 5365SOL     OW17962   6.588   3.791   8.882  0.2546 -0.2208  0.0642
 5365SOL    HW117963   6.683   3.791   8.893  0.0755 -1.4061  2.0347
 5365SOL    HW217964   6.556   3.850   8.951 -0.4968 -0.6876  0.1233
 5366SOL     OW17965   2.492   5.359   1.252 -0.2284 -0.2508 -0.4833
 5366SOL    HW117966   2.476   5.297   1.323  0.0459 -0.3925 -0.5432
 5366SOL    HW217967   2.572   5.328   1.210 -0.0491  0.1890 -0.4686
 5367SOL     OW17968   2.610   4.935   6.790  0.2118  0.0158 -0.4295
 5367SOL    HW117969   2.583   5.027   6.796  0.4185  0.0855 -0.5739
 5367SOL    HW217970   2.685   4.927   6.849 -0.1036 -0.1737 -0.0471
 5368SOL     OW17971   4.337   4.111   5.641  0.5354 -0.2009  0.2126
 5368SOL    HW117972   4.402   4.099   5.710  0.1089  1.2324  0.8878
 5368SOL    HW217973   4.333   4.026   5.597  1.3861 -0.8988  1.4440
 5369SOL     OW17974   0.531   3.831   7.632  0.0863  0.6391  0.6436
 5369SOL    HW117975   0.600   3.808   7.570 -1.0766 -1.1626 -0.0845
 5369SOL    HW217976   0.500   3.746   7.665 -1.5927  1.3950  1.1257
 5370SOL     OW17977   1.382   2.964   3.267 -0.5697  0.3306  0.1220
 5370SOL    HW117978   1.465   2.973   3.314 -0.8938  1.2355  0.5392
 5370SOL    HW217979   1.324   2.918   3.329 -0.6546  0.5145  0.1797
 5371SOL     OW17980   2.601   8.147   1.294  0.4429 -0.5177  0.4473
 5371SOL    HW117981   2.558   8.087   1.354  1.4365 -1.1245  0.5834
 5371SOL    HW217982   2.570   8.234   1.319 -0.3126 -0.9000  0.8433
 5372SOL     OW17983   6.958   7.523   2.870  0.6248  0.1179  0.4572
 5372SOL    HW117984   7.037   7.549   2.918 -0.2346  1.1496  1.3651
 5372SOL    HW217985   6.932   7.601   2.822  1.8452 -1.0847 -2.3411
 5373SOL     OW17986   5.625   2.708   4.745 -0.3090  0.3276  0.4367
 5373SOL    HW117987   5.693   2.643   4.723 -1.1184 -0.3079 -0.2433
 5373SOL    HW217988   5.635   2.776   4.679 -0.8200 -0.1458 -0.1455
 5374SOL     OW17989   8.905   6.618   7.479  0.0960 -0.2246  0.2066
 5374SOL    HW117990   8.967   6.593   7.410  0.7617 -1.0107  1.0470
 5374SOL    HW217991   8.930   6.708   7.502  0.5340 -0.3206  0.1203
 5375SOL     OW17992   4.868   8.491   1.758  0.4167  0.2798  0.0904
 5375SOL    HW117993   4.881   8.573   1.806  1.6625 -0.0436  0.3445
 5375SOL    HW217994   4.777   8.494   1.730  0.9134  2.7061 -1.6210
 5376SOL     OW17995   2.195   5.163   6.380 -0.3169 -0.3555 -0.1446
 5376SOL    HW117996   2.233   5.094   6.326  2.0941  0.3851  0.4621
 5376SOL    HW217997   2.200   5.241   6.325 -0.9549 -0.2319 -0.0285
 5377SOL     OW17998   0.458   5.449   8.079  0.5955  0.5274  0.5121
 5377SOL    HW117999   0.396   5.404   8.136  0.4483  1.1499  0.8529
 5377SOL    HW218000   0.407   5.475   8.003  0.3645  1.3148  0.9352
 5378SOL     OW18001   8.150   1.609   3.685 -0.0231 -0.2600 -0.3566
 5378SOL    HW118002   8.075   1.624   3.628  1.3169  1.1625 -1.8557
 5378SOL    HW218003   8.223   1.593   3.625  0.7332 -2.6755  1.0701
 5379SOL     OW18004   5.841   2.545   4.711  0.1344  0.0667 -0.5442
 5379SOL    HW118005   5.933   2.565   4.725  0.1828  0.6853 -1.6636
 5379SOL    HW218006   5.841   2.456   4.677  0.2007 -0.4350  0.6983
 5380SOL     OW18007   7.163   4.249   4.211 -0.1724 -0.1266 -0.1648
 5380SOL    HW118008   7.118   4.263   4.294  1.0135  0.7875  0.3509
 5380SOL    HW218009   7.125   4.168   4.177 -3.5250  1.4863 -0.6770
 5381SOL     OW18010   5.088   2.730   7.583 -0.2137  0.4924 -0.2497
 5381SOL    HW118011   5.114   2.774   7.664  0.1715 -1.0204  0.4857
 5381SOL    HW218012   5.009   2.681   7.606 -0.0490 -0.0235 -0.7597
 5382SOL     OW18013   1.320   0.810   7.370  0.1659  0.0383 -0.7448
 5382SOL    HW118014   1.245   0.762   7.334 -1.2059  1.5624 -0.0436
 5382SOL    HW218015   1.383   0.813   7.299 -0.0878 -1.9232 -1.1266
 5383SOL     OW18016   6.798   5.214   2.488  0.3252  0.4746 -0.3162
 5383SOL    HW118017   6.737   5.184   2.556  0.5896  0.0485 -0.2616
 5383SOL    HW218018   6.754   5.194   2.405  0.6295 -0.3524 -0.2832
 5384SOL     OW18019   1.759   1.508   7.315  0.2948 -0.8132 -0.1620
 5384SOL    HW118020   1.722   1.422   7.333 -0.9934 -0.3669 -0.5432
 5384SOL    HW218021   1.841   1.511   7.365 -0.5410 -1.5752  1.2899
 5385SOL     OW18022   4.064   6.612   2.902 -0.2283  0.6247  0.1641
 5385SOL    HW118023   4.046   6.624   2.995  0.2790 -1.4776  0.5877
 5385SOL    HW218024   4.002   6.545   2.874  0.7369  0.0146 -0.5927
 5386SOL     OW18025   0.568   7.600   6.045 -0.0502 -0.1182 -0.4209
 5386SOL    HW118026   0.647   7.546   6.040  1.0755  1.5134 -1.2833
 5386SOL    HW218027   0.585   7.673   5.984 -2.7307 -0.3523 -1.5914
 5387SOL     OW18028   7.546   1.718   8.411  0.1726  0.0313 -0.0951
 5387SOL    HW118029   7.474   1.775   8.437  0.7792  0.2541  1.1478
 5387SOL    HW218030   7.516   1.630   8.435  0.7763  0.2453  1.5691
 5388SOL     OW18031   1.474   2.929   1.777 -0.4400  0.3898 -0.5930
 5388SOL    HW118032   1.511   2.865   1.838  1.7214  1.1330 -1.0302
 5388SOL    HW218033   1.380   2.928   1.795 -0.1027 -0.7889  1.4001
 5389SOL     OW18034   1.602   7.532   8.379  0.4054 -0.9690 -0.8602
 5389SOL    HW118035   1.509   7.525   8.402  0.5629 -1.9627 -0.4703
 5389SOL    HW218036   1.648   7.499   8.456  1.2079  1.6313 -0.0990
 5390SOL     OW18037   8.598   8.603   5.963 -0.1222 -0.1258  0.3101
 5390SOL    HW118038   8.690   8.612   5.935 -0.2597 -0.2144 -0.1911
 5390SOL    HW218039   8.582   8.681   6.016  0.0126  0.3185 -0.2750
 5391SOL     OW18040   7.058   1.328   6.246 -0.4172 -0.4360  0.4981
 5391SOL    HW118041   7.047   1.313   6.340 -2.0729 -0.5206  0.3269
 5391SOL    HW218042   6.996   1.268   6.205 -1.2548  1.0591 -0.5398
 5392SOL     OW18043   5.416   7.197   8.451  0.2670  0.3798 -0.5457
 5392SOL    HW118044   5.476   7.134   8.411  0.8221  0.0277  0.7688
 5392SOL    HW218045   5.334   7.148   8.460  0.4998  0.0556 -0.1425
 5393SOL     OW18046   5.896   7.796   7.249 -0.3459 -0.0753 -0.3374
 5393SOL    HW118047   5.940   7.881   7.260 -0.6708  0.0969 -0.3666
 5393SOL    HW218048   5.891   7.761   7.338 -1.9253  0.7983 -0.0380
 5394SOL     OW18049   4.697   3.721   8.258 -0.2251  0.3749  0.2428
 5394SOL    HW118050   4.614   3.682   8.285  0.0536 -1.5784 -1.4976
 5394SOL    HW218051   4.763   3.655   8.280  0.2669 -0.3093 -2.8111
 5395SOL     OW18052   7.235   0.844   7.152  0.1160 -0.1503 -0.6825
 5395SOL    HW118053   7.313   0.800   7.118 -0.4336 -1.4037 -0.3685
 5395SOL    HW218054   7.214   0.910   7.086  1.8946  0.7694 -0.3860
 5396SOL     OW18055   4.806   6.539   7.806  0.7016 -0.1160  0.8529
 5396SOL    HW118056   4.770   6.458   7.769  1.3269  0.5471 -1.3692
 5396SOL    HW218057   4.845   6.512   7.888  0.1246 -1.9070  0.5982
 5397SOL     OW18058   7.469   1.558   1.610 -0.0494 -0.2675  0.3634
 5397SOL    HW118059   7.452   1.464   1.614  0.0981 -0.2818  0.6924
 5397SOL    HW218060   7.564   1.565   1.596 -0.2818 -0.1887 -1.4685
 5398SOL     OW18061   5.532   2.531   5.260  0.2308  0.0925 -0.0775
 5398SOL    HW118062   5.487   2.542   5.343 -1.4774 -2.1052 -0.6402
 5398SOL    HW218063   5.601   2.467   5.278 -0.2825 -0.5536 -0.3845
 5399SOL     OW18064   4.313   6.853   5.939 -0.1813 -0.6387  0.2169
 5399SOL    HW118065   4.327   6.802   6.018  2.6313 -0.0913  0.1755
 5399SOL    HW218066   4.288   6.940   5.970  1.1483 -0.3590  0.5276
 5400SOL     OW18067   5.105   5.465   5.472  0.2378  0.7486  0.5322
 5400SOL    HW118068   5.040   5.433   5.410 -0.6036  0.2702  1.6389
 5400SOL    HW218069   5.071   5.550   5.501 -0.6465 -0.1322  2.1719
 5401SOL     OW18070   2.671   6.616   4.457  0.5347 -0.6827  0.2985
 5401SOL    HW118071   2.580   6.643   4.465  0.9043  0.3005  1.7370
 5401SOL    HW218072   2.720   6.682   4.506  2.2116 -0.2673 -1.7596
 5402SOL     OW18073   1.691   5.125   7.984 -0.7824  0.3333  0.1688
 5402SOL    HW118074   1.785   5.111   7.977 -0.2801  2.1186  2.0869
 5402SOL    HW218075   1.654   5.038   8.000  0.1946 -0.7255 -2.7386
 5403SOL     OW18076   8.510   8.861   2.536 -0.3359  0.4997  0.0027
 5403SOL    HW118077   8.451   8.893   2.468 -2.9441 -0.5165  1.6389
 5403SOL    HW218078   8.533   8.938   2.587 -0.5298  0.8649 -0.4585
 5404SOL     OW18079   0.345   2.247   7.695 -0.3685  0.2976  0.0370
 5404SOL    HW118080   0.336   2.203   7.779  0.3158  0.7404  0.3418
 5404SOL    HW218081   0.369   2.337   7.716 -1.9157  0.8888 -0.5812
 5405SOL     OW18082   8.672   3.379   6.424  0.4982 -0.0678  0.0861
 5405SOL    HW118083   8.662   3.350   6.333 -0.9301  0.3600  0.0753
 5405SOL    HW218084   8.748   3.331   6.457  1.2767  0.0518 -1.4409
 5406SOL     OW18085   5.120   0.538   4.418 -0.5459 -0.4664 -0.0840
 5406SOL    HW118086   5.034   0.527   4.459  0.5618 -0.8966  2.2391
 5406SOL    HW218087   5.173   0.468   4.455  0.5672 -0.9220 -2.3459
 5407SOL     OW18088   0.661   3.086   5.887  0.8602 -0.0254 -0.6807
 5407SOL    HW118089   0.711   3.143   5.828 -1.3180  2.2039 -0.5459
 5407SOL    HW218090   0.640   3.143   5.961  0.4143 -1.6946  0.5164
 5408SOL     OW18091   3.047   5.646   5.984 -0.0429  0.2183 -0.0811
 5408SOL    HW118092   3.113   5.631   6.051  0.8004 -0.1938 -0.9868
 5408SOL    HW218093   3.031   5.740   5.986  2.0026  0.6399 -1.1451
 5409SOL     OW18094   3.639   8.094   2.270  0.0047 -0.0123  0.2665
 5409SOL    HW118095   3.726   8.108   2.305  0.8188  3.1660 -2.5219
 5409SOL    HW218096   3.640   8.003   2.239  1.9503 -0.3452  1.1859
 5410SOL     OW18097   8.943   2.722   8.987 -0.1255  0.3392  0.0718
 5410SOL    HW118098   8.971   2.632   9.004  0.0911  0.1439 -1.2547
 5410SOL    HW218099   8.870   2.714   8.927 -0.8131  1.0254  0.7884
 5411SOL     OW18100   8.839   7.743   7.048 -0.1228  0.1633  0.4261
 5411SOL    HW118101   8.917   7.792   7.075  0.0395  0.7688 -1.0372
 5411SOL    HW218102   8.820   7.775   6.960  0.2504 -2.7165 -0.8210
 5412SOL     OW18103   7.324   2.025   5.747  0.3373 -0.5476  0.1127
 5412SOL    HW118104   7.237   2.059   5.767  0.3007 -1.2893  1.2708
 5412SOL    HW218105   7.313   1.981   5.662 -0.1625  0.2366 -0.2433
 5413SOL     OW18106   7.814   7.511   0.015  0.3637  0.0103  0.3506
 5413SOL    HW118107   7.856   7.426   0.001 -2.8274 -1.4231 -1.7476
 5413SOL    HW218108   7.736   7.491   0.065 -1.3620  1.3426 -1.6535
 5414SOL     OW18109   1.312   7.946   4.387  0.2845 -0.3216 -0.8084
 5414SOL    HW118110   1.365   8.020   4.419 -0.8628  0.0445  0.3261
 5414SOL    HW218111   1.242   7.938   4.451 -1.5927 -0.2102 -2.7641
 5415SOL     OW18112   1.296   6.434   4.036  0.3604 -0.0237 -0.0188
 5415SOL    HW118113   1.201   6.449   4.040 -0.3054 -3.4946  0.4846
 5415SOL    HW218114   1.324   6.435   4.127  0.4901 -0.5067 -0.0507
 5416SOL     OW18115   7.182   8.678   1.784  0.5485 -0.0505  0.3581
 5416SOL    HW118116   7.143   8.718   1.705  0.4647 -0.4655  0.1844
 5416SOL    HW218117   7.190   8.586   1.762  2.5031  0.1601  0.0527
 5417SOL     OW18118   5.520   5.770   5.450  0.0014 -0.0276 -1.0963
 5417SOL    HW118119   5.526   5.795   5.358 -0.2499  0.7443 -0.9127
 5417SOL    HW218120   5.446   5.709   5.454 -1.0562  1.2183 -1.1563
 5418SOL     OW18121   7.739   8.325   7.597 -1.4228 -0.2521  0.1534
 5418SOL    HW118122   7.748   8.376   7.677 -0.3893 -0.1721  0.0038
 5418SOL    HW218123   7.666   8.366   7.550 -0.9087  0.8165  0.2474
 5419SOL     OW18124   5.407   7.553   7.278  0.1362 -0.1375  0.1913
 5419SOL    HW118125   5.414   7.608   7.356 -0.4380 -0.3196  0.3744
 5419SOL    HW218126   5.313   7.551   7.258  0.3569  0.6578 -1.0478
 5420SOL     OW18127   0.997   8.764   8.024  0.3319 -0.1711  0.2502
 5420SOL    HW118128   1.058   8.697   7.993  2.4368  1.4771  0.5557
 5420SOL    HW218129   1.014   8.840   7.968  0.0459  0.9951  1.6837
 5421SOL     OW18130   6.998   2.168   4.359  0.1915  0.4866 -0.1907
 5421SOL    HW118131   6.993   2.240   4.296  0.5216  1.4950  0.8932
 5421SOL    HW218132   6.965   2.092   4.312 -1.7186  1.6874 -0.8738
 5422SOL     OW18133   4.088   8.296   6.944 -0.0468  0.6933  0.3409
 5422SOL    HW118134   4.156   8.245   6.901 -0.8863  0.1128 -0.3286
 5422SOL    HW218135   4.080   8.375   6.889 -1.1249 -0.0521 -0.6005
 5423SOL     OW18136   8.848   5.192   8.854  0.1230 -0.6467  0.5866
 5423SOL    HW118137   8.922   5.132   8.856 -0.0935 -0.9131  0.6548
 5423SOL    HW218138   8.775   5.139   8.822 -0.3141 -0.6939  1.6306
 5424SOL     OW18139   2.305   2.638   3.952  0.1928 -0.2484 -0.0038
 5424SOL    HW118140   2.371   2.707   3.947 -1.1131  1.0515 -0.0793
 5424SOL    HW218141   2.237   2.674   4.009 -1.2054 -0.8626 -1.2040
 5425SOL     OW18142   3.250   1.300   6.644 -0.5407  0.0275  0.4311
 5425SOL    HW118143   3.285   1.287   6.556 -0.6240 -0.0020  0.4021
 5425SOL    HW218144   3.172   1.245   6.646  0.7036 -1.8006  1.2907
 5426SOL     OW18145   1.482   2.100   0.762 -0.1893  0.0464  0.1519
 5426SOL    HW118146   1.524   2.014   0.766  0.1728  0.1957 -0.2427
 5426SOL    HW218147   1.551   2.161   0.789 -0.8703  0.0990  1.8778
 5427SOL     OW18148   3.589   1.755   1.541  0.0137  0.1170 -0.0273
 5427SOL    HW118149   3.652   1.826   1.549  1.0902 -0.7737 -0.4161
 5427SOL    HW218150   3.627   1.683   1.590 -0.3709 -0.6476 -0.8351
 5428SOL     OW18151   5.099   7.982   7.548 -0.1109  0.4559 -0.0203
 5428SOL    HW118152   5.116   7.933   7.468  1.3910 -0.0723  0.5747
 5428SOL    HW218153   5.035   7.928   7.596  0.2899 -0.1065 -0.1042
 5429SOL     OW18154   7.685   8.090   8.979 -0.3250  0.0829  0.5301
 5429SOL    HW118155   7.771   8.118   8.946  0.3198 -2.8601 -0.5994
 5429SOL    HW218156   7.623   8.150   8.939  1.1027  1.6255  0.5176
 5430SOL     OW18157   8.713   7.321   5.417  0.0928 -0.2521  0.7784
 5430SOL    HW118158   8.797   7.335   5.460  1.1014  1.9599 -1.6699
 5430SOL    HW218159   8.650   7.365   5.474  0.8747 -0.1724  1.6092
 5431SOL     OW18160   5.416   6.593   3.562  0.0915 -0.5200 -0.4616
 5431SOL    HW118161   5.380   6.604   3.650  2.3954 -2.0637  0.7783
 5431SOL    HW218162   5.343   6.558   3.511 -1.2553  0.2404  0.8532
 5432SOL     OW18163   0.761   7.830   1.116 -0.0114 -0.0187 -0.1198
 5432SOL    HW118164   0.806   7.749   1.142 -0.4497 -0.3247 -0.2963
 5432SOL    HW218165   0.668   7.813   1.135 -0.3475 -0.2455 -1.8168
 5433SOL     OW18166   1.551   6.332   8.180  0.4308 -0.4023 -0.8062
 5433SOL    HW118167   1.475   6.389   8.166  0.6415  0.1614  0.1884
 5433SOL    HW218168   1.515   6.244   8.187 -0.1257 -0.1478 -0.4320
 5434SOL     OW18169   1.576   0.523   8.904  0.2636  0.5871  0.0300
 5434SOL    HW118170   1.617   0.578   8.838  1.5650  0.3655  0.6206
 5434SOL    HW218171   1.491   0.564   8.920  0.5667  1.5131 -0.6691
 5435SOL     OW18172   8.290   6.341   8.836  0.1089 -0.2090 -0.2929
 5435SOL    HW118173   8.358   6.309   8.776  1.2121  1.7162 -0.1488
 5435SOL    HW218174   8.266   6.263   8.887  3.8210 -0.6113  1.1665
 5436SOL     OW18175   8.923   4.920   6.899 -0.2625 -0.0994 -0.3235
 5436SOL    HW118176   8.974   4.982   6.951  0.1505  1.8537 -2.8774
 5436SOL    HW218177   8.935   4.949   6.809 -0.8237 -3.3994 -1.5840
 5437SOL     OW18178   8.143   1.401   5.330  0.7870 -0.6832  0.2234
 5437SOL    HW118179   8.072   1.443   5.281 -0.2450 -3.8528 -1.3130
 5437SOL    HW218180   8.176   1.334   5.270  1.5335 -2.7843  2.8242
 5438SOL     OW18181   3.669   4.268   1.093 -0.0956 -0.3728 -1.1088
 5438SOL    HW118182   3.765   4.261   1.095 -0.1410 -1.9297 -2.4073
 5438SOL    HW218183   3.652   4.351   1.049  0.6698 -0.4650 -1.5909
 5439SOL     OW18184   5.893   7.122   7.822 -0.4864  0.4579  0.3598
 5439SOL    HW118185   5.932   7.193   7.872 -0.4469  0.9597 -0.3766
 5439SOL    HW218186   5.857   7.164   7.744  1.8780 -0.6088 -1.4536
 5440SOL     OW18187   2.848   3.853   4.108  0.1118  0.0174 -0.2346
 5440SOL    HW118188   2.777   3.829   4.048  0.0865 -2.7129  0.7338
 5440SOL    HW218189   2.803   3.892   4.183 -0.4001 -1.5184  0.2885
 5441SOL     OW18190   4.294   2.602   7.250  0.3542 -0.3463  0.1291
 5441SOL    HW118191   4.316   2.524   7.301  0.6416 -0.7971 -0.6599
 5441SOL    HW218192   4.331   2.585   7.163  0.0794  0.5017 -0.1666
 5442SOL     OW18193   0.171   6.970   7.410 -0.3356 -0.2745 -0.6060
 5442SOL    HW118194   0.189   7.037   7.344 -0.5869 -1.8182 -2.3161
 5442SOL    HW218195   0.220   6.893   7.379  0.7971 -0.6233  1.8410
 5443SOL     OW18196   4.456   8.207   1.390 -0.2963 -0.1693  0.0324
 5443SOL    HW118197   4.412   8.255   1.319  0.4562 -1.1175 -1.1263
 5443SOL    HW218198   4.549   8.217   1.371 -0.1066 -1.3159  0.2702
 5444SOL     OW18199   7.678   4.335   3.063 -0.3315 -0.5419 -0.1677
 5444SOL    HW118200   7.746   4.374   3.009  0.6259 -2.0743 -0.1353
 5444SOL    HW218201   7.664   4.248   3.025 -0.9891 -0.9332  0.8990
 5445SOL     OW18202   8.442   3.906   6.898 -0.7158  0.4390  0.1197
 5445SOL    HW118203   8.510   3.890   6.965  0.5683  0.2652 -1.1710
 5445SOL    HW218204   8.479   3.868   6.818 -2.3367  0.4084 -0.6433
 5446SOL     OW18205   5.794   2.872   2.625 -0.1313 -0.1762 -0.2872
 5446SOL    HW118206   5.704   2.888   2.597 -0.3348 -0.8622 -0.0430
 5446SOL    HW218207   5.801   2.917   2.709 -0.5067 -0.8132  0.0938
 5447SOL     OW18208   6.368   8.165   7.449 -0.4239  0.1681  0.0303
 5447SOL    HW118209   6.456   8.199   7.437  0.3214 -1.3132  0.9380
 5447SOL    HW218210   6.328   8.222   7.514 -0.3790  1.2111 -0.8265
 5448SOL     OW18211   1.766   7.662   4.340 -0.2776  0.4082 -0.2202
 5448SOL    HW118212   1.806   7.662   4.427  0.3087  0.4164 -0.4802
 5448SOL    HW218213   1.689   7.718   4.348  0.4088  1.3498  0.0140
 5449SOL     OW18214   5.723   6.949   5.586 -0.1359 -0.0911 -0.6579
 5449SOL    HW118215   5.801   7.004   5.582 -0.5196  0.5724  0.3489
 5449SOL    HW218216   5.756   6.860   5.588  0.5227  0.1120 -1.8623
 5450SOL     OW18217   7.912   4.841   8.427  0.2705 -0.1679  0.0034
 5450SOL    HW118218   7.936   4.904   8.495  1.6434 -0.3099 -0.3053
 5450SOL    HW218219   7.831   4.874   8.389 -0.0010  0.4221  1.0624
 5451SOL     OW18220   6.827   1.220   7.977  0.2525  0.3251 -0.1057
 5451SOL    HW118221   6.734   1.242   7.980  0.4956  1.4128 -0.1473
 5451SOL    HW218222   6.867   1.278   8.042  0.8043 -0.6676  0.4588
 5452SOL     OW18223   4.672   1.073   3.546 -0.1062  0.2407  0.2356
 5452SOL    HW118224   4.618   1.036   3.475 -0.0338 -1.0861  0.8484
 5452SOL    HW218225   4.668   1.168   3.531  2.1676 -0.0290 -3.2373
 5453SOL     OW18226   3.680   8.544   0.033 -0.1006  0.2655 -0.1471
 5453SOL    HW118227   3.623   8.468   0.047 -0.6047  0.5481 -0.6410
 5453SOL    HW218228   3.694   8.580   0.121  1.8319 -1.5720  0.4052
 5454SOL     OW18229   8.845   1.891   2.832 -0.3593 -0.1690  0.4649
 5454SOL    HW118230   8.906   1.928   2.896 -0.2296 -0.0665  0.2854
 5454SOL    HW218231   8.874   1.927   2.748 -0.8744  0.1474  0.4186
 5455SOL     OW18232   8.002   2.378   6.922  0.3608  0.7677 -0.5544
 5455SOL    HW118233   8.061   2.396   6.849  0.1378 -1.4480 -1.3594
 5455SOL    HW218234   7.916   2.404   6.889  0.5280  1.7688 -0.2512
 5456SOL     OW18235   7.629   5.746   2.703 -0.0635 -0.2845  0.7196
 5456SOL    HW118236   7.554   5.711   2.750 -0.7679  0.3592  0.0868
 5456SOL    HW218237   7.629   5.839   2.723  0.1182 -0.1474  0.1126
 5457SOL     OW18238   5.064   4.313   6.108 -0.3270 -0.2142 -0.1881
 5457SOL    HW118239   5.098   4.355   6.029  0.7459 -1.2100 -0.2836
 5457SOL    HW218240   5.127   4.244   6.127 -2.3268 -2.1844 -0.3610
 5458SOL     OW18241   2.776   5.507   1.871 -0.2772  0.0799  0.1549
 5458SOL    HW118242   2.707   5.572   1.857 -0.1293  0.1658 -0.1942
 5458SOL    HW218243   2.730   5.431   1.905 -0.1921  1.0584  2.6397
 5459SOL     OW18244   4.592   5.020   3.342 -0.2602 -0.3039 -0.2761
 5459SOL    HW118245   4.505   5.058   3.324 -1.3527 -2.6148 -0.1740
 5459SOL    HW218246   4.575   4.948   3.402  1.8035 -0.6156 -0.0012
 5460SOL     OW18247   2.640   3.437   3.162 -0.2868  0.3206  0.7313
 5460SOL    HW118248   2.641   3.478   3.249 -0.5491  1.4126  0.2255
 5460SOL    HW218249   2.564   3.473   3.118 -0.1378 -0.1999  0.0170
 5461SOL     OW18250   1.941   1.840   5.025 -0.7009 -0.0082 -0.1495
 5461SOL    HW118251   1.871   1.780   5.052  0.2506 -0.5064  1.3885
 5461SOL    HW218252   2.016   1.783   5.009 -0.2989  0.6234 -0.5612
 5462SOL     OW18253   2.219   4.908   4.310 -0.5299 -0.5038  0.8848
 5462SOL    HW118254   2.216   4.895   4.216 -0.5777 -2.1550  1.0874
 5462SOL    HW218255   2.312   4.921   4.330 -0.4295 -0.9083  0.6891
 5463SOL     OW18256   8.702   7.422   3.469  0.0445 -0.0557  0.1662
 5463SOL    HW118257   8.716   7.358   3.539  0.5700 -1.0592 -0.8313
 5463SOL    HW218258   8.623   7.469   3.494  1.0102  0.6257  2.1875
 5464SOL     OW18259   2.003   0.439   3.169  0.2758 -0.2486  0.3808
 5464SOL    HW118260   1.976   0.468   3.082 -0.5895 -2.5677 -0.1945
 5464SOL    HW218261   2.098   0.447   3.168  0.2036  0.7694 -0.3711
 5465SOL     OW18262   8.636   0.987   6.987 -0.4134  0.2096  0.6373
 5465SOL    HW118263   8.693   1.044   7.039  1.0443 -1.8906  1.4767
 5465SOL    HW218264   8.615   0.915   7.045 -0.1843 -1.3313 -1.0940
 5466SOL     OW18265   2.480   3.644   1.392  0.7117  0.7144 -0.3279
 5466SOL    HW118266   2.505   3.597   1.312  0.4995  0.5922 -0.3239
 5466SOL    HW218267   2.546   3.617   1.456 -0.1840 -0.6621  0.0554
 5467SOL     OW18268   2.006   1.492   5.158 -0.1767 -0.2983 -0.2543
 5467SOL    HW118269   2.055   1.569   5.186 -3.0211  1.4670  0.2610
 5467SOL    HW218270   2.073   1.431   5.127  2.2938  1.8620  0.4754
 5468SOL     OW18271   6.675   2.509   0.883 -0.4286 -0.0474 -0.4392
 5468SOL    HW118272   6.662   2.552   0.967  0.4602 -2.0262  0.7884
 5468SOL    HW218273   6.722   2.573   0.830  1.4277  0.3024  1.5237
 5469SOL     OW18274   1.836   1.772   0.398  0.2474  0.0376 -0.5938
 5469SOL    HW118275   1.741   1.773   0.412  0.1561 -1.0584 -1.0460
 5469SOL    HW218276   1.860   1.865   0.389 -0.8948  0.2957 -1.2048
 5470SOL     OW18277   0.090   2.885   1.068  0.2538 -0.5038  0.2321
 5470SOL    HW118278   0.076   2.817   1.134 -1.3400 -0.2104  0.2256
 5470SOL    HW218279   0.058   2.965   1.109 -1.4422 -0.4322 -1.1102
 5471SOL     OW18280   1.987   7.669   6.999 -0.0060 -0.3134  0.3300
 5471SOL    HW118281   2.020   7.658   7.088 -1.8288 -1.7352  0.9000
 5471SOL    HW218282   2.032   7.601   6.948 -1.1431 -1.5374  0.8761
 5472SOL     OW18283   2.039   6.704   0.806  0.1812  0.0207 -0.1857
 5472SOL    HW118284   2.064   6.727   0.717 -0.3451 -1.2336 -0.6749
 5472SOL    HW218285   2.048   6.609   0.810 -1.1771 -0.0958  0.6581
 5473SOL     OW18286   4.090   3.802   1.693  0.1807  0.0683  0.4901
 5473SOL    HW118287   4.007   3.801   1.647  0.5762  0.0732 -0.2346
 5473SOL    HW218288   4.085   3.729   1.754  0.1023 -0.6530 -0.3691
 5474SOL     OW18289   0.989   8.163   2.417 -0.2694 -0.1127  0.3610
 5474SOL    HW118290   1.062   8.115   2.456  0.6488  0.6012 -0.4453
 5474SOL    HW218291   0.945   8.099   2.361 -0.5290 -0.6590  1.1772
 5475SOL     OW18292   0.865   2.992   1.567 -0.3399 -0.5088 -0.4437
 5475SOL    HW118293   0.923   2.916   1.566 -1.8956 -1.7572  0.6902
 5475SOL    HW218294   0.777   2.957   1.553 -1.0364  1.1540 -0.5203
 5476SOL     OW18295   6.098   4.802   8.972 -0.3070  0.0346 -0.3265
 5476SOL    HW118296   6.166   4.740   8.947 -0.6732 -1.2045  1.5527
 5476SOL    HW218297   6.040   4.805   8.896  0.0214 -1.5266 -0.6812
 5477SOL     OW18298   3.971   8.052   0.999  0.3835 -0.2594  0.8931
 5477SOL    HW118299   4.008   8.117   1.059 -0.9460  0.5078  0.9228
 5477SOL    HW218300   3.924   7.990   1.056  0.0244 -0.1380  0.7366
 5478SOL     OW18301   8.928   4.573   3.754 -0.6487 -0.4786  0.2398
 5478SOL    HW118302   8.922   4.550   3.847 -1.3830  1.9455  0.8823
 5478SOL    HW218303   8.867   4.513   3.711 -0.3101 -1.6330  1.3019
 5479SOL     OW18304   6.233   7.384   8.113 -0.2667  0.4965  0.6747
 5479SOL    HW118305   6.276   7.467   8.133  3.3115 -0.8988 -0.3808
 5479SOL    HW218306   6.240   7.333   8.193 -0.6241  0.5163  0.7185
 5480SOL     OW18307   4.270   0.912   1.425 -0.2026  0.4249  0.2739
 5480SOL    HW118308   4.206   0.923   1.496  1.1893 -1.0930  1.8521
 5480SOL    HW218309   4.258   0.822   1.395  0.2194  0.5937 -0.4241
 5481SOL     OW18310   5.081   6.636   0.889  0.1814  0.3045  0.1243
 5481SOL    HW118311   5.047   6.610   0.804 -0.4212  0.6013  0.2673
 5481SOL    HW218312   5.143   6.567   0.913 -1.2018 -0.9022  0.3885
 5482SOL     OW18313   6.208   8.209   8.694 -0.4819 -0.1024 -0.3576
 5482SOL    HW118314   6.254   8.193   8.611 -1.6280  1.4380 -1.3524
 5482SOL    HW218315   6.259   8.277   8.737 -0.4645 -0.1566 -0.2919
 5483SOL     OW18316   5.064   5.105   0.400  0.6362 -0.5054 -0.1272
 5483SOL    HW118317   4.988   5.123   0.345  0.1121  0.6586  0.9092
 5483SOL    HW218318   5.028   5.059   0.476  1.3149 -1.9017 -0.6170
 5484SOL     OW18319   0.422   1.277   2.338  0.3167 -0.4027  0.1852
 5484SOL    HW118320   0.429   1.199   2.283 -1.9184 -0.8701  0.4414
 5484SOL    HW218321   0.457   1.348   2.284  0.4429 -1.2404 -0.8737
 5485SOL     OW18322   2.980   2.937   2.571  0.0205  0.2006 -0.3854
 5485SOL    HW118323   2.984   2.893   2.486  1.3182 -1.4782  0.4789
 5485SOL    HW218324   3.066   2.978   2.581  0.4266 -0.8720  0.7168
 5486SOL     OW18325   5.391   1.220   8.839 -0.2293 -0.0204 -0.6261
 5486SOL    HW118326   5.394   1.183   8.751 -0.8051 -0.7074 -0.3680
 5486SOL    HW218327   5.482   1.243   8.859  0.1547 -1.2847 -0.8155
 5487SOL     OW18328   4.533   7.428   3.802  0.5059  0.2585  0.4981
 5487SOL    HW118329   4.439   7.437   3.784  0.0786 -1.8595  1.3895
 5487SOL    HW218330   4.559   7.350   3.752  1.0266 -1.0614  2.6971
 5488SOL     OW18331   0.911   6.421   8.440 -0.1981  0.0392 -0.1742
 5488SOL    HW118332   0.827   6.397   8.480  0.8272 -2.1681  0.8214
 5488SOL    HW218333   0.952   6.479   8.504 -0.1091 -0.5539  0.3169
 5489SOL     OW18334   0.647   8.771   2.372  0.1574 -0.1031  0.6415
 5489SOL    HW118335   0.641   8.750   2.466 -1.2363 -2.3875  0.1023
 5489SOL    HW218336   0.739   8.753   2.350  0.6726  1.0812  1.6437
 5490SOL     OW18337   3.421   3.207   2.769 -0.0605  0.1564  0.0530
 5490SOL    HW118338   3.440   3.215   2.862  0.5827  0.4081 -0.1002
 5490SOL    HW218339   3.334   3.246   2.760  0.3188  1.1046  0.3775
 5491SOL     OW18340   5.371   1.538   5.510  0.4459 -0.8225  0.5240
 5491SOL    HW118341   5.461   1.503   5.513  0.0612 -1.9237 -0.0886
 5491SOL    HW218342   5.324   1.476   5.454 -0.0152  1.2997 -1.5920
 5492SOL     OW18343   1.626   1.066   5.037 -0.1040 -0.0891  0.1016
 5492SOL    HW118344   1.703   1.068   4.980 -0.7134 -0.7819 -0.7762
 5492SOL    HW218345   1.573   0.993   5.004 -0.5774 -0.3927  1.4381
 5493SOL     OW18346   3.740   4.594   6.520  0.3563 -0.5479  0.0680
 5493SOL    HW118347   3.768   4.670   6.571 -0.6847  0.8395 -1.3219
 5493SOL    HW218348   3.773   4.612   6.431  1.1141 -2.3190 -0.0397
 5494SOL     OW18349   2.165   3.034   0.969  0.3950 -1.0570  0.1356
 5494SOL    HW118350   2.180   2.992   1.054  0.6230 -2.0406 -0.3797
 5494SOL    HW218351   2.107   2.975   0.922 -2.4340  1.0051  0.7573
 5495SOL     OW18352   0.806   6.969   1.449  0.7064 -0.2630  0.3868
 5495SOL    HW118353   0.805   7.063   1.469 -1.5834 -0.4017  1.3033
 5495SOL    HW218354   0.830   6.965   1.357 -0.5423  1.3759 -0.0788
 5496SOL     OW18355   7.526   2.903   5.907  0.1435 -0.3173  0.5877
 5496SOL    HW118356   7.458   2.848   5.946  0.6598  0.2448  2.3636
 5496SOL    HW218357   7.485   2.939   5.828 -0.8209 -1.7613  0.3812
 5497SOL     OW18358   8.494   7.411   5.558  0.3488  0.3125  0.4595
 5497SOL    HW118359   8.550   7.488   5.554  0.5834  0.1394  0.3676
 5497SOL    HW218360   8.434   7.428   5.631  0.7645  0.3375  0.8009
 5498SOL     OW18361   0.565   4.222   0.449  0.2580 -0.1698  0.7770
 5498SOL    HW118362   0.563   4.260   0.537  2.4718 -0.9773  1.2540
 5498SOL    HW218363   0.474   4.220   0.421 -0.2353  3.3255  1.6306
 5499SOL     OW18364   2.041   8.026   8.187  0.6193  0.0422  0.0347
 5499SOL    HW118365   1.973   8.067   8.134  0.8675  0.5355  0.0932
 5499SOL    HW218366   2.000   8.016   8.274  0.1090 -1.0408 -0.3085
 5500SOL     OW18367   1.232   6.665   7.879  0.0311 -0.1371  0.5770
 5500SOL    HW118368   1.222   6.748   7.924  0.3001  0.2832 -0.1271
 5500SOL    HW218369   1.322   6.639   7.896  0.3324  0.3406 -0.2361
 5501SOL     OW18370   0.863   1.071   8.901 -0.7685 -0.1186  0.2938
 5501SOL    HW118371   0.906   1.012   8.964 -0.5818 -1.0494 -0.6734
 5501SOL    HW218372   0.893   1.040   8.815 -1.2957  0.9046 -0.2730
 5502SOL     OW18373   0.335   1.859   7.919 -0.1299  0.0776  0.1671
 5502SOL    HW118374   0.305   1.950   7.925 -0.9846 -0.2505  1.2437
 5502SOL    HW218375   0.369   1.840   8.007  0.8062 -0.3947 -0.2869
 5503SOL     OW18376   4.966   2.085   1.221  0.6301  0.5968 -0.0808
 5503SOL    HW118377   5.003   2.117   1.138  2.0700  0.2844  0.4178
 5503SOL    HW218378   4.872   2.101   1.212  0.8803  1.5884 -1.3262
 5504SOL     OW18379   4.383   8.715   8.873 -0.0281 -0.5565  0.1508
 5504SOL    HW118380   4.420   8.661   8.803  1.0678 -0.0793  0.3367
 5504SOL    HW218381   4.291   8.727   8.848  0.3893 -0.2006 -1.3323
 5505SOL     OW18382   4.229   0.907   4.352  0.1283 -0.2425  0.3429
 5505SOL    HW118383   4.171   0.962   4.405  1.3307  0.4975  0.9394
 5505SOL    HW218384   4.175   0.880   4.278 -1.0637  0.1585  1.0286
 5506SOL     OW18385   3.958   7.699   5.148  0.1470 -0.3027  0.7976
 5506SOL    HW118386   3.876   7.681   5.194  0.2778 -0.6577  0.8939
 5506SOL    HW218387   3.998   7.613   5.135  0.1033 -0.2085  0.0034
 5507SOL     OW18388   3.134   4.205   3.874 -0.4693 -0.3228 -0.2269
 5507SOL    HW118389   3.095   4.118   3.875 -0.0619 -0.5924 -2.7175
 5507SOL    HW218390   3.061   4.265   3.887 -1.2086 -0.9434 -1.4090
 5508SOL     OW18391   6.397   5.936   1.574 -0.7984  0.2295  0.0285
 5508SOL    HW118392   6.389   6.010   1.513 -1.5390  0.8497  0.8465
 5508SOL    HW218393   6.394   5.859   1.519  0.4861  0.8070 -0.9029
 5509SOL     OW18394   1.967   3.725   0.914  0.0053 -0.0334  0.2445
 5509SOL    HW118395   1.959   3.808   0.868  1.2962 -0.3369 -0.5795
 5509SOL    HW218396   1.973   3.750   1.007 -1.0167  0.6826  0.1324
 5510SOL     OW18397   6.007   2.349   3.824 -0.2899  0.2922 -0.0030
 5510SOL    HW118398   6.067   2.380   3.892  0.8763 -1.0440 -0.3694
 5510SOL    HW218399   6.031   2.257   3.811 -2.2385 -0.2116 -0.3882
 5511SOL     OW18400   5.877   3.419   4.064  0.9457 -0.2204 -0.1192
 5511SOL    HW118401   5.958   3.418   4.114  0.6392  0.3713  0.3974
 5511SOL    HW218402   5.903   3.441   3.975  1.5447 -1.6552 -0.3219
 5512SOL     OW18403   5.015   5.815   3.503 -0.1358 -0.0545  0.8349
 5512SOL    HW118404   5.022   5.866   3.422  1.1988 -2.7655 -0.9075
 5512SOL    HW218405   5.084   5.851   3.559 -0.1287  0.9322  0.2258
 5513SOL     OW18406   5.809   3.073   2.838  0.5527  0.1881 -0.3156
 5513SOL    HW118407   5.734   3.108   2.887  1.2858  0.4545  0.6483
 5513SOL    HW218408   5.805   3.118   2.753  0.4402  1.2882  0.2493
 5514SOL     OW18409   4.674   7.060   5.521  0.0770  0.0239 -0.1271
 5514SOL    HW118410   4.620   6.984   5.498  0.4071 -0.5930  1.1040
 5514SOL    HW218411   4.623   7.135   5.489 -1.3645 -0.5631  0.7084
 5515SOL     OW18412   0.253   4.018   2.638  0.4038 -0.0763 -0.0594
 5515SOL    HW118413   0.241   4.053   2.549  0.8547 -0.1295 -0.1430
 5515SOL    HW218414   0.224   4.089   2.695 -0.1908 -0.1590 -0.2510
 5516SOL     OW18415   5.039   6.530   8.044  0.3711  0.1709 -0.0281
 5516SOL    HW118416   4.946   6.532   8.064 -0.3582  2.2354 -2.9832
 5516SOL    HW218417   5.049   6.458   7.982 -0.0362  1.9442 -2.3159
 5517SOL     OW18418   7.843   2.925   7.483 -0.9231 -0.6330  0.1803
 5517SOL    HW118419   7.788   3.001   7.465  1.0584  0.1291 -3.7633
 5517SOL    HW218420   7.815   2.859   7.420 -0.8984 -2.2798  1.8100
 5518SOL     OW18421   0.213   3.504   0.212 -0.0571  0.0958  0.2768
 5518SOL    HW118422   0.247   3.458   0.135  1.1377 -1.1095  1.4805
 5518SOL    HW218423   0.225   3.597   0.191  0.5179 -0.2202 -0.8809
 5519SOL     OW18424   7.966   0.040   5.753 -0.4717  0.3379 -0.4628
 5519SOL    HW118425   7.992   0.114   5.697 -0.8723  0.3658 -0.6168
 5519SOL    HW218426   8.029  -0.029   5.732 -1.9494 -0.4587 -2.6916
 5520SOL     OW18427   3.270   7.303   1.670 -0.2058 -0.5855 -0.4912
 5520SOL    HW118428   3.198   7.339   1.721 -0.7374  0.4006 -1.8822
 5520SOL    HW218429   3.348   7.344   1.706 -0.6374  0.5827 -0.8538
 5521SOL     OW18430   0.272   7.750   1.196  0.3623  0.6795  0.0864
 5521SOL    HW118431   0.183   7.778   1.177  0.1775  0.4014  0.5152
 5521SOL    HW218432   0.263   7.659   1.224  0.7239  0.7910  0.5901
 5522SOL     OW18433   7.230   5.631   4.858 -0.7615  0.1398  0.1059
 5522SOL    HW118434   7.233   5.677   4.774 -1.5487 -0.9011 -0.5126
 5522SOL    HW218435   7.283   5.685   4.917  0.2638  0.6077 -1.1972
 5523SOL     OW18436   8.859   5.043   6.644 -0.4245  0.3217  0.1752
 5523SOL    HW118437   8.904   5.115   6.599  0.2620  0.0888  0.4930
 5523SOL    HW218438   8.806   5.087   6.711  0.2896  0.5101  0.6254
 5524SOL     OW18439   7.814   3.777   8.812 -0.0790 -0.4132  0.9209
 5524SOL    HW118440   7.805   3.867   8.780  0.6021  0.2716  2.5166
 5524SOL    HW218441   7.858   3.730   8.742 -0.9943  0.3377 -0.1878
 5525SOL     OW18442   2.596   3.084   8.953 -0.3240  0.4115  0.1657
 5525SOL    HW118443   2.675   3.098   8.900 -0.0700  0.3537  0.5277
 5525SOL    HW218444   2.602   3.149   9.023 -0.9032  0.8138 -0.1437
 5526SOL     OW18445   6.559   8.788   1.885 -0.0752  0.1964 -0.3873
 5526SOL    HW118446   6.486   8.840   1.919 -0.5480 -0.6168 -0.1566
 5526SOL    HW218447   6.637   8.830   1.921 -0.4485  0.8016 -0.2725
 5527SOL     OW18448   1.777   1.662   5.973 -0.1900  0.5493  0.1182
 5527SOL    HW118449   1.762   1.655   6.067  0.8524 -0.4379  0.2344
 5527SOL    HW218450   1.835   1.738   5.964  0.3381  0.1841  0.3671
 5528SOL     OW18451   3.261   2.667   5.661 -0.3988 -0.1314 -0.2731
 5528SOL    HW118452   3.180   2.615   5.665  0.4007 -1.3582  1.0745
 5528SOL    HW218453   3.303   2.652   5.745 -0.2775  3.0884  0.3704
 5529SOL     OW18454   3.475   7.850   5.073 -0.2316 -0.2120  0.3163
 5529SOL    HW118455   3.397   7.794   5.079  0.2531 -1.0675 -0.9692
 5529SOL    HW218456   3.548   7.792   5.093  0.1075  0.5853  1.5163
 5530SOL     OW18457   8.608   1.767   2.950  0.0910  0.1447  0.4302
 5530SOL    HW118458   8.652   1.822   2.885  0.4919 -0.3737  0.2644
 5530SOL    HW218459   8.552   1.709   2.898 -0.9755  0.9485  0.6486
 5531SOL     OW18460   7.778   3.023   4.283  0.0857 -0.0250  0.1427
 5531SOL    HW118461   7.753   2.942   4.328  1.1467 -0.4083  0.0672
 5531SOL    HW218462   7.703   3.082   4.296 -0.4713 -0.8311  0.6587
 5532SOL     OW18463   8.291   8.613   8.320  0.5886  0.3503 -0.0704
 5532SOL    HW118464   8.328   8.549   8.259 -1.3850 -0.1320 -0.8340
 5532SOL    HW218465   8.215   8.568   8.358  1.3024  0.9342  2.1726
 5533SOL     OW18466   3.399   1.913   0.333 -0.2803  0.0593  0.9732
 5533SOL    HW118467   3.472   1.968   0.302 -0.5899 -1.0267 -2.0383
 5533SOL    HW218468   3.442   1.838   0.373  0.2286  0.3573  1.0015
 5534SOL     OW18469   6.805   7.011   3.136 -0.0615  0.1775 -0.5300
 5534SOL    HW118470   6.834   6.930   3.095  0.5665  0.4598 -0.6463
 5534SOL    HW218471   6.718   7.027   3.099 -1.5016 -1.9540  1.5933
 5535SOL     OW18472   6.937   1.244   3.961  0.1408  0.0793  0.1596
 5535SOL    HW118473   7.008   1.226   4.023  0.4415  1.5241  0.2653
 5535SOL    HW218474   6.981   1.248   3.876  0.0905  0.3883  0.1491
 5536SOL     OW18475   3.255   1.150   4.822  0.6124 -0.1119 -0.0276
 5536SOL    HW118476   3.266   1.055   4.819  1.0233 -0.0574 -0.4921
 5536SOL    HW218477   3.308   1.177   4.898  2.7532  0.0055 -1.4789
 5537SOL     OW18478   6.309   8.738   2.442 -0.2783 -0.0878  0.2831
 5537SOL    HW118479   6.241   8.692   2.490 -2.5364  2.3883 -0.2688
 5537SOL    HW218480   6.301   8.706   2.352  2.2278 -2.8286  0.8793
 5538SOL     OW18481   5.866   8.120   6.919 -0.0071  0.8952 -0.0988
 5538SOL    HW118482   5.898   8.201   6.878 -0.7738  1.4319  0.3387
 5538SOL    HW218483   5.926   8.104   6.991  0.1291  1.1045 -0.1650
 5539SOL     OW18484   4.943   1.847   4.954  0.2269 -0.3816  0.3911
 5539SOL    HW118485   4.988   1.799   5.023  1.3688  0.2270  0.0905
 5539SOL    HW218486   4.854   1.811   4.954  1.2487 -3.1808 -0.4923
 5540SOL     OW18487   2.967   4.544   6.750 -0.3010 -0.0476 -0.2181
 5540SOL    HW118488   2.989   4.551   6.657  1.0813 -0.4913  0.0616
 5540SOL    HW218489   2.933   4.455   6.761 -0.8281  0.1307 -0.3556
 5541SOL     OW18490   8.962   5.738   7.761 -0.3906 -0.0745 -0.6975
 5541SOL    HW118491   9.022   5.756   7.833 -0.2999 -0.1045 -0.7665
 5541SOL    HW218492   9.015   5.749   7.682 -0.6870  0.7697 -0.7967
 5542SOL     OW18493   4.239   2.765   5.292  0.3312  0.4932  0.0403
 5542SOL    HW118494   4.214   2.677   5.262  0.3398  1.0385 -1.6873
 5542SOL    HW218495   4.212   2.823   5.220  0.7016  1.8588  0.9690
 5543SOL     OW18496   3.661   0.966   8.686  0.1214  0.3208  0.0983
 5543SOL    HW118497   3.728   1.025   8.721 -1.3724  1.8840  0.4332
 5543SOL    HW218498   3.584   0.982   8.740 -0.4111 -1.8281  0.0565
 5544SOL     OW18499   1.424   3.930   0.623  0.5864 -0.3895 -0.0705
 5544SOL    HW118500   1.404   3.854   0.568  1.2614 -0.8734  0.3358
 5544SOL    HW218501   1.361   3.997   0.596  1.2273 -0.4394 -1.7843
 5545SOL     OW18502   5.042   7.195   8.757 -0.5674 -0.4852  0.1519
 5545SOL    HW118503   4.978   7.265   8.739 -1.9261 -1.4905  0.9299
 5545SOL    HW218504   5.040   7.140   8.679 -0.7076 -0.5688  0.2155
 5546SOL     OW18505   7.056   3.815   6.374 -0.0167  0.0081 -0.1365
 5546SOL    HW118506   6.993   3.879   6.407  2.0251  2.0344  0.0820
 5546SOL    HW218507   7.111   3.865   6.314  0.3613 -2.1039 -1.6644
 5547SOL     OW18508   6.320   7.468   2.152  0.2631  0.2733  0.0845
 5547SOL    HW118509   6.273   7.503   2.228  0.9183 -1.6868  1.4717
 5547SOL    HW218510   6.335   7.544   2.096 -0.7699  1.6810  1.6230
 5548SOL     OW18511   5.753   8.353   2.768 -0.5301 -0.3985 -0.0498
 5548SOL    HW118512   5.723   8.356   2.859  0.9094 -1.7817  0.5249
 5548SOL    HW218513   5.709   8.275   2.732 -1.6652  0.5507 -0.7978
 5549SOL     OW18514   3.342   0.266   6.986 -0.1056 -0.2614  0.3188
 5549SOL    HW118515   3.306   0.185   6.951 -0.2207  0.1197 -0.4686
 5549SOL    HW218516   3.430   0.271   6.949 -0.0697 -0.0719  0.4315
 5550SOL     OW18517   8.819   0.510   2.418  0.5578  0.1294  0.2489
 5550SOL    HW118518   8.820   0.433   2.361  0.5246 -0.2452  0.7452
 5550SOL    HW218519   8.732   0.508   2.459  0.1787  0.9869 -0.4697
 5551SOL     OW18520   7.295   0.182   6.513  0.4639  0.0797 -0.2482
 5551SOL    HW118521   7.342   0.100   6.505 -0.3121 -0.2767 -1.3050
 5551SOL    HW218522   7.325   0.235   6.439  0.9868  0.7792  0.4401
 5552SOL     OW18523   8.021   3.644   8.660  0.0558 -0.0200 -0.7281
 5552SOL    HW118524   8.025   3.553   8.630 -0.7573 -0.0538 -0.7540
 5552SOL    HW218525   8.072   3.645   8.741  1.3301 -0.1679 -1.5127
 5553SOL     OW18526   4.049   5.577   5.687 -0.1801  0.7446 -0.1184
 5553SOL    HW118527   4.058   5.557   5.594  0.1676 -3.8868  0.6821
 5553SOL    HW218528   4.129   5.626   5.708  1.0323 -0.3754 -1.7996
 5554SOL     OW18529   4.589   1.093   5.887 -0.1455  0.4763 -0.0345
 5554SOL    HW118530   4.659   1.158   5.876  0.2349 -0.2463 -2.2860
 5554SOL    HW218531   4.633   1.009   5.883 -0.9955  0.0273 -0.2128
 5555SOL     OW18532   0.191   5.348   2.340 -0.3128  0.8675  0.3007
 5555SOL    HW118533   0.250   5.399   2.395  0.6902  0.1681 -0.1035
 5555SOL    HW218534   0.247   5.308   2.274 -1.3165  0.6268 -0.4380
 5556SOL     OW18535   5.497   4.389   2.526  0.4678 -0.2368  0.1459
 5556SOL    HW118536   5.521   4.345   2.607  0.3761 -0.0170  0.2918
 5556SOL    HW218537   5.550   4.346   2.459  0.3776 -0.5711  0.2872
 5557SOL     OW18538   1.377   3.455   2.221  0.2319  0.2783 -0.2262
 5557SOL    HW118539   1.303   3.450   2.161  0.0195  0.2679  0.0299
 5557SOL    HW218540   1.382   3.367   2.259  0.2133  0.3516 -0.0539
 5558SOL     OW18541   0.575   6.835   4.584 -0.7030 -0.8923  0.0907
 5558SOL    HW118542   0.488   6.846   4.547 -0.7559 -0.4857  0.3348
 5558SOL    HW218543   0.607   6.753   4.545 -1.2367 -1.1109  0.0999
 5559SOL     OW18544   6.996   3.713   5.718  0.5402 -0.0164 -0.1869
 5559SOL    HW118545   6.968   3.795   5.757 -0.0474 -0.4433  0.3167
 5559SOL    HW218546   7.086   3.701   5.749  0.1874 -0.2001  0.8137
 5560SOL     OW18547   5.329   6.377   6.633  0.1604 -0.2937  0.0801
 5560SOL    HW118548   5.315   6.364   6.539 -0.2701 -0.1325  0.1191
 5560SOL    HW218549   5.258   6.436   6.660  1.5261  1.4193  0.0790
 5561SOL     OW18550   3.903   7.122   7.465  0.5228 -0.1795  0.3165
 5561SOL    HW118551   3.988   7.149   7.501  0.4290  1.2694 -0.4709
 5561SOL    HW218552   3.920   7.111   7.372 -0.0539 -0.3698  0.2335
 5562SOL     OW18553   8.734   2.733   8.802 -0.6224  0.0521 -0.4712
 5562SOL    HW118554   8.699   2.802   8.744 -0.9519 -0.2065 -0.5824
 5562SOL    HW218555   8.747   2.658   8.744  0.9725  0.4091 -0.6186
 5563SOL     OW18556   2.138   3.848   6.950 -0.1673  0.1897  0.1494
 5563SOL    HW118557   2.068   3.911   6.931 -0.6573 -0.7171 -1.1621
 5563SOL    HW218558   2.123   3.776   6.889  1.9991  0.0289 -0.2786
 5564SOL     OW18559   7.307   4.498   4.619  0.2332 -1.0495 -0.5176
 5564SOL    HW118560   7.244   4.551   4.571  2.3534  0.6919 -1.5499
 5564SOL    HW218561   7.307   4.414   4.573 -1.8304 -1.3899 -0.0058
 5565SOL     OW18562   7.309   1.824   6.714 -0.7531 -0.0174 -0.4937
 5565SOL    HW118563   7.263   1.782   6.642 -2.0303  0.2181  0.1554
 5565SOL    HW218564   7.343   1.906   6.676 -0.0595 -0.6216 -1.2106
 5566SOL     OW18565   4.677   6.651   7.133  0.4502 -1.1860  0.2256
 5566SOL    HW118566   4.726   6.591   7.190 -0.7487 -2.3686  0.0557
 5566SOL    HW218567   4.590   6.656   7.173  0.1191 -0.6591 -0.5479
 5567SOL     OW18568   7.604   3.527   8.908 -0.3510 -0.4163  0.2005
 5567SOL    HW118569   7.578   3.600   8.852 -0.7307 -0.9003 -0.2556
 5567SOL    HW218570   7.697   3.513   8.889 -0.1886  0.1636  0.5396
 5568SOL     OW18571   1.582   5.901   1.753 -0.0698  0.1205  0.0252
 5568SOL    HW118572   1.487   5.891   1.754 -0.1842  0.9975  0.9040
 5568SOL    HW218573   1.596   5.987   1.712  0.4326 -0.5713 -1.2879
 5569SOL     OW18574   2.760   2.539   6.694  0.5948 -0.1851  0.1779
 5569SOL    HW118575   2.789   2.451   6.670  2.0902  0.2862  0.1711
 5569SOL    HW218576   2.773   2.544   6.789 -2.8027 -1.1270  0.8286
 5570SOL     OW18577   5.230   4.311   1.433  0.3737  0.0195  0.1560
 5570SOL    HW118578   5.277   4.242   1.479  0.6637  0.0360 -0.1149
 5570SOL    HW218579   5.238   4.388   1.489  1.0173  0.1292 -0.0878
 5571SOL     OW18580   8.658   0.379   2.247  0.1163 -0.1692 -0.4580
 5571SOL    HW118581   8.606   0.441   2.197  1.2119  1.0179 -0.1870
 5571SOL    HW218582   8.595   0.328   2.298 -0.8809 -0.1442 -1.6354
 5572SOL     OW18583   0.122   7.201   3.292 -0.8614 -0.0387 -0.2067
 5572SOL    HW118584   0.139   7.284   3.249 -0.9975  0.3117  0.4049
 5572SOL    HW218585   0.029   7.186   3.281 -0.6309 -0.7334 -1.3945
 5573SOL     OW18586   0.695   4.064   3.995 -0.1004 -0.5355 -0.0551
 5573SOL    HW118587   0.765   4.107   3.945 -0.2267  1.1969  1.1629
 5573SOL    HW218588   0.731   4.056   4.083 -0.4581 -2.1466 -0.0153
 5574SOL     OW18589   5.149   6.562   1.904 -0.2833  0.0776 -0.1195
 5574SOL    HW118590   5.124   6.470   1.916  1.0274 -0.0231  2.5325
 5574SOL    HW218591   5.227   6.557   1.848 -0.6827 -0.3314 -0.6601
 5575SOL     OW18592   5.616   5.670   5.738  0.1947  0.0210  0.3364
 5575SOL    HW118593   5.588   5.713   5.819  0.3396  1.6894 -0.4428
 5575SOL    HW218594   5.535   5.645   5.694  0.0324  0.8902  0.1125
 5576SOL     OW18595   0.147   1.812   3.819  0.6710  0.0122 -0.0408
 5576SOL    HW118596   0.145   1.904   3.793  1.8548  0.1320  0.2109
 5576SOL    HW218597   0.078   1.804   3.885 -0.1764  0.4529 -0.8478
 5577SOL     OW18598   7.872   0.046   8.823 -0.1438 -0.5884 -0.0760
 5577SOL    HW118599   7.874  -0.046   8.850  0.7520 -0.8415 -0.9478
 5577SOL    HW218600   7.798   0.053   8.764  1.6033 -1.5311 -2.5363
 5578SOL     OW18601   1.901   3.682   2.156  0.6392  0.0729  0.1457
 5578SOL    HW118602   1.809   3.663   2.139  0.6211  0.0528  0.2609
 5578SOL    HW218603   1.911   3.670   2.251  1.5999 -3.5564 -0.2777
 5579SOL     OW18604   6.087   0.068   2.165  0.5897 -0.1636  0.2084
 5579SOL    HW118605   5.997   0.047   2.140 -0.1017  1.2518  1.3271
 5579SOL    HW218606   6.104   0.152   2.121  0.6304  0.5513  1.5378
 5580SOL     OW18607   3.765   6.343   6.903  0.8083  0.3942  0.1860
 5580SOL    HW118608   3.728   6.427   6.931  0.2588  0.5834 -1.0367
 5580SOL    HW218609   3.858   6.363   6.887  0.7478  0.7058  0.2029
 5581SOL     OW18610   1.793   7.544   0.722 -0.4973 -0.1657 -0.6812
 5581SOL    HW118611   1.884   7.538   0.752 -0.2281 -1.7376 -1.7276
 5581SOL    HW218612   1.742   7.497   0.787 -0.4567 -0.0297 -0.5508
 5582SOL     OW18613   4.975   1.473   8.256  0.1030  0.0269  0.3737
 5582SOL    HW118614   5.007   1.383   8.250  1.1183  0.1267  2.9107
 5582SOL    HW218615   4.940   1.492   8.169  2.4009 -1.8451 -1.0784
 5583SOL     OW18616   6.331   2.476   4.856 -0.2776  0.1599  0.1259
 5583SOL    HW118617   6.388   2.469   4.933 -2.0769 -0.1832  1.4917
 5583SOL    HW218618   6.359   2.404   4.799  0.7576  0.1016  0.6781
 5584SOL     OW18619   7.298   7.020   5.864 -0.0440 -0.3803 -0.3620
 5584SOL    HW118620   7.252   7.024   5.780  0.5239 -0.9149 -0.7126
 5584SOL    HW218621   7.391   7.015   5.840  0.1774  0.2600  0.3216
 5585SOL     OW18622   3.010   4.809   1.263 -0.0115  0.4665  0.3186
 5585SOL    HW118623   2.923   4.804   1.303 -0.3829 -0.2461 -0.5481
 5585SOL    HW218624   3.071   4.805   1.337 -0.7178  1.2238  0.9489
 5586SOL     OW18625   0.124   6.512   0.087 -0.2253  0.0652  0.0759
 5586SOL    HW118626   0.159   6.593   0.124 -1.5154  1.0190 -0.7150
 5586SOL    HW218627   0.084   6.468   0.161  0.5214  0.1170  0.5233
 5587SOL     OW18628   8.061   2.429   5.573  0.3212  0.0046 -0.0568
 5587SOL    HW118629   8.114   2.392   5.502  0.8204  0.8887 -0.1551
 5587SOL    HW218630   8.081   2.522   5.572  1.9673 -0.2043  2.6008
 5588SOL     OW18631   1.584   6.282   0.274  0.0303 -0.3591  0.2630
 5588SOL    HW118632   1.660   6.227   0.255  1.2423  1.2760  0.1473
 5588SOL    HW218633   1.597   6.310   0.365 -0.9140 -0.7523  0.5330
 5589SOL     OW18634   0.132   8.408   1.499 -0.4284  0.2647  0.5195
 5589SOL    HW118635   0.210   8.382   1.449  0.8280  2.6368  1.0882
 5589SOL    HW218636   0.060   8.402   1.436  0.4778 -0.4703 -0.4831
 5590SOL     OW18637   2.722   7.451   6.772 -0.0686 -0.1363  0.1717
 5590SOL    HW118638   2.669   7.526   6.800  1.1688  1.0483 -0.5518
 5590SOL    HW218639   2.806   7.462   6.816  0.6043 -0.3156 -1.0108
 5591SOL     OW18640   1.819   2.978   3.803  0.1754  0.2008  0.1699
 5591SOL    HW118641   1.748   2.919   3.828 -0.0091  1.3450  2.6223
 5591SOL    HW218642   1.776   3.050   3.757 -0.1704  0.4877  0.9305
 5592SOL     OW18643   8.475   1.355   0.204 -0.6079 -0.1039 -0.4967
 5592SOL    HW118644   8.401   1.304   0.239 -1.4419  0.9610 -0.6331
 5592SOL    HW218645   8.461   1.356   0.109 -0.4044  0.0736 -0.5266
 5593SOL     OW18646   7.474   4.792   7.475  0.0336 -0.3493 -0.2000
 5593SOL    HW118647   7.414   4.723   7.501 -0.6712  0.0113 -0.8270
 5593SOL    HW218648   7.442   4.820   7.389  1.3105 -0.3876 -0.6993
 5594SOL     OW18649   4.542   3.859   2.807 -0.0499  0.1016 -0.0661
 5594SOL    HW118650   4.615   3.921   2.800  0.4715 -0.4986 -0.1218
 5594SOL    HW218651   4.473   3.908   2.852  0.0980  0.9269 -0.7096
 5595SOL     OW18652   4.365   5.088   5.783  0.2753 -0.4500  0.1802
 5595SOL    HW118653   4.307   5.020   5.818  0.2270 -0.2312  0.5225
 5595SOL    HW218654   4.450   5.044   5.774 -0.1793 -1.1005 -1.3698
 5596SOL     OW18655   5.955   1.065   7.340 -0.2547 -0.2353 -0.3773
 5596SOL    HW118656   5.986   1.137   7.286 -2.7481 -0.4432 -2.2168
 5596SOL    HW218657   5.874   1.096   7.379 -0.5509 -1.5058  0.0756
 5597SOL     OW18658   2.726   5.248   7.403 -0.1442 -0.1935 -0.0959
 5597SOL    HW118659   2.732   5.321   7.464 -0.7139 -1.5687  1.6968
 5597SOL    HW218660   2.816   5.227   7.381  0.0867  0.0552  0.6067
 5598SOL     OW18661   8.519   5.769   1.078 -0.5186  0.3065 -0.6402
 5598SOL    HW118662   8.433   5.811   1.068 -0.6638 -0.0025 -0.6893
 5598SOL    HW218663   8.499   5.676   1.084 -0.1796  0.2305 -0.7164
 5599SOL     OW18664   8.501   5.386   6.454  0.3879  0.5367  0.8278
 5599SOL    HW118665   8.533   5.443   6.523 -0.4651  0.7778  1.0462
 5599SOL    HW218666   8.444   5.324   6.499 -1.2895  1.5512  0.2107
 5600SOL     OW18667   0.079   6.948   8.133  0.1339 -0.5104 -0.3290
 5600SOL    HW118668   0.137   6.886   8.176 -0.7211 -1.3087 -0.2822
 5600SOL    HW218669   0.036   6.897   8.064 -0.9240 -0.1055  0.0095
 5601SOL     OW18670   3.708   0.125   7.736 -0.1554 -0.4558 -0.0834
 5601SOL    HW118671   3.698   0.220   7.734  0.7236 -0.2302  2.3863
 5601SOL    HW218672   3.774   0.106   7.669 -0.1152  0.6994 -0.3811
 5602SOL     OW18673   3.882   3.533   5.690 -0.1211 -0.6058  0.6434
 5602SOL    HW118674   3.788   3.530   5.676 -0.1191  0.5241  0.2597
 5602SOL    HW218675   3.909   3.442   5.694 -1.3327 -0.9374  1.5081
 5603SOL     OW18676   0.510   5.418   8.462  0.3316 -0.1395 -0.0067
 5603SOL    HW118677   0.572   5.351   8.488  0.6155  0.2131  0.2452
 5603SOL    HW218678   0.473   5.388   8.379  1.5692  0.1246 -0.6719
 5604SOL     OW18679   4.620   4.586   0.081 -0.5692 -0.4638  0.2163
 5604SOL    HW118680   4.572   4.653   0.128 -0.8798  0.3323 -1.1662
 5604SOL    HW218681   4.711   4.599   0.107 -0.4591  1.2667 -0.8413
 5605SOL     OW18682   6.383   4.957   2.638  1.0968  0.1611 -0.0649
 5605SOL    HW118683   6.474   4.947   2.610  0.9840  1.4777 -0.9501
 5605SOL    HW218684   6.389   5.003   2.721  1.2257  0.4642 -0.2424
 5606SOL     OW18685   1.002   2.513   7.405 -0.1096  0.2577  0.3404
 5606SOL    HW118686   0.982   2.420   7.395 -3.0475  0.7390  0.7759
 5606SOL    HW218687   1.020   2.524   7.499  1.0309  0.0430  0.1632
 5607SOL     OW18688   1.990   2.394   6.765 -0.8784 -0.3214  0.3667
 5607SOL    HW118689   1.906   2.372   6.725 -0.5111 -2.2830  0.5852
 5607SOL    HW218690   2.037   2.311   6.770  1.9388  0.9882 -1.6716
 5608SOL     OW18691   5.986   2.465   1.230  0.2719 -0.4004 -0.6350
 5608SOL    HW118692   6.021   2.504   1.149 -1.5024 -0.7913 -1.6300
 5608SOL    HW218693   5.895   2.443   1.209 -1.4653  2.7471  2.5060
 5609SOL     OW18694   3.592   5.705   2.107  0.4674  0.5631 -0.3044
 5609SOL    HW118695   3.642   5.706   2.025 -0.8819 -0.1419 -1.1656
 5609SOL    HW218696   3.600   5.616   2.139  0.8579  0.7965  0.2613
 5610SOL     OW18697   5.517   2.111   8.569  0.0470 -0.6807 -0.3836
 5610SOL    HW118698   5.539   2.173   8.499  1.5025 -1.3635 -0.5694
 5610SOL    HW218699   5.580   2.040   8.559 -1.6416 -2.2596 -0.2328
 5611SOL     OW18700   3.074   3.573   7.593 -0.1060  0.1907  0.0564
 5611SOL    HW118701   3.164   3.566   7.560 -0.8079 -0.7557 -1.7962
 5611SOL    HW218702   3.041   3.483   7.591 -1.0873  0.5180  0.8001
 5612SOL     OW18703   1.357   8.273   0.400 -0.1499 -0.1328 -0.1435
 5612SOL    HW118704   1.335   8.293   0.309 -1.7453 -0.3935  0.1520
 5612SOL    HW218705   1.365   8.177   0.401  0.2240 -0.1009 -0.0770
 5613SOL     OW18706   1.250   4.276   1.906 -0.1424  0.3104 -0.2015
 5613SOL    HW118707   1.282   4.342   1.968  0.6055  0.4613 -0.7295
 5613SOL    HW218708   1.159   4.301   1.890 -0.0177  0.9149 -0.0056
 5614SOL     OW18709   5.439   3.112   3.802  0.1410  0.3564  0.3412
 5614SOL    HW118710   5.515   3.058   3.824  0.4015  0.8169  0.5807
 5614SOL    HW218711   5.394   3.125   3.886 -0.8003 -0.7897  0.0525
 5615SOL     OW18712   0.088   0.300   1.545 -0.2321  0.3363 -0.2785
 5615SOL    HW118713   0.009   0.305   1.492 -1.4835  1.6331  1.5652
 5615SOL    HW218714   0.059   0.260   1.627  1.0022  0.8920  0.4600
 5616SOL     OW18715   1.192   2.626   8.429  0.0336 -0.1983 -0.2306
 5616SOL    HW118716   1.147   2.546   8.457  0.6202 -0.2985  0.4671
 5616SOL    HW218717   1.285   2.607   8.445  0.6268 -0.8608 -3.6279
 5617SOL     OW18718   3.909   6.612   6.830 -0.3283  0.4778 -0.0865
 5617SOL    HW118719   3.873   6.578   6.749 -0.5020 -0.8810  0.5377
 5617SOL    HW218720   3.834   6.654   6.874 -0.1369  1.6043 -0.8051
 5618SOL     OW18721   8.980   2.249   7.134 -0.5882  0.4610  0.1212
 5618SOL    HW118722   9.054   2.210   7.179 -0.6835  0.6114  0.4159
 5618SOL    HW218723   9.008   2.339   7.115 -0.2308  0.1545 -0.8776
 5619SOL     OW18724   2.754   3.478   0.623 -0.4536 -0.0440 -0.1881
 5619SOL    HW118725   2.717   3.549   0.677  1.8892  0.2595  1.1594
 5619SOL    HW218726   2.840   3.463   0.661 -0.5746 -3.1195 -0.9385
 5620SOL     OW18727   4.885   4.691   1.793  0.3252  0.1594  0.5639
 5620SOL    HW118728   4.866   4.702   1.886 -1.1966  0.0532  0.2931
 5620SOL    HW218729   4.934   4.770   1.768 -0.7263  1.0122  1.0999
 5621SOL     OW18730   2.052   5.341   6.778  0.9796  0.2953  0.3724
 5621SOL    HW118731   1.962   5.345   6.745  0.9230  2.3287  0.6400
 5621SOL    HW218732   2.085   5.431   6.768  1.8751  0.3829  3.3224
 5622SOL     OW18733   5.642   1.701   1.179  0.6366  0.4604  0.0715
 5622SOL    HW118734   5.714   1.642   1.156  0.3840  0.1398  0.0977
 5622SOL    HW218735   5.610   1.733   1.095  0.0475 -0.3129 -0.0104
 5623SOL     OW18736   3.299   0.505   4.143  0.0483 -0.0896  0.2152
 5623SOL    HW118737   3.391   0.483   4.130  0.3090  0.8746  0.3503
 5623SOL    HW218738   3.251   0.430   4.108  0.8836 -0.5461  0.0320
 5624SOL     OW18739   1.556   6.950   6.542  0.0531  0.5929 -0.5571
 5624SOL    HW118740   1.579   7.036   6.578 -0.4242  0.7622 -0.6589
 5624SOL    HW218741   1.516   6.969   6.457  0.1017  0.2608 -0.6553
 5625SOL     OW18742   6.018   7.938   6.582 -0.2648 -0.3762  0.1957
 5625SOL    HW118743   5.929   7.938   6.546 -0.8424 -1.3985  1.5432
 5625SOL    HW218744   6.027   7.853   6.625  1.6924 -0.6431 -0.6315
 5626SOL     OW18745   8.659   7.093   5.136 -0.5714  0.0487 -0.1301
 5626SOL    HW118746   8.696   7.007   5.117 -1.0541 -0.2878  0.4278
 5626SOL    HW218747   8.575   7.075   5.178 -0.0461  0.7556  1.3094
 5627SOL     OW18748   7.901   1.989   4.302 -0.4528  0.7523  0.1897
 5627SOL    HW118749   7.872   2.029   4.220 -1.2277  0.4085  0.2954
 5627SOL    HW218750   7.882   2.055   4.369 -0.4469  0.7606  0.1832
 5628SOL     OW18751   8.378   3.504   8.836 -0.2400 -0.0006  0.5266
 5628SOL    HW118752   8.301   3.561   8.846 -0.3207 -0.2999  1.8259
 5628SOL    HW218753   8.424   3.539   8.760 -1.5396  0.3290 -0.1423
 5629SOL     OW18754   3.262   7.521   6.179 -0.0214  0.4305 -0.4262
 5629SOL    HW118755   3.301   7.519   6.091 -0.8240 -0.5855 -0.7746
 5629SOL    HW218756   3.286   7.437   6.217 -2.1913 -0.4032 -0.8051
 5630SOL     OW18757   7.001   1.705   4.443 -0.4197 -0.4447  0.3163
 5630SOL    HW118758   7.087   1.717   4.482 -0.6607  0.1450  0.6783
 5630SOL    HW218759   6.942   1.698   4.518 -0.6738 -0.9482  0.0721
 5631SOL     OW18760   0.483   7.123   1.772  0.0930  0.4948  0.3950
 5631SOL    HW118761   0.388   7.113   1.781  0.4017 -3.0763  1.0418
 5631SOL    HW218762   0.506   7.191   1.836 -1.8806  0.5147  1.1523
 5632SOL     OW18763   7.410   5.300   1.119 -0.5065  0.0046  0.1672
 5632SOL    HW118764   7.378   5.390   1.113  0.5995  0.4235  0.2931
 5632SOL    HW218765   7.438   5.290   1.210 -0.4690 -0.4083  0.1110
 5633SOL     OW18766   4.996   8.408   4.694 -0.0664  0.1517  0.1160
 5633SOL    HW118767   4.982   8.383   4.785 -2.0106 -1.7111 -0.6115
 5633SOL    HW218768   4.915   8.451   4.668  0.0607 -0.2369 -0.9855
 5634SOL     OW18769   0.982   6.103   4.219 -0.0094  0.1502 -0.2269
 5634SOL    HW118770   0.992   6.127   4.127  1.2516  0.4325 -0.0362
 5634SOL    HW218771   1.069   6.075   4.246 -0.3832 -0.0099  0.8673
 5635SOL     OW18772   6.248   7.245   2.466 -0.9035  0.0128  0.7154
 5635SOL    HW118773   6.340   7.269   2.473 -1.2816  1.2729  2.1847
 5635SOL    HW218774   6.242   7.158   2.505 -0.6327  0.9052  2.9232
 5636SOL     OW18775   1.578   0.586   4.866  0.6337 -0.5378  0.2603
 5636SOL    HW118776   1.516   0.556   4.800  0.3900  0.8455 -0.1833
 5636SOL    HW218777   1.652   0.526   4.859 -0.4251 -1.9247  0.4610
 5637SOL     OW18778   2.255   0.191   5.733  0.4518  0.6313 -0.1904
 5637SOL    HW118779   2.172   0.226   5.766  1.0379  0.5151  1.5075
 5637SOL    HW218780   2.299   0.266   5.693 -0.3419  0.7530 -0.8519
 5638SOL     OW18781   6.569   0.028   4.000  0.1300 -0.5449 -0.6229
 5638SOL    HW118782   6.646   0.017   4.056  0.7542  0.1824 -1.3225
 5638SOL    HW218783   6.495   0.025   4.061  0.7722 -0.0677  0.2122
 5639SOL     OW18784   3.115   2.379   7.666  0.3923  0.3519  0.1669
 5639SOL    HW118785   3.032   2.352   7.627  2.1741 -2.1330 -2.3318
 5639SOL    HW218786   3.149   2.445   7.605  0.7514  0.5339  0.5604
 5640SOL     OW18787   7.280   2.008   7.044  0.5823  0.2217 -0.5631
 5640SOL    HW118788   7.247   2.076   6.986  2.1670 -0.2160 -2.0813
 5640SOL    HW218789   7.202   1.971   7.085 -0.4222  1.9104 -0.8547
 5641SOL     OW18790   4.574   0.863   6.206  0.9141 -0.0816  0.1521
 5641SOL    HW118791   4.616   0.778   6.211  0.6539 -0.1736  0.8930
 5641SOL    HW218792   4.639   0.920   6.165  0.6267 -0.9121 -1.5814
 5642SOL     OW18793   7.306   1.640   5.157  0.2718  0.5645 -0.3155
 5642SOL    HW118794   7.374   1.674   5.099 -1.1601  1.7940 -1.3294
 5642SOL    HW218795   7.224   1.665   5.116 -0.8925 -2.5191 -0.1182
 5643SOL     OW18796   5.627   5.836   6.815 -0.2499  0.7881 -0.5536
 5643SOL    HW118797   5.682   5.869   6.744  0.6985 -0.8314 -0.6128
 5643SOL    HW218798   5.653   5.887   6.891  0.0700  1.2359 -0.9518
 5644SOL     OW18799   1.914   1.298   7.070 -0.4197 -0.0452 -0.0142
 5644SOL    HW118800   1.909   1.373   7.011 -1.4365  0.1972  0.3657
 5644SOL    HW218801   1.995   1.312   7.119  1.2601 -1.0087 -2.3130
 5645SOL     OW18802   1.751   1.990   6.282  0.4093 -0.1329  0.3503
 5645SOL    HW118803   1.666   2.014   6.246  1.4110  0.0480 -2.0746
 5645SOL    HW218804   1.755   1.895   6.271  1.2440  0.0682 -1.3605
 5646SOL     OW18805   6.760   4.544   3.388  0.0837  0.0745  0.9315
 5646SOL    HW118806   6.734   4.580   3.303 -0.2632 -0.3485  0.8535
 5646SOL    HW218807   6.844   4.501   3.371  0.2975  0.4866  0.9341
 5647SOL     OW18808   3.697   0.323   3.446 -0.2288 -0.2462 -0.8506
 5647SOL    HW118809   3.720   0.409   3.482 -1.4719 -0.3432  0.2471
 5647SOL    HW218810   3.717   0.331   3.353  1.0021  0.7561 -0.5448
 5648SOL     OW18811   8.506   6.243   1.033 -0.0838 -0.2793  0.1232
 5648SOL    HW118812   8.420   6.202   1.028 -0.0611 -0.2776 -0.2703
 5648SOL    HW218813   8.550   6.199   1.106 -0.4697 -0.1802  0.4147
 5649SOL     OW18814   0.260   5.643   0.676  0.0420 -0.5056 -0.1965
 5649SOL    HW118815   0.348   5.620   0.645  0.1638  1.9626 -2.0509
 5649SOL    HW218816   0.204   5.631   0.600 -0.7039  0.4572  0.1787
 5650SOL     OW18817   1.315   0.629   8.927 -0.2047  0.3150 -0.1355
 5650SOL    HW118818   1.325   0.715   8.885  0.4679  0.5583  0.5035
 5650SOL    HW218819   1.267   0.648   9.008  1.1638  0.3018  0.6972
 5651SOL     OW18820   8.806   6.876   1.325  0.0740 -0.1797 -0.1376
 5651SOL    HW118821   8.719   6.895   1.293  1.0785  0.5748 -2.6491
 5651SOL    HW218822   8.805   6.782   1.344 -1.5049 -0.0014  0.7916
 5652SOL     OW18823   6.283   3.796   4.334  0.2204  0.2535  0.0603
 5652SOL    HW118824   6.357   3.751   4.374 -0.9359 -1.5492  0.2757
 5652SOL    HW218825   6.322   3.869   4.287  2.0461 -0.1916  0.8017
 5653SOL     OW18826   0.170   5.693   1.715  0.4089  0.0303 -0.0896
 5653SOL    HW118827   0.234   5.703   1.645  0.3111  0.5892 -0.0990
 5653SOL    HW218828   0.159   5.781   1.751  0.7127 -0.2971  0.8505
 5654SOL     OW18829   3.382   0.595   3.306 -0.0529 -0.2683 -0.5984
 5654SOL    HW118830   3.325   0.519   3.294  1.7271 -1.8889  0.5531
 5654SOL    HW218831   3.322   0.670   3.312 -1.9974 -1.7894 -0.1215
 5655SOL     OW18832   8.283   7.424   1.461  0.0445  0.1620 -0.7635
 5655SOL    HW118833   8.346   7.488   1.495  1.3178 -0.8402 -1.1583
 5655SOL    HW218834   8.252   7.462   1.379  0.8012  0.2767 -1.0006
 5656SOL     OW18835   2.851   5.804   4.216 -0.5064 -0.2341  0.3851
 5656SOL    HW118836   2.929   5.782   4.266  1.0271  3.5321 -0.0347
 5656SOL    HW218837   2.778   5.781   4.273  1.0227 -0.6484  2.2528
 5657SOL     OW18838   6.597   6.877   0.680  0.0827  0.1067  0.0155
 5657SOL    HW118839   6.568   6.830   0.758 -1.7781 -3.6303 -2.6394
 5657SOL    HW218840   6.525   6.937   0.660 -0.7592 -0.9972 -0.3479
 5658SOL     OW18841   4.105   4.561   6.752  0.1656 -0.4391  0.5500
 5658SOL    HW118842   4.189   4.581   6.793  0.2118  1.8157 -0.4941
 5658SOL    HW218843   4.063   4.647   6.740 -1.4397 -1.3376 -0.7086
 5659SOL     OW18844   2.701   3.640   1.577  0.1039  0.0305  0.6754
 5659SOL    HW118845   2.737   3.723   1.549  0.4991 -0.1248  0.7193
 5659SOL    HW218846   2.671   3.655   1.667  2.8523 -0.6393  1.7939
 5660SOL     OW18847   6.025   1.324   5.048 -0.3025 -0.0089  0.1616
 5660SOL    HW118848   5.950   1.267   5.029 -0.3341 -0.1698  0.7287
 5660SOL    HW218849   6.100   1.265   5.043 -0.1199  0.3079 -1.1560
 5661SOL     OW18850   0.265   8.241   7.147 -0.5165  0.1796 -0.4329
 5661SOL    HW118851   0.298   8.152   7.136 -1.8599 -0.4254  0.1944
 5661SOL    HW218852   0.341   8.292   7.173  0.0241 -1.0758  0.5532
 5662SOL     OW18853   5.965   3.277   4.584  0.6443  0.1757 -0.1790
 5662SOL    HW118854   5.963   3.262   4.490  0.6587  0.0536 -0.1595
 5662SOL    HW218855   6.051   3.248   4.612  0.1742 -1.0244  0.0768
 5663SOL     OW18856   5.207   0.331   5.782 -0.0812  0.2094  0.8804
 5663SOL    HW118857   5.138   0.294   5.726  2.8371 -1.6799 -1.8327
 5663SOL    HW218858   5.212   0.423   5.755  0.9860 -0.5534 -1.9403
 5664SOL     OW18859   5.249   4.479   8.291  0.2409 -0.3214 -0.3114
 5664SOL    HW118860   5.187   4.446   8.356 -1.4433  0.0462 -1.6659
 5664SOL    HW218861   5.269   4.568   8.321 -1.9364  0.5227 -1.1604
 5665SOL     OW18862   1.737   2.857   1.303  0.0579  0.0712  0.2063
 5665SOL    HW118863   1.723   2.937   1.354 -2.8504 -0.8084  0.9845
 5665SOL    HW218864   1.660   2.851   1.247  0.5353 -1.8485 -0.3146
 5666SOL     OW18865   8.371   4.608   2.351  0.0074  0.2377  0.3852
 5666SOL    HW118866   8.298   4.555   2.384  1.4168  0.0757  3.6719
 5666SOL    HW218867   8.445   4.548   2.349 -0.0908 -0.1222 -4.7250
 5667SOL     OW18868   4.139   8.627   5.934  0.2869  0.6482 -0.4253
 5667SOL    HW118869   4.164   8.681   5.859 -1.8174  1.3712 -0.6756
 5667SOL    HW218870   4.085   8.557   5.896 -0.7052  0.9584  0.3873
 5668SOL     OW18871   5.221   6.230   2.865 -0.6278 -0.0622 -0.0488
 5668SOL    HW118872   5.216   6.250   2.772 -2.8766 -0.4117 -0.0477
 5668SOL    HW218873   5.167   6.151   2.876 -0.3511 -0.0660  1.5367
 5669SOL     OW18874   5.937   5.032   5.534 -0.0253  0.1113 -0.3574
 5669SOL    HW118875   5.895   5.008   5.616  1.6551  0.0453  0.5293
 5669SOL    HW218876   5.924   4.957   5.477 -0.9441  0.0359 -0.0583
 5670SOL     OW18877   8.750   1.417   0.089  0.1794 -0.0518 -0.1691
 5670SOL    HW118878   8.717   1.345   0.143  0.8611  0.2392  0.6693
 5670SOL    HW218879   8.841   1.393   0.070 -0.3909 -0.7432 -2.2729
 5671SOL     OW18880   4.136   7.864   8.646  0.4351 -0.6424 -0.1591
 5671SOL    HW118881   4.221   7.890   8.609 -0.3387  1.3717 -0.6358
 5671SOL    HW218882   4.134   7.905   8.733 -0.0875 -0.6108 -0.1838
 5672SOL     OW18883   6.171   7.640   5.899  0.3676 -0.8180  0.4195
 5672SOL    HW118884   6.244   7.677   5.849 -1.0839 -0.3330 -1.5046
 5672SOL    HW218885   6.204   7.630   5.988  2.2505  0.9241 -0.0164
 5673SOL     OW18886   1.646   1.664   4.905 -0.5139 -0.0304 -0.0957
 5673SOL    HW118887   1.676   1.623   4.987  0.6140 -1.0996 -1.0081
 5673SOL    HW218888   1.575   1.608   4.874  0.6608 -1.0344 -1.0592
 5674SOL     OW18889   7.519   4.528   6.876 -0.7241  0.1497  0.3364
 5674SOL    HW118890   7.437   4.545   6.828 -0.1250 -0.2668 -0.8816
 5674SOL    HW218891   7.588   4.550   6.813  0.1175  0.6669  1.4113
 5675SOL     OW18892   8.694   4.145   1.665  0.4686  0.3132  0.2050
 5675SOL    HW118893   8.704   4.052   1.647 -0.0082  0.2812  0.0883
 5675SOL    HW218894   8.604   4.165   1.637 -0.9757 -0.0985  3.9392
 5676SOL     OW18895   5.003   1.819   8.677 -0.9287  0.7186 -0.1799
 5676SOL    HW118896   5.061   1.746   8.655 -1.0621  0.5841 -0.0872
 5676SOL    HW218897   5.063   1.891   8.699 -0.7766  0.1110  1.5137
 5677SOL     OW18898   2.073   4.067   7.826 -0.0781 -0.1555  0.5131
 5677SOL    HW118899   2.132   4.135   7.795 -0.2550  0.1072  0.7402
 5677SOL    HW218900   1.996   4.115   7.858  1.0840 -0.1659  3.7106
 5678SOL     OW18901   0.456   0.498   7.793  0.0966 -0.4489  0.2937
 5678SOL    HW118902   0.494   0.479   7.707  1.8773 -0.0918  0.9526
 5678SOL    HW218903   0.450   0.413   7.836 -0.7539 -0.6226 -0.1509
 5679SOL     OW18904   2.918   1.323   3.739  0.1321 -0.2043  0.4222
 5679SOL    HW118905   2.997   1.365   3.705 -0.2593  1.6507  1.6236
 5679SOL    HW218906   2.951   1.255   3.799  0.8327  0.5730  0.9431
 5680SOL     OW18907   4.677   5.948   3.337 -0.0711  0.0028 -0.2714
 5680SOL    HW118908   4.656   5.894   3.414 -0.3242 -0.9471 -0.9900
 5680SOL    HW218909   4.768   5.928   3.319  0.2351  0.8598  0.2640
 5681SOL     OW18910   2.310   8.379   0.719 -0.3023  0.3591  0.0251
 5681SOL    HW118911   2.281   8.463   0.684 -2.0606 -0.0180  0.4759
 5681SOL    HW218912   2.397   8.397   0.755  0.3585  1.4084 -1.9525
 5682SOL     OW18913   2.882   1.577   3.937 -0.3431 -0.2311 -0.1771
 5682SOL    HW118914   2.844   1.536   4.014  0.8462 -0.7209  0.1737
 5682SOL    HW218915   2.910   1.504   3.882  0.2388  0.0995 -0.3389
 5683SOL     OW18916   8.710   6.843   0.949  0.6631  0.9009 -0.1522
 5683SOL    HW118917   8.805   6.851   0.960  0.7665 -0.5676  0.2366
 5683SOL    HW218918   8.678   6.823   1.037 -0.2284  2.9493  0.0502
 5684SOL     OW18919   6.215   5.238   2.011 -0.1366  0.2979  0.1650
 5684SOL    HW118920   6.148   5.190   2.060 -0.4927 -0.5121 -1.0556
 5684SOL    HW218921   6.213   5.199   1.924  0.4488  1.7051 -0.5142
 5685SOL     OW18922   3.416   4.090   5.570  0.8580 -0.2289  0.1437
 5685SOL    HW118923   3.468   4.148   5.626 -0.1883 -1.3200  2.3815
 5685SOL    HW218924   3.333   4.135   5.559  1.2662  0.2497 -1.0724
 5686SOL     OW18925   3.156   5.029   2.373  0.6455  0.3593 -0.2761
 5686SOL    HW118926   3.151   5.069   2.287 -0.2492 -0.3794 -0.5885
 5686SOL    HW218927   3.246   4.997   2.381  0.1913 -1.5191 -1.8645
 5687SOL     OW18928   1.900   6.400   4.016 -0.3202 -0.5699 -0.8640
 5687SOL    HW118929   1.927   6.330   3.956  0.5222 -0.3747 -0.7250
 5687SOL    HW218930   1.850   6.355   4.084  0.5707 -1.1154 -0.5456
 5688SOL     OW18931   8.955   1.525   7.191  0.2313 -0.5429  0.0547
 5688SOL    HW118932   9.047   1.546   7.172  0.5192 -1.9527 -0.1810
 5688SOL    HW218933   8.952   1.509   7.285  0.5234 -1.8581 -0.1466
 5689SOL     OW18934   0.385   2.765   4.974  0.2538  0.1707  0.3078
 5689SOL    HW118935   0.313   2.731   5.026  0.6615  0.1944  0.8941
 5689SOL    HW218936   0.458   2.772   5.035  0.3662  1.4724  0.0451
 5690SOL     OW18937   5.916   1.214   3.399  0.6787 -0.7151  0.3479
 5690SOL    HW118938   5.871   1.193   3.317  0.6995  0.3496  0.0552
 5690SOL    HW218939   5.847   1.244   3.457  1.0687  1.9089 -0.4270
 5691SOL     OW18940   3.387   2.776   2.572  0.0114  0.0074  0.2296
 5691SOL    HW118941   3.426   2.698   2.612 -1.8167 -2.1414 -1.9091
 5691SOL    HW218942   3.460   2.836   2.561  1.6808 -1.7402  1.1502
 5692SOL     OW18943   2.666   7.247   7.234 -0.0328 -0.5162 -0.8076
 5692SOL    HW118944   2.736   7.306   7.207 -0.3800  0.4123  0.2674
 5692SOL    HW218945   2.624   7.220   7.153  0.9669 -0.3360 -1.3951
 5693SOL     OW18946   4.163   5.971   2.133  0.2743  0.2592 -0.0890
 5693SOL    HW118947   4.228   5.924   2.080 -1.6867 -1.9448 -0.7297
 5693SOL    HW218948   4.086   5.977   2.076 -1.2476 -0.4267  1.7925
 5694SOL     OW18949   3.054   0.272   5.421 -0.8076  0.0063 -0.3794
 5694SOL    HW118950   3.012   0.305   5.500 -2.4180  1.0262 -1.6078
 5694SOL    HW218951   3.089   0.186   5.446 -2.2092 -0.1501  1.1507
 5695SOL     OW18952   4.438   2.251   8.031  0.2326  1.1630 -0.1762
 5695SOL    HW118953   4.432   2.270   7.937  0.5730  0.7172 -0.2884
 5695SOL    HW218954   4.362   2.296   8.069  0.9093  2.6041 -0.4612
 5696SOL     OW18955   3.828   7.071   4.110  0.3127  0.2799  0.0858
 5696SOL    HW118956   3.764   7.013   4.070 -0.8789  1.5320  0.0863
 5696SOL    HW218957   3.835   7.042   4.201 -1.1031  0.7827  0.3848
 5697SOL     OW18958   4.989   7.863   1.974 -0.2647 -0.7959  0.1947
 5697SOL    HW118959   5.072   7.906   1.995  0.0812 -0.7980 -1.0836
 5697SOL    HW218960   4.922   7.925   2.004  0.2187  0.1521 -0.6038
 5698SOL     OW18961   5.397   2.373   7.156  0.0770 -0.0403 -0.0760
 5698SOL    HW118962   5.446   2.436   7.104 -0.6580  0.1423 -0.5755
 5698SOL    HW218963   5.453   2.296   7.160 -0.5906 -0.7960 -2.8459
 5699SOL     OW18964   8.529   7.570   8.356 -0.4427  0.0516  0.0685
 5699SOL    HW118965   8.474   7.512   8.303 -1.7116  0.2743  1.1023
 5699SOL    HW218966   8.501   7.658   8.331 -0.8996  0.1596  0.9467
 5700SOL     OW18967   2.493   6.686   2.174  0.1919 -0.5123  0.4754
 5700SOL    HW118968   2.524   6.673   2.264 -1.6552 -0.1772  1.1966
 5700SOL    HW218969   2.425   6.753   2.181 -0.0051 -0.4961 -1.1791
 5701SOL     OW18970   7.378   5.953   3.508  0.3624  0.4064 -0.1121
 5701SOL    HW118971   7.405   5.866   3.477 -0.0019  0.3143 -0.1775
 5701SOL    HW218972   7.288   5.941   3.537  0.5634  0.5804  0.6182
 5702SOL     OW18973   6.263   1.307   7.078 -0.1953  0.0461 -0.0936
 5702SOL    HW118974   6.249   1.369   7.150  2.1463  0.7434 -0.1428
 5702SOL    HW218975   6.193   1.327   7.016 -0.0954  2.0010  0.3353
 5703SOL     OW18976   3.617   4.416   2.324  0.1909 -0.2523  0.2181
 5703SOL    HW118977   3.543   4.364   2.290 -1.1966 -0.5763  3.4021
 5703SOL    HW218978   3.693   4.359   2.313 -0.6833 -1.4867  0.2608
 5704SOL     OW18979   2.381   6.830   7.294 -0.3362 -0.2558 -0.0635
 5704SOL    HW118980   2.389   6.820   7.199  0.4487 -1.2849  0.0903
 5704SOL    HW218981   2.356   6.922   7.307 -0.7233 -0.1814 -1.2698
 5705SOL     OW18982   2.739   7.482   5.211  0.1066  0.0255 -0.2744
 5705SOL    HW118983   2.755   7.433   5.130  1.0118  0.1246 -0.1673
 5705SOL    HW218984   2.811   7.544   5.216  0.0302  0.0535  0.5857
 5706SOL     OW18985   4.554   2.334   1.382 -0.5014 -0.1795  0.2037
 5706SOL    HW118986   4.479   2.394   1.377 -0.0480  0.4583  0.7287
 5706SOL    HW218987   4.597   2.357   1.465 -0.1710 -1.0682  0.2857
 5707SOL     OW18988   2.714   6.821   4.904 -0.1729 -0.7522  0.0542
 5707SOL    HW118989   2.743   6.900   4.859  1.0649 -0.6290  1.0065
 5707SOL    HW218990   2.635   6.848   4.951 -0.2302 -0.3123 -0.2892
 5708SOL     OW18991   4.451   0.166   0.565 -0.4042 -0.5557 -0.4142
 5708SOL    HW118992   4.475   0.212   0.485 -0.3434 -0.2150 -0.2000
 5708SOL    HW218993   4.444   0.074   0.538 -1.5178 -0.3039 -1.0654
 5709SOL     OW18994   3.550   3.837   4.538  0.3565  0.0924 -0.0703
 5709SOL    HW118995   3.602   3.880   4.606 -0.3448  1.0905 -0.1380
 5709SOL    HW218996   3.544   3.902   4.468  1.3384 -1.0307 -1.2523
 5710SOL     OW18997   2.285   5.044   0.728 -0.3075  0.1825 -0.0199
 5710SOL    HW118998   2.237   5.059   0.810  1.1852 -1.1502  1.1827
 5710SOL    HW218999   2.371   5.013   0.757  0.7409  0.9879 -2.1064
 5711SOL     OW19000   2.454   7.676   0.419  0.4939  0.3575 -0.1256
 5711SOL    HW119001   2.498   7.661   0.502  2.7996  0.4988 -1.2537
 5711SOL    HW219002   2.435   7.770   0.419  0.7244  0.4054  0.1462
 5712SOL     OW19003   1.947   4.886   0.850  0.5982 -0.5025 -0.1941
 5712SOL    HW119004   1.946   4.969   0.898  1.6675 -0.0545 -0.9113
 5712SOL    HW219005   1.871   4.891   0.792 -0.9527 -1.2239  1.6765
 5713SOL     OW19006   7.191   4.091   3.627 -0.2866  0.8550  0.2964
 5713SOL    HW119007   7.285   4.089   3.646 -0.5853 -2.0448  1.8343
 5713SOL    HW219008   7.156   4.156   3.688  0.5847  1.4470  0.1946
 5714SOL     OW19009   4.733   2.608   4.293  0.4994  0.1925  0.0123
 5714SOL    HW119010   4.775   2.524   4.309  1.5509  0.5956 -0.5575
 5714SOL    HW219011   4.667   2.616   4.363  1.1056 -0.6231  0.6895
 5715SOL     OW19012   0.473   2.630   4.255 -0.3029 -0.3155  0.0751
 5715SOL    HW119013   0.469   2.556   4.195 -1.7774  0.8592 -1.3749
 5715SOL    HW219014   0.567   2.645   4.269  0.0334 -2.9334  1.1195
 5716SOL     OW19015   8.079   8.431   1.604 -0.4652  0.2914  0.6777
 5716SOL    HW119016   8.170   8.404   1.596 -0.2807  1.4169 -2.3371
 5716SOL    HW219017   8.029   8.349   1.610  0.5697 -0.4513 -0.5386
 5717SOL     OW19018   2.998   1.499   7.390  0.3110 -0.6035  0.6247
 5717SOL    HW119019   3.037   1.551   7.460 -0.0733 -0.9261  1.0766
 5717SOL    HW219020   3.000   1.409   7.422 -1.5830 -0.5347  1.0299
 5718SOL     OW19021   8.138   1.217   6.758  0.2301 -0.9311  0.0537
 5718SOL    HW119022   8.176   1.306   6.757 -1.4525 -0.1824 -0.0433
 5718SOL    HW219023   8.213   1.160   6.741  1.5913  0.3627  1.3426
 5719SOL     OW19024   1.453   5.764   1.066 -0.1992  0.4152 -0.0801
 5719SOL    HW119025   1.547   5.779   1.057 -0.1025  1.4952  2.0874
 5719SOL    HW219026   1.417   5.849   1.089 -1.6446 -0.0921 -0.3743
 5720SOL     OW19027   3.849   2.785   4.075  0.2944 -0.0955  0.0038
 5720SOL    HW119028   3.880   2.726   4.007 -0.4211 -1.0145  0.4460
 5720SOL    HW219029   3.760   2.808   4.049 -0.2070 -0.9381  0.9161
 5721SOL     OW19030   6.947   2.359   0.260  0.1324 -0.5344 -0.0891
 5721SOL    HW119031   6.993   2.275   0.259 -0.8852 -1.0944 -0.5915
 5721SOL    HW219032   6.932   2.379   0.167 -0.4230 -0.2414  0.0630
 5722SOL     OW19033   0.212   8.058   4.152  0.0245 -0.5002 -0.0108
 5722SOL    HW119034   0.169   8.005   4.085 -1.6592  0.7356  0.0091
 5722SOL    HW219035   0.224   8.143   4.110  0.5842 -0.2320  0.6845
 5723SOL     OW19036   7.538   6.894   5.801  0.2384  0.3252 -0.0627
 5723SOL    HW119037   7.542   6.870   5.708 -0.4513 -0.3248  0.0621
 5723SOL    HW219038   7.500   6.817   5.844  2.7472 -0.3322  1.1435
 5724SOL     OW19039   2.281   3.025   8.975  0.0017 -0.2124 -0.2266
 5724SOL    HW119040   2.242   3.112   8.975 -0.5574 -0.4160 -1.9383
 5724SOL    HW219041   2.235   2.978   8.905  1.5776 -1.2774 -0.6075
 5725SOL     OW19042   2.218   6.141   6.387  0.5182  0.2172  0.1437
 5725SOL    HW119043   2.200   6.121   6.296 -0.6396  1.2323  0.1413
 5725SOL    HW219044   2.190   6.231   6.399  2.4091  0.7513  1.0391
 5726SOL     OW19045   0.320   6.509   6.587  0.4585 -0.7067 -0.3670
 5726SOL    HW119046   0.360   6.451   6.522  1.1822  1.0560 -1.5462
 5726SOL    HW219047   0.386   6.574   6.606 -0.5584  0.1275  0.4578
 5727SOL     OW19048   4.584   0.154   6.843 -0.6210 -0.2205  0.6157
 5727SOL    HW119049   4.614   0.105   6.767 -0.6023 -0.0405  0.5074
 5727SOL    HW219050   4.588   0.091   6.915 -0.0041 -0.2030  0.6018
 5728SOL     OW19051   5.106   7.181   2.085 -0.2074  0.0774 -0.3904
 5728SOL    HW119052   5.044   7.112   2.106 -0.5171  0.3157 -0.5159
 5728SOL    HW219053   5.074   7.219   2.003  0.6713 -0.4631 -1.0098
 5729SOL     OW19054   2.585   2.747   8.503  0.1017  0.1272 -0.9421
 5729SOL    HW119055   2.541   2.767   8.585  1.2968 -0.1244 -0.2198
 5729SOL    HW219056   2.564   2.654   8.487  0.9326 -0.1969 -0.2236
 5730SOL     OW19057   8.705   7.954   0.302 -0.2562  0.2338 -0.0546
 5730SOL    HW119058   8.686   7.878   0.356  0.0442 -0.2963 -0.6818
 5730SOL    HW219059   8.768   7.923   0.237  1.6790  1.5600  1.0548
 5731SOL     OW19060   1.699   7.559   5.586 -0.1490  0.1006  0.0597
 5731SOL    HW119061   1.744   7.528   5.508  0.4560  1.0791 -0.0083
 5731SOL    HW219062   1.691   7.482   5.642  0.8096 -0.2928 -0.3273
 5732SOL     OW19063   3.959   0.440   2.714  0.3425 -0.3072 -0.4181
 5732SOL    HW119064   3.914   0.476   2.638 -1.0696 -1.6411 -0.2595
 5732SOL    HW219065   3.982   0.517   2.767  0.1211  0.5326 -1.5050
 5733SOL     OW19066   3.899   1.696   4.383  0.2037 -0.1799  0.2096
 5733SOL    HW119067   3.985   1.701   4.424  0.6619  0.6757 -0.8137
 5733SOL    HW219068   3.842   1.747   4.441 -0.0222 -2.0421  1.7528
 5734SOL     OW19069   4.437   0.688   2.375  0.3306 -0.5389  0.0428
 5734SOL    HW119070   4.393   0.768   2.346  1.3421  0.1921  0.4389
 5734SOL    HW219071   4.480   0.713   2.457  0.8239 -1.4328  0.0634
 5735SOL     OW19072   4.568   4.265   6.600  0.1683  0.0687  0.2668
 5735SOL    HW119073   4.586   4.355   6.628  0.5014  0.0124  0.2406
 5735SOL    HW219074   4.630   4.249   6.529  2.1842 -1.1660  2.1649
 5736SOL     OW19075   7.661   5.283   2.370  0.1676  0.1095  0.0383
 5736SOL    HW119076   7.604   5.314   2.440 -0.4393  1.4735 -1.0008
 5736SOL    HW219077   7.647   5.345   2.299  0.1084 -1.7120 -1.6280
 5737SOL     OW19078   4.961   1.009   4.318 -0.3791  0.1236 -0.1284
 5737SOL    HW119079   4.988   1.037   4.406 -0.7644  0.1355 -0.0112
 5737SOL    HW219080   4.888   1.065   4.296  0.2299  0.6713 -0.8057
 5738SOL     OW19081   7.777   6.186   3.575 -0.4666 -0.0421 -0.2878
 5738SOL    HW119082   7.771   6.144   3.661  1.8439 -1.5933 -0.8098
 5738SOL    HW219083   7.779   6.114   3.513 -0.5354  1.0034 -1.5515
 5739SOL     OW19084   0.066   0.398   0.171  0.3010  0.2309 -0.6460
 5739SOL    HW119085   0.111   0.409   0.255 -0.4744  0.7803 -0.2900
 5739SOL    HW219086   0.083   0.480   0.124 -0.0495  0.3134 -0.6349
 5740SOL     OW19087   8.391   0.012   6.701  0.1765  0.3338  0.0332
 5740SOL    HW119088   8.349  -0.040   6.770 -0.1794  0.1094 -0.3430
 5740SOL    HW219089   8.330   0.007   6.627  1.6270 -1.3836 -1.1201
 5741SOL     OW19090   5.439   2.379   3.913 -0.3461 -0.6891  0.2657
 5741SOL    HW119091   5.535   2.377   3.911 -0.2990  0.8263 -0.4392
 5741SOL    HW219092   5.413   2.359   3.823 -0.7627 -2.2256  0.6936
 5742SOL     OW19093   7.121   7.835   2.908 -0.0601 -0.0029 -0.2611
 5742SOL    HW119094   7.057   7.867   2.844 -0.5731 -0.1018  0.2062
 5742SOL    HW219095   7.197   7.892   2.894 -0.1985  0.0415 -0.8938
 5743SOL     OW19096   4.095   4.511   2.939  0.8334 -0.0020 -0.0255
 5743SOL    HW119097   4.043   4.508   2.859 -1.5648  2.0643  1.3144
 5743SOL    HW219098   4.057   4.443   2.995 -1.4657  2.2201  1.3796
 5744SOL     OW19099   3.534   0.267   2.292  0.0410  0.5857 -0.4665
 5744SOL    HW119100   3.608   0.231   2.244 -0.4841  0.8522 -1.5017
 5744SOL    HW219101   3.483   0.191   2.319  0.7814  0.3905  0.4296
 5745SOL     OW19102   6.418   7.909   0.700 -0.1746  0.0828 -0.0574
 5745SOL    HW119103   6.490   7.971   0.693  0.6516 -0.9237 -0.8679
 5745SOL    HW219104   6.445   7.834   0.647 -1.5771 -0.5604  0.0718
 5746SOL     OW19105   0.728   2.473   3.953 -0.0108 -0.1950 -0.4352
 5746SOL    HW119106   0.737   2.424   4.035  0.4815 -1.1067 -1.0234
 5746SOL    HW219107   0.816   2.475   3.916  0.3174  2.4614  0.2769
 5747SOL     OW19108   6.756   5.548   8.008 -0.4269 -0.1407  0.0202
 5747SOL    HW119109   6.785   5.638   7.995  0.7312 -0.4228  0.4628
 5747SOL    HW219110   6.698   5.552   8.084 -0.3914  0.2347  0.0294
 5748SOL     OW19111   4.735   4.783   0.362 -0.3244 -0.8436 -0.0075
 5748SOL    HW119112   4.761   4.697   0.395 -0.7597 -0.9005  0.1942
 5748SOL    HW219113   4.815   4.835   0.365  0.2574 -1.6061 -1.3382
 5749SOL     OW19114   4.266   8.435   5.711 -0.4825 -0.0031 -0.4433
 5749SOL    HW119115   4.337   8.499   5.712 -2.1112  1.9126 -0.5774
 5749SOL    HW219116   4.272   8.392   5.796 -0.7420  2.0249  0.6623
 5750SOL     OW19117   4.834   5.723   2.760 -0.4113 -0.5802  0.0816
 5750SOL    HW119118   4.838   5.627   2.757  4.1624 -0.6960  1.3463
 5750SOL    HW219119   4.865   5.750   2.674 -0.1208 -0.3415  0.2576
 5751SOL     OW19120   6.342   8.902   2.015  0.3767 -0.0939 -0.3091
 5751SOL    HW119121   6.373   8.992   2.025 -0.6164  0.1983  0.3680
 5751SOL    HW219122   6.246   8.910   2.012  0.2111 -1.1956  0.8887
 5752SOL     OW19123   7.785   1.414   6.434  0.0817  0.0144 -0.3028
 5752SOL    HW119124   7.861   1.460   6.468  0.0592 -0.2215  0.0666
 5752SOL    HW219125   7.815   1.374   6.352 -0.0664  1.2154 -0.9762
 5753SOL     OW19126   3.712   0.428   2.846  0.3375  0.2951 -0.4549
 5753SOL    HW119127   3.806   0.417   2.832  0.2677  0.1981 -0.8589
 5753SOL    HW219128   3.703   0.520   2.870  0.4978  0.3931 -0.7614
 5754SOL     OW19129   7.355   1.222   8.290  0.0946 -0.2196  0.1778
 5754SOL    HW119130   7.407   1.181   8.221 -0.0204 -0.6576  0.3469
 5754SOL    HW219131   7.335   1.151   8.350 -2.3252 -0.4947 -0.8370
 5755SOL     OW19132   0.195   0.434   4.138 -0.1208  0.0301  0.2072
 5755SOL    HW119133   0.164   0.479   4.216  1.8544 -0.2871  1.2485
 5755SOL    HW219134   0.206   0.503   4.072 -1.6698  0.3191  0.2285
 5756SOL     OW19135   6.005   8.917   2.783 -1.1981  0.0723 -0.3329
 5756SOL    HW119136   5.928   8.945   2.734 -1.3102  0.1742 -0.0950
 5756SOL    HW219137   6.007   8.972   2.861 -1.6234 -0.8121  0.3179
 5757SOL     OW19138   6.297   6.634   4.815 -0.3605  0.3284  0.2595
 5757SOL    HW119139   6.307   6.672   4.903 -0.7141  2.1153 -0.4366
 5757SOL    HW219140   6.210   6.662   4.787 -0.7486 -1.2529 -0.2059
 5758SOL     OW19141   4.733   6.882   5.250  0.0328 -0.0229  0.2286
 5758SOL    HW119142   4.785   6.807   5.278  1.2083  1.0657  1.0445
 5758SOL    HW219143   4.645   6.864   5.285  0.2954 -0.9879  0.4277
 5759SOL     OW19144   8.283   5.742   3.744  0.0546  0.0620 -0.2272
 5759SOL    HW119145   8.282   5.663   3.798 -0.6333  0.4256  0.3108
 5759SOL    HW219146   8.339   5.803   3.791  1.0431 -0.2915 -0.9295
 5760SOL     OW19147   8.616   7.775   7.202  0.0740  0.2669 -0.0294
 5760SOL    HW119148   8.645   7.862   7.229 -1.2446  1.1756 -1.3918
 5760SOL    HW219149   8.682   7.744   7.141 -0.2533  1.0032 -0.7623
 5761SOL     OW19150   3.451   2.858   7.078  0.4703  0.2227 -0.2260
 5761SOL    HW119151   3.359   2.884   7.071  0.4143 -0.1062 -0.7544
 5761SOL    HW219152   3.449   2.778   7.131  0.6322  1.1922  1.3058
 5762SOL     OW19153   5.451   6.731   5.948  0.1589  0.2077 -0.8602
 5762SOL    HW119154   5.503   6.800   5.907 -0.1999 -1.6031 -4.7865
 5762SOL    HW219155   5.469   6.653   5.897 -2.0570 -1.8506  1.2281
 5763SOL     OW19156   6.930   3.738   4.532 -0.3390  0.0868  0.1126
 5763SOL    HW119157   6.930   3.834   4.533 -0.5961  0.0867  0.1093
 5763SOL    HW219158   6.858   3.714   4.590  0.3439 -0.1138  0.8980
 5764SOL     OW19159   5.589   0.796   4.961  0.1679  0.2779 -0.6799
 5764SOL    HW119160   5.550   0.870   4.915  1.7592  0.5879 -1.6283
 5764SOL    HW219161   5.578   0.722   4.900  0.5818  0.2529 -0.7256
 5765SOL     OW19162   0.016   7.049   1.352  0.3002 -0.3765 -0.4011
 5765SOL    HW119163   0.065   7.022   1.274  0.7445 -2.3068  0.4853
 5765SOL    HW219164  -0.061   6.993   1.353  1.4022 -1.9972  1.6687
 5766SOL     OW19165   6.964   5.719   4.312  0.0275  0.2468  0.0725
 5766SOL    HW119166   6.965   5.678   4.399  0.0763  0.1986  0.0492
 5766SOL    HW219167   6.871   5.729   4.291 -0.0502 -1.8301 -0.8446
 5767SOL     OW19168   8.399   2.851   3.672  0.4061  0.2565 -0.2222
 5767SOL    HW119169   8.391   2.761   3.705  2.0831 -0.7017 -2.2126
 5767SOL    HW219170   8.315   2.869   3.630 -0.5133  0.2439  1.5191
 5768SOL     OW19171   1.626   1.778   5.768 -0.0718 -0.0945  0.3921
 5768SOL    HW119172   1.643   1.731   5.687 -1.9049  0.0073 -0.0968
 5768SOL    HW219173   1.648   1.716   5.837 -0.3367 -0.8735 -0.2127
 5769SOL     OW19174   3.488   5.392   8.986 -0.2578  0.1256  0.2275
 5769SOL    HW119175   3.517   5.442   8.909 -1.2570 -0.0841 -0.2936
 5769SOL    HW219176   3.564   5.338   9.009 -0.5088 -1.1545 -1.7156
 5770SOL     OW19177   4.583   6.722   8.998  0.5197  0.2434 -0.2793
 5770SOL    HW119178   4.572   6.817   9.009  0.4336  0.2119 -0.0952
 5770SOL    HW219179   4.519   6.698   8.931 -0.2779  0.1255  0.5071
 5771SOL     OW19180   6.987   5.857   8.179  0.2058 -0.0033  0.1721
 5771SOL    HW119181   6.900   5.832   8.149  0.5519  1.8516 -2.7804
 5771SOL    HW219182   6.973   5.934   8.233  0.0383  0.6200 -0.7530
 5772SOL     OW19183   6.085   8.622   7.969 -0.6119 -0.3194 -0.3748
 5772SOL    HW119184   6.017   8.689   7.976  1.5201  1.9151  0.8988
 5772SOL    HW219185   6.061   8.557   8.036 -1.1238  0.8036  0.5753
 5773SOL     OW19186   7.454   8.890   6.036 -0.4408  0.0297  0.0499
 5773SOL    HW119187   7.499   8.877   5.952  2.4608  2.3599  1.0407
 5773SOL    HW219188   7.386   8.955   6.017 -0.3709 -0.0990 -0.6612
 5774SOL     OW19189   1.146   4.396   7.868 -0.9292  0.1543 -0.8532
 5774SOL    HW119190   1.237   4.379   7.845 -0.8066  2.3701 -2.3244
 5774SOL    HW219191   1.095   4.350   7.802 -0.9876 -1.7696  0.4390
 5775SOL     OW19192   3.527   6.960   2.606 -0.4481 -0.4944  0.6690
 5775SOL    HW119193   3.544   6.870   2.634  2.4464  0.4809  2.5136
 5775SOL    HW219194   3.614   6.999   2.597 -1.5434  1.7137 -1.7852
 5776SOL     OW19195   0.013   6.849   6.564 -0.6708 -0.3797 -0.0859
 5776SOL    HW119196  -0.007   6.808   6.649  0.1597  0.3540  0.4805
 5776SOL    HW219197   0.107   6.867   6.568 -0.6169 -0.3797 -1.1898
 5777SOL     OW19198   5.670   1.079   7.441  0.0664 -0.1549 -0.2896
 5777SOL    HW119199   5.701   1.140   7.508 -1.3639  1.0967 -0.7200
 5777SOL    HW219200   5.651   0.998   7.490  1.6147 -0.1636  0.3499
 5778SOL     OW19201   5.933   7.598   3.342 -0.5068  0.7633  0.3201
 5778SOL    HW119202   5.844   7.566   3.355 -0.4191 -0.2715 -1.4246
 5778SOL    HW219203   5.984   7.553   3.409 -0.7522 -1.2045 -0.7530
 5779SOL     OW19204   5.810   6.054   0.182 -0.2530  0.4686  0.3510
 5779SOL    HW119205   5.881   6.119   0.184 -2.4643  3.1003 -0.5155
 5779SOL    HW219206   5.746   6.087   0.244 -1.2361 -1.2450  0.3014
 5780SOL     OW19207   3.162   4.179   1.583  0.0785  0.4039 -0.1387
 5780SOL    HW119208   3.182   4.085   1.582 -1.1695  0.1179  0.3224
 5780SOL    HW219209   3.193   4.208   1.669  1.0911  0.5828 -0.5418
 5781SOL     OW19210   8.509   3.222   1.675 -0.1726 -0.3485 -0.0314
 5781SOL    HW119211   8.594   3.180   1.665 -0.9748 -2.4839  1.5111
 5781SOL    HW219212   8.463   3.203   1.593  1.3908  2.5087 -1.7410
 5782SOL     OW19213   2.990   4.630   2.397  0.2475 -0.3947 -0.0367
 5782SOL    HW119214   2.972   4.718   2.428 -1.2254 -0.8657  0.5318
 5782SOL    HW219215   2.930   4.617   2.324  0.8221 -0.7551 -0.4567
 5783SOL     OW19216   7.092   2.778   5.496 -0.3698 -0.2992  0.0770
 5783SOL    HW119217   7.102   2.683   5.499  0.5911 -0.2109  0.1337
 5783SOL    HW219218   7.009   2.792   5.451  0.1976 -1.1552 -1.3124
 5784SOL     OW19219   8.344   5.095   8.228  0.6557 -0.8352  0.0470
 5784SOL    HW119220   8.385   5.103   8.142 -0.6837  0.6321 -0.4974
 5784SOL    HW219221   8.259   5.054   8.210  0.6280 -1.1042  0.7623
 5785SOL     OW19222   0.938   2.119   1.722  0.1191  0.2957 -0.2546
 5785SOL    HW119223   0.954   2.044   1.779 -0.2111  1.5027  1.5293
 5785SOL    HW219224   0.978   2.193   1.769 -2.9072  1.8995  0.0512
 5786SOL     OW19225   4.403   5.455   8.181 -0.1369  0.0346  0.2501
 5786SOL    HW119226   4.392   5.360   8.172 -0.5792 -0.0130  1.1163
 5786SOL    HW219227   4.402   5.470   8.276  0.1892  0.8791  0.1319
 5787SOL     OW19228   7.674   7.480   1.569 -0.7010 -0.1267 -0.2991
 5787SOL    HW119229   7.583   7.507   1.552 -0.6867  0.3490  0.3171
 5787SOL    HW219230   7.682   7.394   1.527 -1.9792 -0.9993  1.1132
 5788SOL     OW19231   2.216   1.712   7.580  0.0970  0.3930 -0.7707
 5788SOL    HW119232   2.212   1.806   7.564 -0.4331  0.1830 -1.9299
 5788SOL    HW219233   2.134   1.678   7.544 -0.6515 -0.2751  1.4030
 5789SOL     OW19234   8.514   7.667   1.194  0.6297  0.4127 -0.4923
 5789SOL    HW119235   8.538   7.710   1.111  1.4082  0.5367 -0.2161
 5789SOL    HW219236   8.571   7.589   1.196  1.4735  1.0330  0.4741
 5790SOL     OW19237   6.827   0.023   1.475  0.0509  0.5123  0.2158
 5790SOL    HW119238   6.813   0.038   1.382 -2.0596 -0.4697  0.2991
 5790SOL    HW219239   6.771  -0.052   1.496  0.0391  1.0313  2.3685
 5791SOL     OW19240   1.290   1.977   1.639  0.2127  0.0625  0.2151
 5791SOL    HW119241   1.272   1.944   1.727  0.4843  0.2283  0.3335
 5791SOL    HW219242   1.380   2.008   1.643  0.9407 -1.7996 -0.6881
 5792SOL     OW19243   0.806   8.152   2.094 -0.2013 -0.4329 -0.1268
 5792SOL    HW119244   0.862   8.086   2.136  1.4444  0.3252 -1.0260
 5792SOL    HW219245   0.838   8.156   2.004 -1.8769 -0.1024 -0.7375
 5793SOL     OW19246   1.659   3.851   6.241  0.0912  0.1223  0.0829
 5793SOL    HW119247   1.691   3.764   6.267  0.1157  0.9150  3.1304
 5793SOL    HW219248   1.564   3.841   6.238  0.1369 -0.2008 -0.4255
 5794SOL     OW19249   7.127   7.101   6.064  0.1968 -0.3058 -0.3708
 5794SOL    HW119250   7.174   7.064   5.990  2.0883  1.1631  0.0046
 5794SOL    HW219251   7.195   7.134   6.122 -1.2757  0.9938  0.7385
 5795SOL     OW19252   4.956   0.046   3.999  0.2967 -0.0005  0.2692
 5795SOL    HW119253   4.937   0.123   4.053 -0.4244 -0.3766  0.5663
 5795SOL    HW219254   5.014   0.078   3.931 -1.4697  1.2285 -0.7255
 5796SOL     OW19255   6.900   7.856   1.879  0.1863  0.6489 -0.3241
 5796SOL    HW119256   6.816   7.899   1.899  0.5811  1.4679 -0.3582
 5796SOL    HW219257   6.913   7.870   1.785  1.5639  2.8307  0.1104
 5797SOL     OW19258   4.525   4.513   3.552 -0.1315 -0.0115  0.2368
 5797SOL    HW119259   4.530   4.418   3.543  0.2969 -0.0600  0.9778
 5797SOL    HW219260   4.563   4.532   3.638  0.3721  0.8903 -0.1725
 5798SOL     OW19261   5.254   7.908   1.273 -0.5781  0.2594 -0.1425
 5798SOL    HW119262   5.297   7.825   1.249 -0.7773  0.4863 -1.3878
 5798SOL    HW219263   5.251   7.957   1.190  0.0108  1.7290  0.6709
 5799SOL     OW19264   8.829   0.578   5.396  0.2406  0.2118 -0.1484
 5799SOL    HW119265   8.829   0.565   5.491 -0.0589  0.3120 -0.1327
 5799SOL    HW219266   8.913   0.621   5.378  0.9310 -1.0771 -0.1184
 5800SOL     OW19267   7.475   4.844   8.816  0.0249  0.8865 -0.1884
 5800SOL    HW119268   7.486   4.913   8.750  2.9579  0.3194 -0.4199
 5800SOL    HW219269   7.465   4.892   8.898  0.4995  1.6289 -0.5484
 5801SOL     OW19270   6.016   5.435   0.416  0.3366  0.4546 -0.1094
 5801SOL    HW119271   5.932   5.459   0.375  0.1012 -1.3757 -0.7867
 5801SOL    HW219272   6.053   5.369   0.357  1.7558  0.4464  0.7537
 5802SOL     OW19273   3.034   6.070   2.891 -0.2385 -0.2783  0.1933
 5802SOL    HW119274   2.980   6.045   2.966  0.6798 -1.5491  0.4564
 5802SOL    HW219275   3.061   5.987   2.852  1.0193  0.3411 -0.2902
 5803SOL     OW19276   3.686   7.582   4.676 -0.1867 -0.1615 -0.1318
 5803SOL    HW119277   3.672   7.538   4.592 -0.7708  0.0451 -0.1437
 5803SOL    HW219278   3.778   7.609   4.674  0.0339 -0.8944 -0.3532
 5804SOL     OW19279   6.836   5.320   4.464  0.3002 -0.5151  0.0178
 5804SOL    HW119280   6.859   5.297   4.374  2.3547 -0.8908  0.5805
 5804SOL    HW219281   6.920   5.334   4.508 -0.5185 -1.9481  2.2898
 5805SOL     OW19282   1.879   6.918   4.125 -0.0102  0.0644  1.2145
 5805SOL    HW119283   1.847   6.828   4.125  1.5993 -0.5512  1.0039
 5805SOL    HW219284   1.844   6.956   4.044  0.3179 -0.7832  0.6576
 5806SOL     OW19285   6.994   8.143   1.592 -0.7563 -0.6683  0.1779
 5806SOL    HW119286   6.950   8.227   1.606  0.4200  0.0707 -0.4245
 5806SOL    HW219287   7.076   8.150   1.640 -0.2642 -1.1258 -0.5648
 5807SOL     OW19288   6.444   6.094   4.127  0.2198  0.0147  0.4573
 5807SOL    HW119289   6.445   6.054   4.040 -1.8183 -0.4174  0.5965
 5807SOL    HW219290   6.532   6.079   4.161  0.3857 -1.7764 -0.6547
 5808SOL     OW19291   4.367   3.413   5.258 -0.3576  0.2249 -0.8681
 5808SOL    HW119292   4.375   3.319   5.274 -0.9910  0.4517  1.1073
 5808SOL    HW219293   4.457   3.444   5.254 -0.0956 -0.1177  1.1643
 5809SOL     OW19294   2.736   2.311   3.735 -0.0900 -0.0203 -0.4114
 5809SOL    HW119295   2.727   2.223   3.700 -0.8534  0.1665 -0.7115
 5809SOL    HW219296   2.810   2.349   3.688 -1.4259  0.4147 -2.2558
 5810SOL     OW19297   3.651   6.123   4.405  0.0103 -0.2581 -0.1752
 5810SOL    HW119298   3.695   6.155   4.484  0.0054  2.1377 -1.0632
 5810SOL    HW219299   3.586   6.061   4.438  0.6884 -0.0857  1.6039
 5811SOL     OW19300   0.263   0.634   8.496  0.2642 -0.5680  0.0508
 5811SOL    HW119301   0.293   0.616   8.407 -1.4598  0.1954 -0.7376
 5811SOL    HW219302   0.168   0.635   8.490  0.1110  1.2806  1.5097
 5812SOL     OW19303   3.121   8.036   5.902 -0.3035 -0.4736 -0.1209
 5812SOL    HW119304   3.139   7.965   5.840 -1.8977  0.5853 -1.8966
 5812SOL    HW219305   3.174   8.109   5.870 -2.3666  0.5818 -1.3164
 5813SOL     OW19306   1.617   4.927   5.883  0.1521 -0.1108  0.5956
 5813SOL    HW119307   1.574   4.976   5.953 -0.1259 -1.7858  1.6420
 5813SOL    HW219308   1.585   4.837   5.892  1.5300 -0.7671 -0.5119
 5814SOL     OW19309   5.111   6.929   0.530  0.4125 -0.6524  0.1938
 5814SOL    HW119310   5.153   7.009   0.499 -0.2898 -0.8423 -1.3561
 5814SOL    HW219311   5.069   6.954   0.612  0.0728  0.6233 -0.3447
 5815SOL     OW19312   8.803   1.119   7.163  0.3529 -0.1303 -0.4188
 5815SOL    HW119313   8.730   1.151   7.216  1.0827  2.3600 -0.7980
 5815SOL    HW219314   8.874   1.105   7.226 -0.0656 -1.4517 -0.2068
 5816SOL     OW19315   8.560   1.200   8.374 -0.4797  0.3670 -0.1057
 5816SOL    HW119316   8.571   1.114   8.415  0.3621 -1.4071 -3.7138
 5816SOL    HW219317   8.648   1.238   8.373 -0.5599  0.5601 -0.0479
 5817SOL     OW19318   3.941   0.498   7.019  0.6055 -0.3220  0.1687
 5817SOL    HW119319   4.012   0.462   7.071  1.7444  0.8070 -0.5503
 5817SOL    HW219320   3.943   0.592   7.036  0.5657 -0.0151 -1.3510
 5818SOL     OW19321   3.579   1.481   0.503  0.5000 -0.6318  0.1454
 5818SOL    HW119322   3.658   1.471   0.557  0.8144  3.3121  0.6903
 5818SOL    HW219323   3.596   1.557   0.448 -1.8776 -1.3780 -1.8137
 5819SOL     OW19324   8.809   1.152   7.493  0.4909  0.1660 -0.5351
 5819SOL    HW119325   8.885   1.210   7.495  1.0021 -0.4859 -0.7437
 5819SOL    HW219326   8.789   1.136   7.585  0.3530  0.6535 -0.4742
 5820SOL     OW19327   4.532   5.945   5.894  0.0572  0.0033  0.2467
 5820SOL    HW119328   4.612   5.988   5.865 -1.1294  0.9767 -1.8266
 5820SOL    HW219329   4.515   5.981   5.981  2.1690 -0.7281  1.0280
 5821SOL     OW19330   3.414   8.376   0.744 -0.9492  0.0937 -0.0672
 5821SOL    HW119331   3.379   8.319   0.675 -0.7517 -1.0310  0.7278
 5821SOL    HW219332   3.338   8.400   0.796 -0.9690  0.2109 -0.1489
 5822SOL     OW19333   6.777   2.024   0.138 -0.3755  0.0768 -0.2973
 5822SOL    HW119334   6.783   2.065   0.051  0.7525 -1.4577 -1.0064
 5822SOL    HW219335   6.855   2.055   0.184 -0.0118 -0.5068 -0.5044
 5823SOL     OW19336   7.979   2.554   6.534  0.7471 -0.0411  0.2111
 5823SOL    HW119337   7.944   2.640   6.559 -1.5553 -0.9439  0.2995
 5823SOL    HW219338   7.943   2.494   6.599  3.6461 -0.9362  1.1477
 5824SOL     OW19339   2.851   7.019   0.742 -0.6455 -0.5642  0.4495
 5824SOL    HW119340   2.792   6.995   0.671 -0.5977  0.1388  0.1653
 5824SOL    HW219341   2.933   6.975   0.721 -0.2468  0.6408 -0.6068
 5825SOL     OW19342   3.320   7.632   1.715 -0.2631 -0.3237 -0.2323
 5825SOL    HW119343   3.300   7.670   1.801 -2.2854 -1.8130  0.0637
 5825SOL    HW219344   3.405   7.590   1.726 -0.2603 -0.0484  0.9047
 5826SOL     OW19345   6.716   2.635   5.938  0.1056 -0.4399  0.1001
 5826SOL    HW119346   6.802   2.614   5.902 -0.4354 -0.4851 -1.2628
 5826SOL    HW219347   6.699   2.566   6.002  0.8811 -0.7112  0.0194
 5827SOL     OW19348   2.371   1.533   7.441  0.5580 -0.2071 -0.1798
 5827SOL    HW119349   2.288   1.502   7.407  0.8355 -1.5948  0.3473
 5827SOL    HW219350   2.350   1.614   7.487 -0.5695 -0.7721  0.3137
 5828SOL     OW19351   4.162   4.214   6.663 -0.1559  0.1668  0.2365
 5828SOL    HW119352   4.131   4.258   6.742 -2.0403 -0.2978 -0.1831
 5828SOL    HW219353   4.171   4.122   6.689 -0.1737  0.1192  0.0797
 5829SOL     OW19354   7.634   2.166   3.879  0.5734 -0.2278  0.2274
 5829SOL    HW119355   7.641   2.252   3.836  0.5240 -0.5594 -0.4660
 5829SOL    HW219356   7.542   2.160   3.906  0.7330  0.2195  0.9021
 5830SOL     OW19357   7.713   2.813   1.731  0.2431  0.7661  0.5781
 5830SOL    HW119358   7.694   2.821   1.638 -0.1416 -1.3469  0.4248
 5830SOL    HW219359   7.753   2.897   1.755  1.9389  0.7349 -1.8460
 5831SOL     OW19360   1.528   0.339   7.459  0.0830 -0.0211 -0.5630
 5831SOL    HW119361   1.477   0.295   7.528  0.8422 -0.0261  0.0009
 5831SOL    HW219362   1.467   0.346   7.386 -0.5986 -0.4260 -0.0487
 5832SOL     OW19363   3.956   6.767   6.478 -0.5723 -0.0925 -0.9239
 5832SOL    HW119364   3.884   6.828   6.463 -0.1180  1.1491  1.4450
 5832SOL    HW219365   3.920   6.702   6.538  0.6083  1.5250  1.7483
 5833SOL     OW19366   8.283   5.145   2.337  0.2910  0.7566  0.2874
 5833SOL    HW119367   8.291   5.203   2.412  2.0319  1.3822 -0.3368
 5833SOL    HW219368   8.369   5.145   2.297 -0.2049 -0.7076 -0.8952
 5834SOL     OW19369   6.899   1.823   1.858 -0.0730  0.3832 -0.3311
 5834SOL    HW119370   6.913   1.737   1.896  0.2484 -0.1623 -1.6428
 5834SOL    HW219371   6.893   1.808   1.764  1.7761  1.9703 -0.7926
 5835SOL     OW19372   3.550   8.714   6.751 -0.4858 -0.1911 -0.0961
 5835SOL    HW119373   3.627   8.765   6.776 -0.7321  0.0526  0.1631
 5835SOL    HW219374   3.525   8.749   6.666 -1.0263  0.5454  0.3603
 5836SOL     OW19375   6.367   7.298   5.827 -0.0581  0.4324  0.3502
 5836SOL    HW119376   6.321   7.220   5.795  2.8419 -1.7635  1.1247
 5836SOL    HW219377   6.382   7.350   5.748  0.0905 -1.0213 -0.6291
 5837SOL     OW19378   3.927   4.113   2.705  0.1805  0.3344 -0.6187
 5837SOL    HW119379   3.959   4.170   2.774 -1.2114  2.1938 -1.4245
 5837SOL    HW219380   4.002   4.100   2.647  0.8525  0.2716  0.2451
 5838SOL     OW19381   7.666   2.878   8.300 -0.0796 -0.2407  0.1648
 5838SOL    HW119382   7.707   2.962   8.322  0.7060 -0.4913 -0.2744
 5838SOL    HW219383   7.652   2.836   8.384  2.1955 -0.8741  0.2932
 5839SOL     OW19384   1.419   6.786   4.616 -0.1710 -0.0368  0.1167
 5839SOL    HW119385   1.328   6.796   4.645 -0.2610 -1.0154  0.2150
 5839SOL    HW219386   1.438   6.868   4.570 -1.0378  0.2653  0.2619
 5840SOL     OW19387   7.397   0.739   6.059 -0.1631 -0.0515 -0.2489
 5840SOL    HW119388   7.315   0.690   6.052 -0.8172  0.9621  0.0277
 5840SOL    HW219389   7.373   0.820   6.104  1.0719  0.0969  0.1866
 5841SOL     OW19390   5.717   7.252   0.948  0.0821 -0.0137 -0.2330
 5841SOL    HW119391   5.716   7.228   0.855 -2.2132 -1.8738  0.1645
 5841SOL    HW219392   5.626   7.275   0.967  0.3005 -0.6676  1.7544
 5842SOL     OW19393   8.848   8.901   7.193 -0.0347 -0.2407  0.5547
 5842SOL    HW119394   8.824   8.984   7.235  0.6451 -0.6595  1.8371
 5842SOL    HW219395   8.899   8.855   7.260  2.5296 -0.2889 -1.2929
 5843SOL     OW19396   6.699   7.053   4.685  0.7603  0.4214  0.0867
 5843SOL    HW119397   6.708   7.092   4.772  1.3447  2.2862 -0.7804
 5843SOL    HW219398   6.624   6.994   4.694 -0.0133  1.5449  1.5215
 5844SOL     OW19399   2.093   4.400   7.797 -0.2598  0.0516 -0.2947
 5844SOL    HW119400   2.099   4.454   7.876 -2.0572  1.6325 -1.1621
 5844SOL    HW219401   2.184   4.376   7.778  0.4600  1.5893  0.9357
 5845SOL     OW19402   4.041   5.252   4.944 -0.0467  0.1416 -0.4856
 5845SOL    HW119403   4.101   5.259   4.870  1.2452 -1.5406  0.3413
 5845SOL    HW219404   3.956   5.277   4.908  1.1560  3.2497 -1.5490
 5846SOL     OW19405   5.962   8.517   0.384 -0.2353 -0.3025  0.1637
 5846SOL    HW119406   5.915   8.530   0.302 -0.5765 -0.2644  0.3676
 5846SOL    HW219407   5.915   8.447   0.429 -1.8412  1.6290  1.6723
 5847SOL     OW19408   7.427   7.203   4.757  0.6413 -0.2812  0.5712
 5847SOL    HW119409   7.477   7.221   4.836  3.1440  4.4766 -1.6906
 5847SOL    HW219410   7.371   7.280   4.745  0.1904 -0.9313 -2.1496
 5848SOL     OW19411   4.979   4.824   0.455 -0.0037  0.0421 -0.4935
 5848SOL    HW119412   4.991   4.789   0.543  1.1389  1.2604 -0.1463
 5848SOL    HW219413   5.010   4.753   0.398  2.1048  0.3614  0.1932
 5849SOL     OW19414   5.147   4.846   6.352  0.1237  0.9218  0.7441
 5849SOL    HW119415   5.222   4.879   6.402 -0.4557  0.9617  1.6146
 5849SOL    HW219416   5.185   4.811   6.271  0.9165  2.3113  0.4868
 5850SOL     OW19417   7.658   0.646   8.653  0.0309  0.4660  0.2582
 5850SOL    HW119418   7.748   0.612   8.653 -0.1186  0.0624  0.6185
 5850SOL    HW219419   7.615   0.598   8.723 -0.1517  1.5003  0.8661
 5851SOL     OW19420   5.991   6.448   7.810 -0.1064 -0.8172 -0.0828
 5851SOL    HW119421   5.998   6.355   7.788  0.8141 -0.3555 -1.9370
 5851SOL    HW219422   6.079   6.471   7.841 -0.0000 -0.3065 -0.7539
 5852SOL     OW19423   5.931   4.070   3.713  0.1225 -0.1651  0.1164
 5852SOL    HW119424   5.894   4.056   3.800  0.1654  0.6241  0.2763
 5852SOL    HW219425   6.013   4.021   3.714 -1.7151 -3.5784 -0.9148
 5853SOL     OW19426   7.265   8.585   5.121 -0.2844 -0.1984 -0.0737
 5853SOL    HW119427   7.296   8.671   5.148  2.4087 -0.8151 -0.8747
 5853SOL    HW219428   7.327   8.556   5.055 -1.9606 -2.1664 -0.9200
 5854SOL     OW19429   6.826   8.910   3.366 -0.0771 -0.1063 -0.1335
 5854SOL    HW119430   6.741   8.870   3.345  0.3285 -1.2149  0.2723
 5854SOL    HW219431   6.813   9.003   3.347 -1.1141 -0.3792 -0.9096
 5855SOL     OW19432   1.726   5.217   0.685  0.0283  0.2751  0.0074
 5855SOL    HW119433   1.782   5.160   0.631  0.4378  1.6520 -1.0962
 5855SOL    HW219434   1.788   5.267   0.738 -0.1740  1.2222 -0.6251
 5856SOL     OW19435   1.798   0.114   7.857 -0.1956  0.3953 -0.2453
 5856SOL    HW119436   1.875   0.076   7.815 -0.5093 -0.5521  0.0035
 5856SOL    HW219437   1.824   0.123   7.949 -0.6316 -0.6989  0.0093
 5857SOL     OW19438   6.928   1.111   3.059 -0.3769  0.0448 -0.1951
 5857SOL    HW119439   6.975   1.189   3.087  0.3704 -0.4470 -0.0536
 5857SOL    HW219440   6.838   1.127   3.086 -0.3929  1.1820 -0.8513
 5858SOL     OW19441   6.075   2.876   2.101  0.2735  0.1758  0.3952
 5858SOL    HW119442   6.136   2.836   2.163  0.5346  0.9898  0.6796
 5858SOL    HW219443   6.128   2.898   2.025 -0.3429 -2.3089 -0.8533
 5859SOL     OW19444   7.111   2.445   7.087 -1.0532 -0.4976  0.3986
 5859SOL    HW119445   7.161   2.511   7.135  0.2706 -1.5425  0.5018
 5859SOL    HW219446   7.074   2.389   7.156  1.1557 -2.2232  0.2901
 5860SOL     OW19447   5.165   3.072   1.573  0.3516  0.7015 -0.1242
 5860SOL    HW119448   5.096   3.043   1.513  1.4927 -0.3873 -0.9741
 5860SOL    HW219449   5.149   3.024   1.653  0.4884 -0.0544 -0.5401
 5861SOL     OW19450   4.140   5.079   5.113  0.0125 -0.0053  0.7899
 5861SOL    HW119451   4.230   5.077   5.081  0.2948 -1.1902  1.5852
 5861SOL    HW219452   4.093   5.130   5.048  0.5927 -2.0897 -1.4426
 5862SOL     OW19453   1.926   2.905   4.434  0.3940  0.0036  0.4678
 5862SOL    HW119454   1.928   2.815   4.403 -0.1790 -0.0192  0.4987
 5862SOL    HW219455   1.996   2.909   4.500  0.8004 -0.2622  0.0583
 5863SOL     OW19456   8.783   1.562   5.323  0.1469  0.3283  0.2642
 5863SOL    HW119457   8.722   1.591   5.256  0.2201 -1.2360 -0.5241
 5863SOL    HW219458   8.735   1.496   5.373  0.9617 -0.4792  0.0158
 5864SOL     OW19459   5.066   0.782   2.181  0.0859 -0.8084  0.4376
 5864SOL    HW119460   5.008   0.834   2.127  0.5442 -0.2479  0.4832
 5864SOL    HW219461   5.059   0.820   2.269  0.4719 -0.7813  0.4584
 5865SOL     OW19462   3.769   2.713   4.557  0.1416 -0.6817 -0.0217
 5865SOL    HW119463   3.819   2.779   4.508  0.9312 -0.9371  0.4319
 5865SOL    HW219464   3.690   2.699   4.504  1.3214 -1.5173 -1.6166
 5866SOL     OW19465   2.457   2.151   2.512 -0.0092 -0.0360 -0.4105
 5866SOL    HW119466   2.551   2.164   2.518  0.1559 -0.0315 -2.4808
 5866SOL    HW219467   2.440   2.138   2.419 -2.3215  2.1359 -0.4065
 5867SOL     OW19468   7.339   0.391   2.450  0.4476 -0.1823  0.0521
 5867SOL    HW119469   7.277   0.410   2.379  0.5888 -1.4041 -0.4327
 5867SOL    HW219470   7.295   0.325   2.503  0.0560  1.2053  1.5472
 5868SOL     OW19471   0.948   1.496   2.563 -1.0688 -1.0899 -0.0498
 5868SOL    HW119472   0.865   1.510   2.609 -0.8883 -0.7451  0.1772
 5868SOL    HW219473   0.933   1.529   2.475 -0.8458 -0.0155  0.2975
 5869SOL     OW19474   2.308   0.046   0.626 -0.3738 -0.0246 -0.3053
 5869SOL    HW119475   2.296   0.138   0.604 -1.4610 -0.5030 -1.9500
 5869SOL    HW219476   2.230   0.003   0.591 -1.6545 -1.1646  3.3829
 5870SOL     OW19477   6.780   8.002   1.212  0.0669 -0.0826  0.5741
 5870SOL    HW119478   6.788   8.022   1.119 -2.6459  0.1712  0.3276
 5870SOL    HW219479   6.834   7.924   1.224 -0.6547 -0.9793 -1.5454
 5871SOL     OW19480   4.743   1.334   1.083 -0.4980  0.5549  0.4183
 5871SOL    HW119481   4.654   1.366   1.091  0.2786  2.6348  1.4844
 5871SOL    HW219482   4.739   1.270   1.012 -2.3967  2.3016 -1.2011
 5872SOL     OW19483   1.204   6.123   0.739 -0.2822  0.5745 -0.1649
 5872SOL    HW119484   1.205   6.030   0.762 -0.6350  0.0764 -2.0068
 5872SOL    HW219485   1.266   6.130   0.666 -0.9585  1.5950 -0.6694
 5873SOL     OW19486   7.651   4.135   1.563  0.1180 -0.0451  0.3038
 5873SOL    HW119487   7.740   4.101   1.573  0.0351 -0.7313 -1.0208
 5873SOL    HW219488   7.658   4.228   1.586  1.3749  0.1160 -0.6215
 5874SOL     OW19489   2.500   6.313   7.799 -0.3554 -0.0453  0.0402
 5874SOL    HW119490   2.579   6.332   7.849  0.3648  1.9234 -1.6852
 5874SOL    HW219491   2.470   6.399   7.768 -3.2408 -0.7054  0.6795
 5875SOL     OW19492   6.234   8.520   0.623 -0.3364 -0.0895 -0.5399
 5875SOL    HW119493   6.321   8.558   0.610  0.4390 -0.6432  2.2382
 5875SOL    HW219494   6.173   8.589   0.597  1.0033  1.5512  0.4878
 5876SOL     OW19495   7.610   8.491   5.934 -0.4906  0.1694 -0.0003
 5876SOL    HW119496   7.696   8.477   5.893 -1.1940 -1.0772 -1.0952
 5876SOL    HW219497   7.620   8.455   6.022 -0.1291 -0.7340 -0.4041
 5877SOL     OW19498   3.815   8.344   1.348 -0.1693  0.0716  0.2824
 5877SOL    HW119499   3.844   8.435   1.355 -0.1856  0.1788 -0.7953
 5877SOL    HW219500   3.892   8.298   1.315  0.0671 -0.4554  1.5321
 5878SOL     OW19501   5.188   6.372   5.777 -0.3039 -0.1644  0.0179
 5878SOL    HW119502   5.266   6.342   5.824 -1.2698 -2.7562  0.1397
 5878SOL    HW219503   5.119   6.372   5.843 -0.7412  0.5699 -0.4291
 5879SOL     OW19504   4.497   4.262   3.877 -0.2918  0.4814  0.4508
 5879SOL    HW119505   4.442   4.327   3.921 -0.7244  1.4560 -1.4012
 5879SOL    HW219506   4.499   4.291   3.786  2.8371  0.1519  0.3130
 5880SOL     OW19507   1.045   8.121   7.697 -0.2283  0.6471 -0.2246
 5880SOL    HW119508   0.971   8.122   7.758  0.4417 -0.0834  0.6451
 5880SOL    HW219509   1.122   8.140   7.752  0.5304 -1.1173 -0.6040
 5881SOL     OW19510   3.308   1.927   5.255  0.4280 -0.2979 -0.4824
 5881SOL    HW119511   3.286   1.964   5.340  1.6981  2.0560 -1.0899
 5881SOL    HW219512   3.362   1.851   5.275 -0.3089 -0.5140  0.8085
 5882SOL     OW19513   6.990   7.263   7.928 -0.1364 -0.3946  0.5221
 5882SOL    HW119514   7.036   7.181   7.912  0.0435 -0.2662  0.3780
 5882SOL    HW219515   6.917   7.239   7.986 -0.0981 -0.6579  0.4617
 5883SOL     OW19516   6.501   1.073   5.791 -0.0200  0.6955 -0.0186
 5883SOL    HW119517   6.421   1.027   5.767 -0.2040  0.1955  1.4557
 5883SOL    HW219518   6.562   1.003   5.817  0.5956  1.1277 -0.2754
 5884SOL     OW19519   8.796   4.329   7.290  0.0333  0.5014 -0.0915
 5884SOL    HW119520   8.732   4.270   7.251  0.1985 -0.3651  0.8929
 5884SOL    HW219521   8.868   4.332   7.227  1.4717 -2.9189  1.1108
 5885SOL     OW19522   3.106   0.413   7.656  0.5825  0.1702 -0.1450
 5885SOL    HW119523   3.079   0.358   7.583  0.6536 -0.6767  0.4477
 5885SOL    HW219524   3.047   0.488   7.653 -1.7341 -1.4653  0.9172
 5886SOL     OW19525   8.083   5.429   2.484 -0.5530  0.6715 -0.6923
 5886SOL    HW119526   8.016   5.375   2.442  0.4663 -0.6765 -0.6397
 5886SOL    HW219527   8.064   5.423   2.577  1.2158 -2.0155 -0.4160
 5887SOL     OW19528   6.030   3.122   1.054 -0.0244 -0.3862  0.4023
 5887SOL    HW119529   6.061   3.037   1.086 -0.5594 -0.5958  0.3787
 5887SOL    HW219530   5.967   3.151   1.121 -1.6207 -1.1130 -0.7254
 5888SOL     OW19531   7.127   5.604   2.847  0.2123 -0.1026  0.0599
 5888SOL    HW119532   7.065   5.570   2.783 -0.5706  1.3336  0.0168
 5888SOL    HW219533   7.155   5.688   2.810 -0.1447  0.6809  1.5041
 5889SOL     OW19534   1.698   4.778   3.598  0.5789 -0.0592  0.6218
 5889SOL    HW119535   1.620   4.827   3.570  0.3407  0.1686  1.6648
 5889SOL    HW219536   1.677   4.747   3.686  1.6266 -0.0838  0.8712
 5890SOL     OW19537   5.645   5.480   2.270  0.4265 -0.0946  0.4296
 5890SOL    HW119538   5.711   5.532   2.316  0.5734  1.2519 -1.1842
 5890SOL    HW219539   5.618   5.536   2.197  0.3655 -2.1932 -1.2331
 5891SOL     OW19540   5.354   0.115   2.796  0.5594 -0.0256  0.3805
 5891SOL    HW119541   5.410   0.059   2.849  1.8953  0.3795 -0.5491
 5891SOL    HW219542   5.385   0.204   2.815  0.5632  0.1690 -0.5203
 5892SOL     OW19543   5.528   0.435   2.227 -0.1063 -0.4103 -0.5135
 5892SOL    HW119544   5.501   0.431   2.135  2.0118 -1.2968 -1.1565
 5892SOL    HW219545   5.599   0.500   2.228 -0.8937  0.4576  0.7364
 5893SOL     OW19546   6.299   0.997   2.179  0.2486  0.1096 -0.2685
 5893SOL    HW119547   6.385   1.037   2.163  0.1958  0.2245 -0.2685
 5893SOL    HW219548   6.273   0.964   2.093  0.4606 -0.2611 -0.1928
 5894SOL     OW19549   4.831   6.087   4.924  0.2975 -0.1099  0.0532
 5894SOL    HW119550   4.778   6.137   4.986 -0.1492 -1.3456  0.6948
 5894SOL    HW219551   4.850   6.005   4.969  0.2827 -0.8812 -1.2949
 5895SOL     OW19552   8.438   2.684   1.284 -0.4714  0.3983 -0.2235
 5895SOL    HW119553   8.373   2.619   1.258 -0.2311  0.2226 -0.3861
 5895SOL    HW219554   8.469   2.654   1.370  1.3038 -0.9832 -1.2891
 5896SOL     OW19555   8.550   2.914   3.928  0.2636 -0.2595  0.1910
 5896SOL    HW119556   8.498   2.944   4.003 -0.2132 -1.0433  0.1845
 5896SOL    HW219557   8.487   2.907   3.857  0.3654 -1.2669  0.1958
 5897SOL     OW19558   0.413   0.383   8.615  0.0065 -0.0901  0.1250
 5897SOL    HW119559   0.439   0.412   8.527  2.6574  2.5476  1.5719
 5897SOL    HW219560   0.320   0.403   8.621  0.0170  0.7024 -1.7376
 5898SOL     OW19561   0.828   2.658   8.328 -0.2585  0.1936  0.1611
 5898SOL    HW119562   0.830   2.682   8.421  0.7908 -2.0926  0.8170
 5898SOL    HW219563   0.822   2.741   8.281 -2.0626  1.3661  2.2833
 5899SOL     OW19564   6.813   5.381   2.871  0.0409 -0.2893 -0.0429
 5899SOL    HW119565   6.858   5.339   2.945 -0.0094  1.1454  0.8407
 5899SOL    HW219566   6.878   5.440   2.834 -0.8362  1.2574  0.7862
 5900SOL     OW19567   3.831   3.404   4.267 -0.2421  0.0615 -0.2186
 5900SOL    HW119568   3.910   3.407   4.322 -0.8917 -0.6970  0.7808
 5900SOL    HW219569   3.857   3.448   4.186  1.3711 -0.6542 -0.1189
 5901SOL     OW19570   3.015   2.470   2.241  0.8277  0.1242 -0.8268
 5901SOL    HW119571   2.955   2.464   2.167 -0.5129  1.1299  0.1195
 5901SOL    HW219572   2.976   2.414   2.308  1.0407  0.6432 -0.2585
 5902SOL     OW19573   6.659   7.148   2.446 -0.6364 -0.4256  0.2514
 5902SOL    HW119574   6.607   7.205   2.389 -0.0304 -0.5994 -0.4868
 5902SOL    HW219575   6.691   7.206   2.515 -0.8113 -0.0630  0.0305
 5903SOL     OW19576   2.635   5.697   3.985 -0.3125 -0.5140 -0.0313
 5903SOL    HW119577   2.614   5.660   4.071 -1.2015 -0.3497 -0.1656
 5903SOL    HW219578   2.554   5.689   3.935  0.2808 -0.8559 -0.9517
 5904SOL     OW19579   6.896   3.983   7.209  0.1775 -0.0102 -0.1782
 5904SOL    HW119580   6.925   3.978   7.118  3.6423  2.8940  0.5434
 5904SOL    HW219581   6.823   4.045   7.208 -0.4941 -0.7834 -1.0394
 5905SOL     OW19582   3.469   3.087   4.356  0.0899 -0.1233  0.1381
 5905SOL    HW119583   3.486   3.136   4.437 -0.3649  0.4523 -0.1093
 5905SOL    HW219584   3.554   3.052   4.330  0.0494 -1.3661  1.5373
 5906SOL     OW19585   1.793   1.921   0.888  0.3776  0.0671 -0.2013
 5906SOL    HW119586   1.821   1.855   0.825  0.7057 -0.1671  0.1797
 5906SOL    HW219587   1.869   1.978   0.898 -0.4688  1.5529 -1.8305
 5907SOL     OW19588   2.146   7.112   8.627 -0.3693  0.5913 -0.0685
 5907SOL    HW119589   2.085   7.176   8.664 -1.3438  0.3210 -1.1720
 5907SOL    HW219590   2.115   7.098   8.538  1.4630  0.6313 -0.7580
 5908SOL     OW19591   2.504   2.946   3.604 -0.0889 -0.0363  0.1446
 5908SOL    HW119592   2.538   2.875   3.659 -0.4119 -0.8864 -0.7355
 5908SOL    HW219593   2.521   2.918   3.514 -0.7789  0.7168 -0.2391
 5909SOL     OW19594   7.418   6.027   6.691 -0.0825  0.2900 -0.0453
 5909SOL    HW119595   7.446   6.104   6.740  1.5641  0.7249 -1.5793
 5909SOL    HW219596   7.398   6.060   6.604 -0.1459 -0.8922 -0.4935
 5910SOL     OW19597   4.611   3.088   6.434  0.8825 -0.2687  0.2566
 5910SOL    HW119598   4.550   3.123   6.370  0.8513  0.2394  0.5573
 5910SOL    HW219599   4.687   3.146   6.430  2.0562 -1.8105 -1.2494
 5911SOL     OW19600   2.703   8.652   5.029 -0.3122  0.8294 -0.0090
 5911SOL    HW119601   2.687   8.746   5.020  0.8911  0.9451 -1.2961
 5911SOL    HW219602   2.688   8.616   4.941  3.4181  0.5578 -0.7128
 5912SOL     OW19603   7.625   0.890   8.825 -0.1333  0.0927  0.3704
 5912SOL    HW119604   7.535   0.860   8.836 -0.3943  0.4684 -0.6289
 5912SOL    HW219605   7.678   0.824   8.871 -0.9474  0.2701  1.6233
 5913SOL     OW19606   5.983   2.771   1.649  0.8618 -0.0129 -0.0612
 5913SOL    HW119607   6.069   2.813   1.640  1.0009 -0.0297  1.0496
 5913SOL    HW219608   5.955   2.754   1.559  1.9750  0.0849 -0.4407
 5914SOL     OW19609   6.870   3.573   5.193 -0.0177 -0.1639 -0.1402
 5914SOL    HW119610   6.854   3.496   5.138 -2.5508 -0.1980  0.5377
 5914SOL    HW219611   6.905   3.538   5.275 -0.7717 -0.5713  0.0122
 5915SOL     OW19612   1.817   3.133   5.570 -0.3144  0.6514 -0.1099
 5915SOL    HW119613   1.841   3.192   5.499 -1.5450  0.4782 -0.6969
 5915SOL    HW219614   1.770   3.188   5.633  0.2016  0.6682  0.2719
 5916SOL     OW19615   4.018   1.126   1.035 -0.7662  0.3928 -0.1762
 5916SOL    HW119616   4.046   1.190   1.101 -0.7090  0.7702 -0.5616
 5916SOL    HW219617   4.097   1.078   1.013 -0.8981 -0.1150  0.4394
 5917SOL     OW19618   3.013   1.680   5.163  0.6583 -0.2015  0.2797
 5917SOL    HW119619   2.923   1.682   5.133  1.0847  1.5502 -1.0517
 5917SOL    HW219620   3.007   1.674   5.259 -0.8870  1.0290  0.2816
 5918SOL     OW19621   2.543   0.239   5.551  0.2698  0.1701 -0.2016
 5918SOL    HW119622   2.516   0.175   5.485  1.6465 -0.4612 -0.1839
 5918SOL    HW219623   2.572   0.185   5.625  0.6687  0.8308  0.1293
 5919SOL     OW19624   4.297   0.372   8.818 -0.3459 -0.0253  0.1032
 5919SOL    HW119625   4.237   0.314   8.772 -0.5461  0.2406  0.0287
 5919SOL    HW219626   4.380   0.324   8.819 -0.6827 -0.6199  0.6642
 5920SOL     OW19627   4.137   6.655   6.979  0.0797 -0.1185  0.2493
 5920SOL    HW119628   4.092   6.579   7.016  1.1110 -1.0147 -0.2556
 5920SOL    HW219629   4.091   6.674   6.898  0.4928 -0.9366 -0.1925
 5921SOL     OW19630   5.602   2.976   3.984 -0.0681 -0.7741  0.7724
 5921SOL    HW119631   5.639   2.888   3.978  1.1396 -0.3172  1.1238
 5921SOL    HW219632   5.676   3.034   3.968 -1.0899  0.1875 -0.6475
 5922SOL     OW19633   0.793   7.133   0.357 -0.1820  0.4301 -0.0250
 5922SOL    HW119634   0.799   7.225   0.331 -0.4081  0.4776  0.0957
 5922SOL    HW219635   0.707   7.105   0.326 -0.7651  0.6881  1.3271
 5923SOL     OW19636   8.639   1.609   0.585  0.4929  0.2423  0.4296
 5923SOL    HW119637   8.582   1.680   0.555  0.0099 -0.1631  0.3681
 5923SOL    HW219638   8.715   1.612   0.526 -0.0175  0.0383 -0.2545
 5924SOL     OW19639   3.893   0.790   6.731 -0.1427 -0.0279 -0.4132
 5924SOL    HW119640   3.839   0.768   6.655 -0.6798  1.4716 -0.4954
 5924SOL    HW219641   3.961   0.848   6.697  0.2034 -0.1389  0.0785
 5925SOL     OW19642   3.314   4.296   8.928  0.3014  0.3538 -0.0349
 5925SOL    HW119643   3.295   4.257   9.013  0.7076  0.1132 -0.0490
 5925SOL    HW219644   3.236   4.280   8.876  0.0046  0.6095  0.3324
 5926SOL     OW19645   8.644   6.665   5.256 -0.0442  0.2687  0.2430
 5926SOL    HW119646   8.685   6.723   5.192  0.0211 -1.3872 -1.3263
 5926SOL    HW219647   8.573   6.623   5.207 -0.2561 -0.7586  1.3903
 5927SOL     OW19648   8.529   7.713   3.420 -0.1003 -0.2967  0.1022
 5927SOL    HW119649   8.533   7.749   3.332  1.5219  0.2788  0.3858
 5927SOL    HW219650   8.529   7.790   3.478  1.4348 -0.6721  0.6555
 5928SOL     OW19651   7.347   2.327   6.871 -0.0733 -0.0570 -0.2762
 5928SOL    HW119652   7.295   2.403   6.844 -1.1844  0.1964  2.3413
 5928SOL    HW219653   7.294   2.283   6.937  2.8114 -0.0081  2.3314
 5929SOL     OW19654   0.706   6.065   4.767 -0.7823 -0.1808 -0.1995
 5929SOL    HW119655   0.791   6.097   4.738 -1.0571  0.9682  0.1955
 5929SOL    HW219656   0.725   5.984   4.813  0.1380  0.1932  0.1029
 5930SOL     OW19657   7.663   0.134   0.241  0.2309 -0.6845  0.5807
 5930SOL    HW119658   7.589   0.074   0.232  1.3875 -2.1124 -0.0332
 5930SOL    HW219659   7.738   0.084   0.207  1.3257  1.0024  0.3820
 5931SOL     OW19660   0.233   2.607   3.429 -0.1628 -0.1371 -0.0264
 5931SOL    HW119661   0.202   2.697   3.415 -1.8637 -0.7397 -0.4009
 5931SOL    HW219662   0.156   2.553   3.412  0.3443 -1.5698  1.9250
 5932SOL     OW19663   2.067   4.611   2.582 -0.6814 -0.5707 -0.3216
 5932SOL    HW119664   2.140   4.571   2.630  0.2936  0.0288 -1.2630
 5932SOL    HW219665   2.101   4.623   2.493 -1.7665  0.1809 -0.6478
 5933SOL     OW19666   5.695   3.856   6.735 -0.2028 -0.3941  0.9278
 5933SOL    HW119667   5.763   3.856   6.667  0.3208  1.3587  1.3966
 5933SOL    HW219668   5.639   3.782   6.713  1.5707 -1.5937  0.2257
 5934SOL     OW19669   6.052   8.642   2.807 -0.3449 -0.3974 -0.7217
 5934SOL    HW119670   6.102   8.597   2.739  2.1830  1.5730 -0.2853
 5934SOL    HW219671   6.058   8.735   2.785 -1.8077  0.0898  0.7157
 5935SOL     OW19672   1.119   2.595   3.457 -0.2543  0.0993 -0.1902
 5935SOL    HW119673   1.050   2.594   3.524  0.3510 -0.6674  0.4513
 5935SOL    HW219674   1.156   2.507   3.460 -1.6976 -0.7285 -3.1498
 5936SOL     OW19675   6.245   7.215   1.480  0.0696  0.5378  0.3860
 5936SOL    HW119676   6.294   7.231   1.400  1.7300  1.8626  1.5863
 5936SOL    HW219677   6.255   7.121   1.497 -0.4779  0.2012 -1.0151
 5937SOL     OW19678   4.614   8.349   6.369 -0.6694  0.6289 -0.1161
 5937SOL    HW119679   4.671   8.333   6.445  0.3745  0.9599 -0.8039
 5937SOL    HW219680   4.526   8.328   6.400  0.2000 -4.2251 -0.2689
 5938SOL     OW19681   3.339   5.548   2.680 -0.2440 -0.1725  0.0362
 5938SOL    HW119682   3.286   5.497   2.741  0.0020 -0.4949 -0.0188
 5938SOL    HW219683   3.428   5.545   2.717 -0.3970  1.0038  0.5436
 5939SOL     OW19684   0.789   2.719   1.466 -0.7393 -0.1299 -0.2976
 5939SOL    HW119685   0.818   2.654   1.401 -0.1664  1.0703 -1.2901
 5939SOL    HW219686   0.810   2.679   1.550  1.3203 -0.5172 -0.9173
 5940SOL     OW19687   4.202   0.687   2.083 -0.5158  0.1866  0.1300
 5940SOL    HW119688   4.185   0.781   2.080 -0.9596  0.2410  2.4369
 5940SOL    HW219689   4.124   0.647   2.044  0.2410  0.7301 -2.1269
 5941SOL     OW19690   0.094   1.455   5.476 -0.2253  0.2818 -0.2515
 5941SOL    HW119691   0.083   1.404   5.556 -1.0415 -1.6777 -1.5303
 5941SOL    HW219692   0.039   1.533   5.490 -0.0045  0.2031  1.2383
 5942SOL     OW19693   1.615   5.512   7.336  0.1723  0.1860 -0.5711
 5942SOL    HW119694   1.685   5.508   7.401 -0.3100 -0.1334 -0.0696
 5942SOL    HW219695   1.608   5.422   7.303 -1.7432 -0.4179  1.2520
 5943SOL     OW19696   0.021   7.147   0.890 -0.2669  0.0943 -0.0528
 5943SOL    HW119697   0.048   7.135   0.799 -3.4570 -1.2707 -0.9767
 5943SOL    HW219698  -0.004   7.060   0.920 -0.1057  0.6476  1.8814
 5944SOL     OW19699   4.690   7.673   8.954  0.0895  0.6197 -0.4081
 5944SOL    HW119700   4.620   7.623   8.912  0.5174  0.5534 -1.0624
 5944SOL    HW219701   4.646   7.750   8.989 -0.2052  0.9475 -1.4565
 5945SOL     OW19702   3.389   5.514   5.909  0.4569  0.3906 -0.7808
 5945SOL    HW119703   3.331   5.519   5.985  1.9634 -0.5602  0.5050
 5945SOL    HW219704   3.364   5.433   5.864  0.7832 -0.0319 -0.2121
 5946SOL     OW19705   0.964   3.501   7.088 -0.1572  0.3853 -0.2232
 5946SOL    HW119706   1.043   3.507   7.034 -0.1660  0.5268 -0.2221
 5946SOL    HW219707   0.898   3.464   7.030 -0.2448  0.8077 -0.3965
 5947SOL     OW19708   1.162   0.712   0.760 -0.2308  0.3970 -0.2875
 5947SOL    HW119709   1.206   0.657   0.825  2.9645  0.1141 -2.5156
 5947SOL    HW219710   1.186   0.801   0.784 -0.8482  0.4760  0.0897
 5948SOL     OW19711   2.728   3.507   1.881 -0.0259  0.1807  0.3772
 5948SOL    HW119712   2.752   3.467   1.965  3.4848  0.8757 -0.1383
 5948SOL    HW219713   2.803   3.490   1.825 -0.4535  3.3088 -1.3442
 5949SOL     OW19714   0.205   7.210   4.752  1.0638 -0.3851 -0.6262
 5949SOL    HW119715   0.248   7.284   4.709  0.2129  1.7402  1.9083
 5949SOL    HW219716   0.114   7.213   4.721  1.1870 -0.8158 -1.0394
 5950SOL     OW19717   3.805   4.956   5.946 -0.1905  0.3445 -0.3657
 5950SOL    HW119718   3.883   4.949   6.002 -0.4207  0.2254 -0.0551
 5950SOL    HW219719   3.756   4.875   5.964 -2.1390  1.9331  2.1019
 5951SOL     OW19720   5.139   2.433   6.342  0.0015  0.3073 -0.1614
 5951SOL    HW119721   5.082   2.485   6.400 -0.5467  0.0134 -0.4315
 5951SOL    HW219722   5.086   2.419   6.264  0.1945 -0.5458 -0.1442
 5952SOL     OW19723   6.665   7.775   7.457  0.0885 -0.3292 -0.0718
 5952SOL    HW119724   6.646   7.816   7.541 -2.8251 -1.4614 -0.0443
 5952SOL    HW219725   6.702   7.690   7.479 -0.5154 -0.5548  0.1160
 5953SOL     OW19726   0.996   2.803   1.857  0.1720 -0.4322  0.1905
 5953SOL    HW119727   1.053   2.765   1.923  0.0327  1.5594  1.5192
 5953SOL    HW219728   1.040   2.883   1.829 -0.3927 -0.5753 -1.2319
 5954SOL     OW19729   4.246   3.327   2.063 -0.3597 -0.4542 -0.1125
 5954SOL    HW119730   4.298   3.270   2.007  1.9144  0.6007  0.7702
 5954SOL    HW219731   4.250   3.413   2.021  1.6450  0.4293  1.6805
 5955SOL     OW19732   2.997   6.837   2.619 -0.1268 -0.3675  0.1440
 5955SOL    HW119733   2.989   6.792   2.535  3.2634 -0.4640 -0.2539
 5955SOL    HW219734   2.983   6.768   2.684  1.7703 -1.3478 -0.4310
 5956SOL     OW19735   7.513   0.911   2.151 -0.1666  0.6087 -0.0333
 5956SOL    HW119736   7.529   0.853   2.226  0.2509  0.0444 -0.5530
 5956SOL    HW219737   7.578   0.980   2.161  1.4643 -0.7016 -1.1287
 5957SOL     OW19738   8.172   3.803   6.708  0.0902 -0.7132  0.1249
 5957SOL    HW119739   8.170   3.709   6.728 -2.3858 -0.5674  0.8825
 5957SOL    HW219740   8.229   3.840   6.775  0.5221 -1.5632  0.2546
 5958SOL     OW19741   1.619   6.498   4.800  0.1511  0.2012 -0.7327
 5958SOL    HW119742   1.639   6.440   4.873 -1.5355  2.0885  1.3859
 5958SOL    HW219743   1.665   6.580   4.821 -1.5215  1.2550 -0.9647
 5959SOL     OW19744   6.466   8.405   2.758  0.3770 -0.1021  0.0365
 5959SOL    HW119745   6.385   8.381   2.803  1.0932 -0.7980  0.9951
 5959SOL    HW219746   6.476   8.499   2.773  0.1510 -0.1643  0.5896
 5960SOL     OW19747   4.111   1.903   8.833  0.7990 -0.0676 -0.0273
 5960SOL    HW119748   4.069   1.818   8.822  1.4700 -0.3687 -0.3809
 5960SOL    HW219749   4.200   1.882   8.863  0.7600  0.5393  0.5381
 5961SOL     OW19750   2.773   3.360   6.318 -0.0603  0.2283 -0.1665
 5961SOL    HW119751   2.719   3.410   6.257 -2.0987 -2.1953 -0.4823
 5961SOL    HW219752   2.844   3.326   6.265 -2.4269 -2.8276 -1.6930
 5962SOL     OW19753   4.508   4.598   7.781  0.3012 -0.0178 -0.7859
 5962SOL    HW119754   4.522   4.693   7.777 -2.6544  0.4953 -1.1451
 5962SOL    HW219755   4.499   4.579   7.875  3.0240 -0.3872 -0.5339
 5963SOL     OW19756   6.028   8.816   4.159  0.0932  0.1767  0.4773
 5963SOL    HW119757   5.990   8.874   4.092  1.3475  1.7277  1.0586
 5963SOL    HW219758   5.985   8.732   4.144  0.5477  0.3597 -2.5120
 5964SOL     OW19759   8.868   2.193   5.210  0.2090  0.4659  0.4440
 5964SOL    HW119760   8.862   2.137   5.133  0.3115 -0.7295  1.2880
 5964SOL    HW219761   8.831   2.277   5.181  1.3831  0.4537 -1.2614
 5965SOL     OW19762   2.896   3.027   2.956 -0.0208 -0.4635  0.3775
 5965SOL    HW119763   2.972   2.977   2.988  1.9045  1.1184 -1.4479
 5965SOL    HW219764   2.925   3.064   2.873 -2.0665  1.9931  0.6371
 5966SOL     OW19765   4.869   1.528   5.162  0.3503 -0.3634  0.0841
 5966SOL    HW119766   4.961   1.505   5.170  0.5174 -0.3877 -1.5937
 5966SOL    HW219767   4.855   1.542   5.069 -0.8723  1.6995  0.5116
 5967SOL     OW19768   0.010   1.324   1.937  0.5967 -0.3103 -0.4917
 5967SOL    HW119769   0.016   1.348   1.844 -0.9713 -0.3143 -0.6194
 5967SOL    HW219770   0.001   1.407   1.983 -0.8155 -0.3987 -0.5659
 5968SOL     OW19771   6.806   0.926   1.483  0.0758  0.3642 -0.1315
 5968SOL    HW119772   6.784   1.014   1.513  2.5475  0.3358  2.0401
 5968SOL    HW219773   6.743   0.869   1.528 -0.3454  0.8560 -0.0868
 5969SOL     OW19774   1.399   1.271   6.201  0.1166 -0.1274 -0.0259
 5969SOL    HW119775   1.474   1.215   6.222  0.3087 -0.4787 -1.5605
 5969SOL    HW219776   1.406   1.344   6.263  0.9611 -0.8144  0.7275
 5970SOL     OW19777   4.689   8.850   4.333  0.2158 -0.6881  0.2016
 5970SOL    HW119778   4.780   8.865   4.307 -0.0468 -2.0985 -1.7731
 5970SOL    HW219779   4.644   8.831   4.251 -1.2216 -3.0329  1.4116
 5971SOL     OW19780   8.314   1.092   5.121  0.2796 -0.0517 -0.0741
 5971SOL    HW119781   8.224   1.122   5.127  0.0705 -0.6406 -0.2153
 5971SOL    HW219782   8.342   1.120   5.034  0.5503  0.9574  0.3112
 5972SOL     OW19783   8.842   0.950   8.834 -0.0118  0.7306  0.0314
 5972SOL    HW119784   8.783   1.025   8.828  0.2926  1.0075  0.4438
 5972SOL    HW219785   8.920   0.978   8.785  0.6870  1.2570  1.4031
 5973SOL     OW19786   1.480   5.871   1.429  0.6079 -0.3267  0.2008
 5973SOL    HW119787   1.424   5.896   1.502  1.2522 -0.3305  0.6995
 5973SOL    HW219788   1.503   5.953   1.387  1.7141 -0.1589  1.0978
 5974SOL     OW19789   7.209   2.419   8.707  0.1583  0.3350  0.1371
 5974SOL    HW119790   7.273   2.353   8.680 -1.1180 -0.6059 -0.6730
 5974SOL    HW219791   7.140   2.415   8.641 -1.5244  0.2057  1.8211
 5975SOL     OW19792   8.793   7.985   2.903  0.0862  0.2175 -0.2097
 5975SOL    HW119793   8.726   7.948   2.960  0.3264 -2.0880 -1.3055
 5975SOL    HW219794   8.744   8.035   2.837 -0.6753 -1.7757 -1.2424
 5976SOL     OW19795   1.098   4.553   1.614 -0.3127  0.3959  0.2799
 5976SOL    HW119796   1.124   4.462   1.627  0.3869  0.6667  0.8327
 5976SOL    HW219797   1.004   4.549   1.596 -0.2526 -0.4446  0.1253
 5977SOL     OW19798   5.733   5.806   3.113 -0.2057  0.2783 -0.1953
 5977SOL    HW119799   5.743   5.886   3.060  1.4268  0.6983  0.7006
 5977SOL    HW219800   5.722   5.838   3.202  0.9557 -0.4979  0.2379
 5978SOL     OW19801   3.559   8.447   0.456  0.9096 -0.3301 -0.3823
 5978SOL    HW119802   3.479   8.466   0.406  0.4208  0.4363  0.6501
 5978SOL    HW219803   3.574   8.527   0.507  2.9368 -0.0686 -1.3319
 5979SOL     OW19804   6.579   5.644   5.792  0.0082 -0.1718 -0.4439
 5979SOL    HW119805   6.541   5.714   5.739 -1.1360 -0.3459  0.1076
 5979SOL    HW219806   6.654   5.685   5.835 -0.1122  0.4657 -0.8205
 5980SOL     OW19807   8.106   1.265   5.063 -0.3430  0.0609  0.4729
 5980SOL    HW119808   8.178   1.276   5.001  0.6236  0.3051  1.5930
 5980SOL    HW219809   8.045   1.336   5.042 -0.7353 -0.7093 -1.0891
 5981SOL     OW19810   0.284   1.292   6.314  0.4774  0.8754 -0.2156
 5981SOL    HW119811   0.341   1.219   6.289  0.9014  1.6942 -1.7853
 5981SOL    HW219812   0.199   1.272   6.275  0.6821  1.3514 -0.9281
 5982SOL     OW19813   8.701   0.344   5.261  0.2931 -0.1498  0.0032
 5982SOL    HW119814   8.666   0.405   5.195  1.8765 -0.0208 -0.7616
 5982SOL    HW219815   8.724   0.400   5.335  0.3808 -0.0074 -0.1284
 5983SOL     OW19816   2.631   4.223   6.910  0.2092  0.1657 -0.4919
 5983SOL    HW119817   2.611   4.143   6.959 -1.7715  0.3863 -0.8582
 5983SOL    HW219818   2.668   4.282   6.974  1.7112 -1.0184 -0.2096
 5984SOL     OW19819   3.097   5.550   7.387  0.3455 -0.2799 -0.4002
 5984SOL    HW119820   3.055   5.546   7.301  0.0613  0.6821 -0.3173
 5984SOL    HW219821   3.076   5.466   7.427 -1.7464  0.2396 -0.2853
 5985SOL     OW19822   4.276   8.585   2.941  1.1722  0.0679 -0.4607
 5985SOL    HW119823   4.311   8.582   3.030 -0.1816  0.7401  0.1230
 5985SOL    HW219824   4.300   8.501   2.903 -0.5718 -1.3819  1.4709
 5986SOL     OW19825   2.757   3.323   1.075  0.1541  0.0352  0.0409
 5986SOL    HW119826   2.791   3.317   0.985  1.0384 -0.1458  0.3736
 5986SOL    HW219827   2.687   3.258   1.078  1.6218 -1.6399  0.1124
 5987SOL     OW19828   1.485   8.532   7.307  0.3530 -0.0281 -0.8705
 5987SOL    HW119829   1.456   8.561   7.393  0.6206  0.0915 -0.8189
 5987SOL    HW219830   1.405   8.524   7.256 -0.1298 -2.6574  0.1337
 5988SOL     OW19831   5.921   0.049   6.146 -0.4050 -0.7274  0.1337
 5988SOL    HW119832   5.969   0.122   6.108  0.5717 -1.6504 -0.4544
 5988SOL    HW219833   5.912   0.071   6.238 -0.4335  0.2883 -0.1067
 5989SOL     OW19834   0.328   6.313   0.114  0.4553  0.6662  0.7126
 5989SOL    HW119835   0.337   6.235   0.059 -2.8756 -0.0579  0.9596
 5989SOL    HW219836   0.282   6.376   0.058 -0.3945  0.9573  1.7047
 5990SOL     OW19837   4.479   3.649   2.028  0.8891 -0.5267  0.2224
 5990SOL    HW119838   4.498   3.736   1.993 -1.6190  0.4099  0.9719
 5990SOL    HW219839   4.466   3.663   2.122  0.4853 -1.7009  0.3605
 5991SOL     OW19840   1.299   5.625   5.582  0.1327  0.1598 -0.2211
 5991SOL    HW119841   1.379   5.602   5.534  1.5435  1.4319  1.3928
 5991SOL    HW219842   1.252   5.684   5.522  1.1782  0.6447 -0.5944
 5992SOL     OW19843   3.575   4.827   7.396  0.2103  0.0550 -0.2891
 5992SOL    HW119844   3.557   4.805   7.305 -0.9009 -1.5319  0.2680
 5992SOL    HW219845   3.625   4.752   7.430 -1.1580 -0.3616  0.9147
 5993SOL     OW19846   6.296   0.604   8.884  0.1582 -0.7507  0.0370
 5993SOL    HW119847   6.348   0.524   8.886 -0.1081 -0.9582 -0.7723
 5993SOL    HW219848   6.293   0.628   8.791  1.4206  0.9826  0.3771
 5994SOL     OW19849   6.866   2.948   4.844 -0.8985  0.7000 -0.0714
 5994SOL    HW119850   6.900   2.966   4.932  1.2199 -0.5538 -0.5671
 5994SOL    HW219851   6.908   3.013   4.788 -0.8027  0.3376 -0.4274
 5995SOL     OW19852   0.791   8.174   8.949  0.4205  0.5547 -0.7455
 5995SOL    HW119853   0.857   8.185   8.881 -0.0581 -0.7964 -1.4589
 5995SOL    HW219854   0.839   8.138   9.023  0.3994 -1.0467 -1.4831
 5996SOL     OW19855   6.896   5.662   1.445  1.0019  0.4354 -0.5802
 5996SOL    HW119856   6.963   5.727   1.426 -0.1575  1.7130 -0.4358
 5996SOL    HW219857   6.814   5.710   1.439  0.2382 -0.4235  1.9396
 5997SOL     OW19858   1.339   8.981   8.597 -0.3723  0.3714  0.1488
 5997SOL    HW119859   1.429   8.956   8.579 -0.3359  1.1134 -0.8095
 5997SOL    HW219860   1.326   9.061   8.546 -1.5567  0.2999  0.3069
 5998SOL     OW19861   8.808   0.522   4.086 -0.1715  0.1286 -0.1956
 5998SOL    HW119862   8.852   0.606   4.068 -0.1069 -0.0135 -0.7421
 5998SOL    HW219863   8.738   0.544   4.147 -0.1980  0.5984 -0.3870
 5999SOL     OW19864   4.243   8.729   0.843 -0.0950  0.1503  0.5289
 5999SOL    HW119865   4.241   8.823   0.829 -0.2501  0.0813  0.0633
 5999SOL    HW219866   4.193   8.692   0.770 -0.0282 -0.2912  0.6987
 6000SOL     OW19867   1.521   7.377   2.080  0.1026  0.0023 -0.4413
 6000SOL    HW119868   1.523   7.282   2.068  2.0475 -0.1324  0.6917
 6000SOL    HW219869   1.610   7.406   2.061 -0.9364  1.9371 -2.9289
 6001SOL     OW19870   2.225   0.042   1.425  0.6219 -0.3712 -0.3636
 6001SOL    HW119871   2.165   0.116   1.430  0.5873 -0.2584 -1.9972
 6001SOL    HW219872   2.170  -0.034   1.445  0.3692 -0.0913  0.0298
 6002SOL     OW19873   5.932   4.775   8.709  0.0983 -0.3378  0.1829
 6002SOL    HW119874   5.876   4.747   8.637  1.4150 -1.1255 -0.5888
 6002SOL    HW219875   5.962   4.694   8.749 -0.5635  0.0924  1.6070
 6003SOL     OW19876   5.469   6.496   8.659  0.1318 -0.0996  0.0270
 6003SOL    HW119877   5.502   6.422   8.609 -0.0217 -1.6068  2.0210
 6003SOL    HW219878   5.504   6.573   8.614  0.3877 -1.3632 -2.0431
 6004SOL     OW19879   6.755   1.229   7.331 -0.0840 -0.2093 -0.6834
 6004SOL    HW119880   6.817   1.224   7.258  0.0640 -0.9820 -0.5097
 6004SOL    HW219881   6.808   1.261   7.405  0.7924 -3.1959  0.1477
 6005SOL     OW19882   6.060   2.055   5.018 -0.4726 -0.6809  0.1911
 6005SOL    HW119883   6.055   2.149   5.000 -1.5133 -0.4352  1.6103
 6005SOL    HW219884   6.060   2.049   5.114 -1.8395 -2.1768  0.1413
 6006SOL     OW19885   7.363   5.805   7.720  0.0337  0.4097 -0.0558
 6006SOL    HW119886   7.341   5.713   7.738  0.1563  0.4979  0.5609
 6006SOL    HW219887   7.386   5.841   7.805  1.3661  0.6545 -0.5078
 6007SOL     OW19888   5.289   0.583   1.674  0.1810  0.4815 -0.1153
 6007SOL    HW119889   5.309   0.673   1.648 -1.5543  0.8974 -0.1937
 6007SOL    HW219890   5.238   0.593   1.755 -1.6310 -0.2574 -1.0927
 6008SOL     OW19891   5.035   7.198   4.239  0.6510  0.2273  0.4028
 6008SOL    HW119892   4.980   7.238   4.306  1.0248  0.0308  0.8294
 6008SOL    HW219893   5.114   7.172   4.285  1.0810  0.4568 -0.1969
 6009SOL     OW19894   1.136   5.917   7.698  0.4591 -0.3632 -0.4409
 6009SOL    HW119895   1.107   5.983   7.761 -1.2213  0.0121 -1.5324
 6009SOL    HW219896   1.223   5.891   7.728 -0.1207  0.0617  1.7985
 6010SOL     OW19897   2.849   3.609   6.937 -0.0266 -0.9403 -0.2256
 6010SOL    HW119898   2.783   3.602   6.868 -0.2326  1.0504 -0.2924
 6010SOL    HW219899   2.814   3.675   6.997  0.9570 -1.3572  0.8441
 6011SOL     OW19900   3.719   5.291   6.503  0.0167  0.3148  0.1702
 6011SOL    HW119901   3.662   5.243   6.563 -0.0610  0.9372  0.6043
 6011SOL    HW219902   3.768   5.223   6.457  1.0318 -0.1621  1.8609
 6012SOL     OW19903   7.963   4.032   3.689 -0.2556  0.1709 -0.0198
 6012SOL    HW119904   7.968   3.951   3.738 -1.2805 -0.6613 -1.2318
 6012SOL    HW219905   7.893   4.082   3.731 -1.4615 -0.7425 -0.8723
 6013SOL     OW19906   2.239   6.609   7.702  0.1396  0.1398 -0.1877
 6013SOL    HW119907   2.315   6.663   7.723 -0.4009  0.7244  0.2787
 6013SOL    HW219908   2.219   6.631   7.611 -0.0824  0.7307  0.0044
 6014SOL     OW19909   7.061   7.324   1.231 -0.1302  0.6615 -0.5540
 6014SOL    HW119910   7.133   7.316   1.168 -0.8188  0.8970 -1.3888
 6014SOL    HW219911   6.987   7.355   1.179 -0.0495  3.4713  0.8138
 6015SOL     OW19912   7.160   8.411   1.709 -0.5121  0.9005  0.3302
 6015SOL    HW119913   7.070   8.436   1.688 -0.3420  0.1488 -1.4923
 6015SOL    HW219914   7.196   8.381   1.626  1.4256  1.1493  1.0324
 6016SOL     OW19915   1.575   6.283   5.701  0.4293 -0.1803 -0.3684
 6016SOL    HW119916   1.487   6.303   5.668 -0.6598 -2.0910  1.1862
 6016SOL    HW219917   1.583   6.336   5.780 -0.2741 -1.6535  0.7327
 6017SOL     OW19918   1.774   5.473   7.574 -0.1759  0.6180  0.6160
 6017SOL    HW119919   1.850   5.518   7.612 -0.1346  0.1557  1.0898
 6017SOL    HW219920   1.756   5.401   7.635  1.0978 -1.3541 -1.1860
 6018SOL     OW19921   6.770   2.988   5.349 -0.4556  0.4088 -0.1030
 6018SOL    HW119922   6.767   3.007   5.443  1.7942 -1.5911  0.4699
 6018SOL    HW219923   6.797   2.897   5.344  0.1160  0.6458 -2.7189
 6019SOL     OW19924   0.200   6.471   7.797 -0.0773 -1.0072 -0.3045
 6019SOL    HW119925   0.276   6.419   7.820  1.1556  1.1326  0.8314
 6019SOL    HW219926   0.219   6.506   7.710  0.7090  0.2148  0.3244
 6020SOL     OW19927   4.250   8.768   7.532  0.6126  0.1320 -0.2058
 6020SOL    HW119928   4.178   8.727   7.484  1.1087 -0.0986 -0.7579
 6020SOL    HW219929   4.257   8.856   7.494  1.1268 -0.1141 -0.6964
 6021SOL     OW19930   1.502   4.195   4.277 -0.0025 -0.0315 -0.0165
 6021SOL    HW119931   1.513   4.290   4.266  1.0654 -0.1794 -0.3818
 6021SOL    HW219932   1.447   4.169   4.204 -1.9938  0.5795  1.1981
 6022SOL     OW19933   3.534   7.135   3.408  0.0730 -0.6782  0.3486
 6022SOL    HW119934   3.512   7.191   3.333 -2.8975 -2.0129  0.0752
 6022SOL    HW219935   3.468   7.156   3.474  0.4654 -2.0078  1.2142
 6023SOL     OW19936   4.365   7.334   1.713  0.0457  0.2162  0.1302
 6023SOL    HW119937   4.281   7.310   1.751  0.7307 -0.8197  1.0766
 6023SOL    HW219938   4.350   7.333   1.619 -1.5293  2.2149  0.2971
 6024SOL     OW19939   5.152   4.997   8.523  0.2637  1.1185 -0.1932
 6024SOL    HW119940   5.233   4.985   8.473 -0.8303 -0.1926 -1.7583
 6024SOL    HW219941   5.136   5.092   8.519  1.1715  1.2630 -0.7618
 6025SOL     OW19942   0.437   1.655   0.845 -0.5832  0.5775  0.3147
 6025SOL    HW119943   0.455   1.575   0.796 -1.2138  0.8799 -0.4410
 6025SOL    HW219944   0.412   1.626   0.932  1.0226  0.0448  0.6136
 6026SOL     OW19945   6.221   0.467   6.494  0.2493 -0.0880  0.1069
 6026SOL    HW119946   6.296   0.520   6.520  1.9455 -1.6189 -1.4008
 6026SOL    HW219947   6.148   0.502   6.545  2.0647  1.1578  2.0147
 6027SOL     OW19948   3.783   5.357   6.793  0.3674  0.6358 -0.7085
 6027SOL    HW119949   3.866   5.402   6.807  0.0635  1.0140 -0.0801
 6027SOL    HW219950   3.724   5.425   6.762  0.0546  0.5518 -0.2974
 6028SOL     OW19951   2.556   3.953   8.019  0.4217  0.6403 -0.2939
 6028SOL    HW119952   2.583   3.963   7.928  1.6587  0.2744  0.0075
 6028SOL    HW219953   2.550   4.042   8.053 -1.2340  0.8493 -1.0312
 6029SOL     OW19954   8.063   5.366   1.102  0.1916 -0.3666  0.3674
 6029SOL    HW119955   8.000   5.419   1.054  0.4946 -0.4547 -0.1318
 6029SOL    HW219956   8.018   5.343   1.183 -0.2078  0.0432  0.2658
 6030SOL     OW19957   5.975   6.023   5.855 -0.3522 -0.8804 -0.2248
 6030SOL    HW119958   6.008   6.089   5.794  0.1961  1.3364  2.3142
 6030SOL    HW219959   5.880   6.025   5.843 -0.2773 -0.3145 -0.8012
 6031SOL     OW19960   7.561   0.951   1.445 -0.2470 -0.2164  0.7762
 6031SOL    HW119961   7.630   1.018   1.437 -0.1515 -0.2777  1.0929
 6031SOL    HW219962   7.522   0.947   1.357 -0.3790  0.3889  0.8034
 6032SOL     OW19963   4.364   2.448   4.141  0.6602 -0.2105  0.1562
 6032SOL    HW119964   4.409   2.526   4.172  1.3358 -0.6403  0.2920
 6032SOL    HW219965   4.359   2.391   4.219  0.5648 -0.4757 -0.0407
 6033SOL     OW19966   7.330   0.580   4.292  0.4861  0.2231 -0.2453
 6033SOL    HW119967   7.341   0.494   4.252  0.4329  0.9760 -2.0082
 6033SOL    HW219968   7.237   0.601   4.277  0.4959  0.5800  0.1776
 6034SOL     OW19969   1.252   4.402   0.546  0.2187  0.0651  0.4161
 6034SOL    HW119970   1.284   4.489   0.567 -0.4500  0.3297  0.3354
 6034SOL    HW219971   1.191   4.415   0.474  0.6795 -0.5594 -0.1051
 6035SOL     OW19972   6.818   2.137   7.489 -0.0673  0.1796 -0.2694
 6035SOL    HW119973   6.814   2.225   7.527 -1.9411 -0.2743  0.7179
 6035SOL    HW219974   6.833   2.079   7.563 -0.3760 -0.4552 -0.6970
 6036SOL     OW19975   8.173   1.003   8.571 -0.4321  0.3922 -0.4637
 6036SOL    HW119976   8.088   1.014   8.614 -0.7516  0.2632 -1.0573
 6036SOL    HW219977   8.209   0.923   8.611 -0.4227  0.6462  0.0485
 6037SOL     OW19978   4.243   1.883   1.332 -0.0383 -0.8138  0.5650
 6037SOL    HW119979   4.311   1.944   1.305 -0.9816  0.1439  0.3084
 6037SOL    HW219980   4.196   1.929   1.402  0.6465 -2.1595  1.9834
 6038SOL     OW19981   1.844   3.157   6.265 -0.1902 -0.3047 -0.6858
 6038SOL    HW119982   1.814   3.219   6.199  0.0533 -1.5666 -2.0337
 6038SOL    HW219983   1.767   3.102   6.283 -1.1989  1.8602  2.4077
 6039SOL     OW19984   0.135   6.061   2.340  0.0729  0.0037 -0.0478
 6039SOL    HW119985   0.172   6.127   2.281  1.0795 -0.1302  0.4234
 6039SOL    HW219986   0.066   6.019   2.289  0.6819  0.1436 -0.9963
 6040SOL     OW19987   5.525   8.508   0.653 -0.7458 -0.0442 -0.2612
 6040SOL    HW119988   5.473   8.575   0.609 -0.2927  0.4849 -0.0048
 6040SOL    HW219989   5.560   8.454   0.582 -0.6542  0.3298 -0.5009
 6041SOL     OW19990   7.875   1.818   4.883  0.0524  0.0057  0.2914
 6041SOL    HW119991   7.858   1.909   4.862  1.2417  0.0654 -0.5481
 6041SOL    HW219992   7.910   1.820   4.973  2.3563  0.7058 -0.5393
 6042SOL     OW19993   0.591   0.228   5.471 -0.0703 -0.0147  0.1546
 6042SOL    HW119994   0.653   0.201   5.540 -0.0856  0.1252  0.2222
 6042SOL    HW219995   0.505   0.219   5.512 -0.2817 -2.5371 -0.6773
 6043SOL     OW19996   3.717   3.592   0.556 -0.2242  0.4182  0.5005
 6043SOL    HW119997   3.697   3.527   0.489  0.0077 -0.3012  1.1051
 6043SOL    HW219998   3.690   3.550   0.638 -2.4810  2.1099  0.6958
 6044SOL     OW19999   6.516   7.795   5.997  0.8619 -0.5697  0.3760
 6044SOL    HW120000   6.534   7.714   5.950  1.4889 -1.0093  1.3298
 6044SOL    HW220001   6.497   7.766   6.087  0.3418  0.2866  0.5494
 6045SOL     OW20002   0.769   3.921   6.564  0.4508  0.0658 -0.5437
 6045SOL    HW120003   0.719   3.936   6.484  1.8443 -0.3084 -1.5356
 6045SOL    HW220004   0.704   3.921   6.634 -0.5974  2.1941 -1.4438
 6046SOL     OW20005   0.253   1.478   4.096 -0.1693  0.4490  0.4705
 6046SOL    HW120006   0.277   1.388   4.117  0.1330  0.9663  2.5724
 6046SOL    HW220007   0.159   1.476   4.081  0.0205 -0.3960 -0.7347
 6047SOL     OW20008   4.467   3.837   5.699 -0.3425  0.2141 -0.2560
 6047SOL    HW120009   4.396   3.807   5.756 -1.2755  2.1107 -0.3346
 6047SOL    HW220010   4.427   3.842   5.612  0.5910 -0.9842 -0.7909
 6048SOL     OW20011   3.149   1.749   3.723 -0.1236 -0.5235  0.3400
 6048SOL    HW120012   3.108   1.751   3.809 -0.3451 -1.6653  0.2665
 6048SOL    HW220013   3.210   1.823   3.725 -1.0550  0.2510  0.9978
 6049SOL     OW20014   8.289   5.869   4.550  0.1785  0.2051 -0.2138
 6049SOL    HW120015   8.202   5.833   4.533  0.7764 -0.3460 -2.6084
 6049SOL    HW220016   8.275   5.963   4.552 -0.5568  0.1030 -0.0904
 6050SOL     OW20017   2.860   6.719   0.607 -0.0818 -0.9214  0.0727
 6050SOL    HW120018   2.789   6.730   0.671 -1.1696  0.4275 -1.3110
 6050SOL    HW220019   2.856   6.626   0.584 -0.9667 -1.0097  0.5019
 6051SOL     OW20020   2.930   8.667   3.314 -0.2650 -0.4760 -0.0041
 6051SOL    HW120021   2.978   8.706   3.240  0.3882  0.5572  0.9198
 6051SOL    HW220022   2.934   8.573   3.299  0.8590 -0.3350 -0.6884
 6052SOL     OW20023   2.011   6.240   2.092  0.5930  0.5174  0.2923
 6052SOL    HW120024   2.080   6.199   2.144 -0.3283 -0.9629  0.4129
 6052SOL    HW220025   1.980   6.171   2.033 -1.8009  0.6180  1.2905
 6053SOL     OW20026   6.968   5.207   3.050  0.3036  0.7214  0.5112
 6053SOL    HW120027   6.965   5.118   3.085  0.9672  1.1776  1.7746
 6053SOL    HW220028   6.945   5.263   3.125 -1.7303  1.5479 -0.6479
 6054SOL     OW20029   0.801   0.636   5.290  0.2601 -0.5005 -0.0438
 6054SOL    HW120030   0.790   0.713   5.346 -0.4017  0.1963 -1.0901
 6054SOL    HW220031   0.889   0.646   5.252  0.2384 -0.3406 -0.0526
 6055SOL     OW20032   5.155   4.908   7.402 -0.1802 -0.7561 -0.0179
 6055SOL    HW120033   5.237   4.867   7.429 -0.8416 -0.6643  2.2729
 6055SOL    HW220034   5.128   4.961   7.477 -1.0831  1.2325 -1.6399
 6056SOL     OW20035   4.614   4.307   8.675  0.3942  0.2818 -0.0958
 6056SOL    HW120036   4.632   4.266   8.759  0.3691  2.7467  1.2104
 6056SOL    HW220037   4.626   4.401   8.691 -0.1552  0.8823 -2.7089
 6057SOL     OW20038   5.262   0.295   4.732 -0.0832 -0.1384  0.7761
 6057SOL    HW120039   5.190   0.284   4.793 -1.2107  0.7954 -0.3301
 6057SOL    HW220040   5.260   0.388   4.709 -0.4730 -0.6716 -1.5787
 6058SOL     OW20041   0.561   7.555   1.007  0.6013  0.3855 -0.1260
 6058SOL    HW120042   0.509   7.474   1.007 -0.4012  1.0039 -1.1376
 6058SOL    HW220043   0.610   7.551   1.088 -0.5315 -0.5580  0.5535
 6059SOL     OW20044   6.278   7.463   0.612  0.6702  0.3417  0.2792
 6059SOL    HW120045   6.344   7.479   0.679 -0.4967 -0.3034  1.6487
 6059SOL    HW220046   6.202   7.513   0.640 -0.2184 -0.8418  0.0846
 6060SOL     OW20047   5.578   7.562   0.972 -0.1149  0.5035 -0.1399
 6060SOL    HW120048   5.490   7.596   0.956 -1.8584 -2.7816  1.4164
 6060SOL    HW220049   5.613   7.542   0.885 -1.3093  0.9710 -0.7476
 6061SOL     OW20050   4.758   4.862   5.203 -0.1893  0.4100 -0.3314
 6061SOL    HW120051   4.723   4.907   5.280  0.6802  0.5842 -0.0212
 6061SOL    HW220052   4.733   4.771   5.216  1.3179  0.1257  1.0256
 6062SOL     OW20053   7.045   4.669   3.811  0.2573  0.7157  0.3217
 6062SOL    HW120054   7.128   4.717   3.810 -0.5011  2.1781  2.2034
 6062SOL    HW220055   7.033   4.643   3.902 -1.5268  0.8556  0.1651
 6063SOL     OW20056   1.269   7.454   5.783  0.0659 -0.4216 -0.0152
 6063SOL    HW120057   1.271   7.491   5.695 -1.5167  0.6758  0.3659
 6063SOL    HW220058   1.345   7.493   5.827  0.2101 -0.0701 -0.5709
 6064SOL     OW20059   6.049   1.978   0.366 -0.4019  0.1518 -0.0745
 6064SOL    HW120060   6.028   1.942   0.280 -1.4538 -0.0372  0.2529
 6064SOL    HW220061   6.129   1.933   0.392 -1.7845 -2.1629  0.4185
 6065SOL     OW20062   4.062   4.821   7.077 -0.2183  0.4631  0.2674
 6065SOL    HW120063   4.020   4.758   7.018 -0.6085  0.7537  0.2340
 6065SOL    HW220064   3.990   4.872   7.113  0.0133  0.2449  1.0546
 6066SOL     OW20065   6.896   1.191   7.083  0.0302 -0.7785  0.7293
 6066SOL    HW120066   6.897   1.282   7.054 -0.6922 -0.7078  0.9218
 6066SOL    HW220067   6.816   1.154   7.046  1.1814 -1.8451 -0.8526
 6067SOL     OW20068   0.208   8.098   1.968  0.4965  0.7172  0.3936
 6067SOL    HW120069   0.293   8.066   1.937 -0.2755  0.2373 -1.3808
 6067SOL    HW220070   0.155   8.018   1.979 -0.5285  1.1500 -1.1353
 6068SOL     OW20071   4.388   0.142   4.902 -0.9755 -0.1164  0.0411
 6068SOL    HW120072   4.418   0.088   4.975 -0.1237  2.1451  1.4547
 6068SOL    HW220073   4.438   0.109   4.827  0.2396 -0.6863  1.0446
 6069SOL     OW20074   7.789   5.989   3.394  0.3437 -0.1063 -0.2242
 6069SOL    HW120075   7.745   6.015   3.313 -1.1326  1.8347  1.1163
 6069SOL    HW220076   7.790   5.894   3.391 -0.7928 -0.1161 -1.9277
 6070SOL     OW20077   5.982   6.252   7.184  0.5897  0.0132  0.0031
 6070SOL    HW120078   5.902   6.222   7.227  0.1579  1.6535  0.4191
 6070SOL    HW220079   5.954   6.323   7.127  1.7455  0.5640  0.0858
 6071SOL     OW20080   0.771   6.465   6.465  0.4124  0.5297 -0.0217
 6071SOL    HW120081   0.772   6.547   6.416 -0.3979  0.2261 -0.5647
 6071SOL    HW220082   0.776   6.492   6.557 -1.1970  1.2826 -0.1156
 6072SOL     OW20083   5.780   0.534   6.844 -0.3419 -0.4814  0.9428
 6072SOL    HW120084   5.795   0.591   6.768 -0.1727 -0.5622  0.9146
 6072SOL    HW220085   5.689   0.508   6.836  0.0486 -1.6388 -0.0350
 6073SOL     OW20086   5.189   3.040   8.293 -1.1461  0.3991 -0.6184
 6073SOL    HW120087   5.148   3.034   8.380 -0.2985  0.0444 -0.2300
 6073SOL    HW220088   5.199   3.134   8.278  0.3836  0.4412  0.4970
 6074SOL     OW20089   2.526   6.629   2.438  0.4324  0.3483 -0.2359
 6074SOL    HW120090   2.448   6.602   2.486  0.6258  1.1214  0.5287
 6074SOL    HW220091   2.595   6.569   2.468  0.8448  1.5904  1.4074
 6075SOL     OW20092   2.205   5.334   7.269 -0.3529  0.4899 -0.1999
 6075SOL    HW120093   2.229   5.347   7.177 -1.9602 -0.2771 -0.7780
 6075SOL    HW220094   2.181   5.421   7.300 -0.7089  0.6236 -0.8173
 6076SOL     OW20095   5.070   5.203   4.675 -0.2291  0.2682 -0.4820
 6076SOL    HW120096   5.042   5.117   4.706  1.3203 -0.1192 -0.0390
 6076SOL    HW220097   5.104   5.187   4.587  0.3300  0.3588 -0.2878
 6077SOL     OW20098   6.867   0.387   6.439  0.1006  0.1845  0.5231
 6077SOL    HW120099   6.847   0.345   6.523  1.2382 -0.8969  0.2839
 6077SOL    HW220100   6.944   0.441   6.457 -0.8521  1.5408  0.6260
 6078SOL     OW20101   4.323   1.858   6.538 -0.0251 -0.1595 -0.6043
 6078SOL    HW120102   4.237   1.897   6.544 -1.8243 -3.6080 -1.3479
 6078SOL    HW220103   4.349   1.870   6.447 -0.6872 -0.8555 -0.8958
 6079SOL     OW20104   4.724   8.283   7.951  0.4853  0.4261  0.6845
 6079SOL    HW120105   4.796   8.229   7.919 -1.0616 -1.4313  0.1888
 6079SOL    HW220106   4.650   8.260   7.895 -1.5198 -0.6115  3.5307
 6080SOL     OW20107   7.254   4.382   3.786 -0.2800 -0.1809  0.3644
 6080SOL    HW120108   7.313   4.327   3.838  1.9652  1.7732  0.0910
 6080SOL    HW220109   7.192   4.418   3.849 -0.0936 -0.9341  0.9884
 6081SOL     OW20110   6.293   7.978   0.329  0.0150  0.5021 -0.2517
 6081SOL    HW120111   6.273   8.062   0.370 -1.1798  0.1939 -0.1527
 6081SOL    HW220112   6.261   7.913   0.392  1.5424 -0.0675 -0.0013
 6082SOL     OW20113   2.327   5.120   5.278 -0.1976 -0.2526 -0.1321
 6082SOL    HW120114   2.379   5.077   5.210 -0.0900 -0.6653  0.2129
 6082SOL    HW220115   2.370   5.097   5.360 -0.5999 -0.1409  0.1133
 6083SOL     OW20116   3.746   7.093   1.220  0.4507 -0.3550 -0.2940
 6083SOL    HW120117   3.715   7.136   1.140 -2.2232 -2.1873 -0.3547
 6083SOL    HW220118   3.752   7.164   1.284 -2.6365  0.4351 -0.6970
 6084SOL     OW20119   6.718   5.758   3.358 -0.2432  0.0743 -0.7333
 6084SOL    HW120120   6.797   5.743   3.306 -0.0972  0.0259 -0.4961
 6084SOL    HW220121   6.749   5.803   3.437 -0.3741 -0.4619 -0.3715
 6085SOL     OW20122   4.424   6.047   1.716  0.2085 -0.0782  0.2658
 6085SOL    HW120123   4.471   6.050   1.633 -1.3402 -1.7875 -0.7344
 6085SOL    HW220124   4.376   5.965   1.714 -0.9406  0.4736  2.2830
 6086SOL     OW20125   7.356   7.428   0.397  0.0629  0.2695  0.5434
 6086SOL    HW120126   7.450   7.419   0.378  0.4106 -1.7277  2.6705
 6086SOL    HW220127   7.353   7.471   0.483 -0.8302 -0.9591  1.1724
 6087SOL     OW20128   5.777   6.458   3.505 -0.7492  0.4957  0.1090
 6087SOL    HW120129   5.729   6.471   3.586  0.9393  0.1523  1.2296
 6087SOL    HW220130   5.826   6.539   3.493 -1.5528  0.8399 -1.0028
 6088SOL     OW20131   6.699   0.638   0.605 -0.5289 -0.3220  0.3905
 6088SOL    HW120132   6.787   0.662   0.633  0.1849 -0.6155 -1.4517
 6088SOL    HW220133   6.703   0.543   0.593 -1.1019 -0.3373  0.2805
 6089SOL     OW20134   0.978   8.127   7.124 -0.6100  0.1442  0.0420
 6089SOL    HW120135   1.003   8.208   7.080 -0.9917 -0.1101 -0.6608
 6089SOL    HW220136   0.938   8.156   7.206  0.7393  0.5968  0.5681
 6090SOL     OW20137   0.902   3.682   1.520  0.0955  0.3621  0.2923
 6090SOL    HW120138   0.893   3.658   1.612  0.6651 -2.2516 -0.2575
 6090SOL    HW220139   0.982   3.733   1.516  0.3769  0.0128  1.1689
 6091SOL     OW20140   0.789   0.028   5.416 -1.2188  0.3954  0.0851
 6091SOL    HW120141   0.725  -0.020   5.470 -0.2232 -0.7547  0.2845
 6091SOL    HW220142   0.735   0.088   5.364 -2.4735 -0.5337  0.2430
 6092SOL     OW20143   1.686   6.717   6.462  0.4193 -0.2245  0.3958
 6092SOL    HW120144   1.622   6.706   6.391  1.1175 -0.8075 -0.1514
 6092SOL    HW220145   1.640   6.771   6.527  0.9194  3.4881 -2.0142
 6093SOL     OW20146   2.280   0.672   4.574 -0.0750 -0.1704  0.8465
 6093SOL    HW120147   2.226   0.742   4.611  0.5012 -0.3637  2.1338
 6093SOL    HW220148   2.365   0.714   4.557 -0.2865 -0.1249 -0.1470
 6094SOL     OW20149   7.250   1.453   2.119  0.8555  0.2653  0.7261
 6094SOL    HW120150   7.179   1.405   2.075  0.5217 -0.5034  2.0412
 6094SOL    HW220151   7.212   1.482   2.201  2.2793 -0.9284  1.8764
 6095SOL     OW20152   6.305   8.631   7.372  0.6485 -0.1654 -0.1595
 6095SOL    HW120153   6.348   8.711   7.401 -1.2032  1.2352 -1.0572
 6095SOL    HW220154   6.323   8.628   7.278  0.1640 -0.4455 -0.2436
 6096SOL     OW20155   6.671   1.873   5.093  0.5167  0.3241 -0.2144
 6096SOL    HW120156   6.694   1.944   5.151  0.9263 -0.7113  0.9300
 6096SOL    HW220157   6.744   1.866   5.032  1.2124 -0.0970  0.6425
 6097SOL     OW20158   6.655   5.333   6.554 -0.1968 -0.4079 -0.0810
 6097SOL    HW120159   6.733   5.389   6.563  0.3287 -1.1232 -0.1431
 6097SOL    HW220160   6.583   5.389   6.584  0.5968 -0.3915  2.0178
 6098SOL     OW20161   3.689   3.681   3.075  0.3264  0.0014  0.0520
 6098SOL    HW120162   3.593   3.671   3.079  0.5004 -1.7571  1.4196
 6098SOL    HW220163   3.704   3.738   3.001 -1.6791 -1.6886 -1.8162
 6099SOL     OW20164   5.039   6.723   6.504  0.1453  0.0584 -0.2334
 6099SOL    HW120165   5.040   6.642   6.555 -3.1263 -0.7779 -1.2186
 6099SOL    HW220166   5.006   6.789   6.564 -0.2125 -0.1064 -0.2409
 6100SOL     OW20167   0.477   5.557   6.054 -0.0307  0.4538  0.0969
 6100SOL    HW120168   0.453   5.649   6.045 -0.6431  0.1410 -1.9847
 6100SOL    HW220169   0.394   5.510   6.056  0.2881 -0.1352 -0.1800
 6101SOL     OW20170   3.651   8.476   2.054  0.7992  0.5093 -0.3054
 6101SOL    HW120171   3.636   8.422   1.976  0.3469 -1.1218  0.8722
 6101SOL    HW220172   3.678   8.561   2.019 -1.7685  0.6074 -2.3188
 6102SOL     OW20173   3.852   7.033   5.234  0.4467  0.6599 -0.3723
 6102SOL    HW120174   3.756   7.032   5.229  0.1598  2.7344  2.4163
 6102SOL    HW220175   3.875   6.948   5.271 -0.0813 -0.5728 -2.6892
 6103SOL     OW20176   8.671   8.033   1.487 -0.2415 -0.8875  0.7620
 6103SOL    HW120177   8.732   7.961   1.499  0.2676 -0.1496  2.9655
 6103SOL    HW220178   8.703   8.102   1.544 -1.5519  0.5762 -0.1806
 6104SOL     OW20179   6.165   5.327   8.582 -0.4476  0.3225 -0.0717
 6104SOL    HW120180   6.114   5.393   8.629  0.5785  0.9886  0.1296
 6104SOL    HW220181   6.144   5.342   8.490 -1.0037  0.2442  0.0348
 6105SOL     OW20182   5.782   3.861   5.089  0.1600  0.2926  0.2878
 6105SOL    HW120183   5.843   3.808   5.141  0.5843  1.3098  0.8710
 6105SOL    HW220184   5.695   3.835   5.120  0.4145  1.3836  2.0920
 6106SOL     OW20185   5.369   1.843   7.718  0.5343  0.2168  0.0668
 6106SOL    HW120186   5.433   1.897   7.764  0.0915  0.1473  0.7730
 6106SOL    HW220187   5.284   1.873   7.750  0.2202  0.0728 -0.6067
 6107SOL     OW20188   7.976   4.647   2.940  0.0124  0.0866 -0.0360
 6107SOL    HW120189   8.015   4.561   2.923 -0.0533 -0.0199  0.3463
 6107SOL    HW220190   7.939   4.674   2.856  1.0276  0.2523 -0.4486
 6108SOL     OW20191   2.945   5.998   6.847  0.3250  0.1873 -0.1215
 6108SOL    HW120192   2.884   5.980   6.918  2.4144 -1.5924  1.3639
 6108SOL    HW220193   2.933   5.926   6.786 -0.1411  0.7009 -0.6512
 6109SOL     OW20194   1.189   8.308   6.925 -0.3470 -0.5302  0.4535
 6109SOL    HW120195   1.236   8.325   7.006  1.4914  1.0086 -0.8406
 6109SOL    HW220196   1.200   8.389   6.874  0.2954 -2.1310 -2.1212
 6110SOL     OW20197   1.163   1.405   4.114 -0.3765  0.3485  0.0952
 6110SOL    HW120198   1.223   1.444   4.050 -1.8393  2.2252 -0.2510
 6110SOL    HW220199   1.122   1.333   4.067  1.8360 -1.2590  0.4812
 6111SOL     OW20200   8.713   0.435   6.903  0.0018  0.1131  0.1889
 6111SOL    HW120201   8.714   0.344   6.874  0.2713 -0.0616  0.7338
 6111SOL    HW220202   8.766   0.481   6.838 -0.1527 -0.1110 -0.1004
 6112SOL     OW20203   2.681   2.642   5.400  0.3425 -0.1886 -0.2418
 6112SOL    HW120204   2.687   2.712   5.335 -1.6629  0.5668  0.3315
 6112SOL    HW220205   2.727   2.568   5.360  1.4473  1.0566 -1.3736
 6113SOL     OW20206   3.546   4.449   6.105 -0.9445  0.0284  0.3121
 6113SOL    HW120207   3.485   4.417   6.038 -0.7775 -0.2726  0.3048
 6113SOL    HW220208   3.489   4.491   6.170 -0.9938  1.8265 -0.8309
 6114SOL     OW20209   2.265   3.064   7.304 -0.4081  0.0157  0.3595
 6114SOL    HW120210   2.270   3.019   7.388 -1.5916 -0.8507 -0.0090
 6114SOL    HW220211   2.338   3.125   7.305  0.8855 -1.4932  1.1163
 6115SOL     OW20212   1.802   5.648   4.388  0.2599 -0.4122 -0.4820
 6115SOL    HW120213   1.732   5.712   4.397 -0.4479 -0.9117 -2.0559
 6115SOL    HW220214   1.799   5.621   4.296  0.1273 -3.1180  0.2106
 6116SOL     OW20215   4.727   3.202   4.577 -0.1987  0.2210  0.1682
 6116SOL    HW120216   4.637   3.176   4.593 -0.3750  0.7604  0.0603
 6116SOL    HW220217   4.767   3.125   4.536 -0.9672  0.4432 -1.0507
 6117SOL     OW20218   1.380   1.991   6.609 -0.1599 -0.0765 -0.2564
 6117SOL    HW120219   1.289   2.009   6.632  0.1616  0.9275  0.2902
 6117SOL    HW220220   1.381   1.995   6.513 -0.8791 -1.0850 -0.3137
 6118SOL     OW20221   4.637   4.452   7.996  0.0340  0.5192  0.6307
 6118SOL    HW120222   4.631   4.460   7.901 -1.1738  0.3049  0.6766
 6118SOL    HW220223   4.598   4.367   8.016 -2.3758  1.7293  1.5197
 6119SOL     OW20224   1.715   1.200   7.395 -0.2522 -0.0051 -0.2852
 6119SOL    HW120225   1.625   1.217   7.420  0.1702  1.1295  0.5707
 6119SOL    HW220226   1.714   1.113   7.356 -1.5109 -0.5238  0.8391
 6120SOL     OW20227   6.534   5.302   2.921 -0.2713  0.0319 -0.3233
 6120SOL    HW120228   6.586   5.373   2.883 -0.3491  0.2140 -0.0952
 6120SOL    HW220229   6.514   5.332   3.010 -0.2644 -0.2969 -0.2078
 6121SOL     OW20230   8.013   2.925   3.864 -0.1827  0.1996 -0.5792
 6121SOL    HW120231   7.971   2.931   3.949  0.8347 -0.2220 -0.0210
 6121SOL    HW220232   8.071   3.001   3.860 -0.0252  0.0736 -0.7697
 6122SOL     OW20233   3.589   0.902   1.651  0.3555  0.3238  0.1079
 6122SOL    HW120234   3.515   0.927   1.706  0.3069  2.3745 -0.7910
 6122SOL    HW220235   3.650   0.859   1.710 -0.2515  1.3109  1.4969
 6123SOL     OW20236   3.322   7.719   4.548 -0.4907  0.4887 -0.2080
 6123SOL    HW120237   3.327   7.661   4.623 -1.3687  1.7084  0.8413
 6123SOL    HW220238   3.267   7.792   4.578 -1.9065  0.4202 -2.4101
 6124SOL     OW20239   3.467   2.812   1.073  0.2801  0.0154  0.6506
 6124SOL    HW120240   3.554   2.834   1.106 -0.1569  1.2382  1.0476
 6124SOL    HW220241   3.428   2.896   1.049  0.4349 -0.7102 -2.7758
 6125SOL     OW20242   6.784   2.446   5.668 -0.3390 -0.1145  0.1987
 6125SOL    HW120243   6.791   2.370   5.726 -0.8100  1.1524  2.0115
 6125SOL    HW220244   6.836   2.514   5.712  0.1730  0.6064 -1.4310
 6126SOL     OW20245   0.449   6.361   1.036  0.3083 -0.1326  0.5629
 6126SOL    HW120246   0.535   6.382   1.000 -0.2572 -0.6836 -1.1835
 6126SOL    HW220247   0.408   6.447   1.050  0.4452  0.0907 -0.3574
 6127SOL     OW20248   3.125   2.876   3.784  0.3688  0.2130  0.6459
 6127SOL    HW120249   3.203   2.907   3.830 -0.2448  1.0901  1.1195
 6127SOL    HW220250   3.059   2.867   3.852 -0.3201  0.7499  0.0590
 6128SOL     OW20251   2.528   4.424   7.541 -0.3123 -0.4622 -0.1101
 6128SOL    HW120252   2.567   4.483   7.605  0.2594 -0.8063 -0.1377
 6128SOL    HW220253   2.515   4.478   7.463  1.5454 -0.7127 -0.6201
 6129SOL     OW20254   3.959   1.981   1.755 -0.6197 -0.2670  0.0770
 6129SOL    HW120255   3.917   1.896   1.772 -0.1851 -0.5837 -0.3735
 6129SOL    HW220256   4.012   1.998   1.832  1.1380 -1.5633 -0.7618
 6130SOL     OW20257   2.370   2.889   4.524  0.0604  0.6967  0.5441
 6130SOL    HW120258   2.355   2.978   4.491 -2.2840 -0.2047 -1.0579
 6130SOL    HW220259   2.377   2.835   4.446 -0.6347 -0.8156  1.4905
 6131SOL     OW20260   4.420   2.060   2.206  0.6669 -0.1771  0.0738
 6131SOL    HW120261   4.420   2.058   2.110 -1.2188  0.9999 -0.0051
 6131SOL    HW220262   4.355   2.126   2.229 -0.1073 -1.5525  2.1896
 6132SOL     OW20263   6.773   8.228   1.363  0.2337 -0.2498  0.6036
 6132SOL    HW120264   6.793   8.144   1.321 -1.0731  0.9150 -2.7057
 6132SOL    HW220265   6.843   8.287   1.335 -1.1024  0.7678 -0.8047
 6133SOL     OW20266   6.504   7.977   1.575  0.9752  0.3480  0.0112
 6133SOL    HW120267   6.494   8.014   1.662 -0.6287  0.4538 -0.1901
 6133SOL    HW220268   6.461   8.039   1.517  1.8180  0.1622 -0.8368
 6134SOL     OW20269   0.354   2.959   2.264 -0.6422 -0.1242  0.3207
 6134SOL    HW120270   0.316   2.914   2.340 -2.0011  0.1879 -0.1450
 6134SOL    HW220271   0.402   2.890   2.218 -0.2830 -0.4439  1.1526
 6135SOL     OW20272   0.060   5.079   5.730  0.2475 -0.0385  0.2158
 6135SOL    HW120273   0.045   5.145   5.662 -1.5883  1.8686  2.3020
 6135SOL    HW220274  -0.024   5.034   5.739  0.7797 -1.0050  0.5338
 6136SOL     OW20275   7.237   4.558   1.966  0.4119  0.8559 -0.6050
 6136SOL    HW120276   7.316   4.595   1.926  0.7468 -0.4823 -1.2436
 6136SOL    HW220277   7.223   4.476   1.919 -0.1142 -0.0015  0.9845
 6137SOL     OW20278   3.496   1.067   5.273 -0.6570 -0.1900  0.2942
 6137SOL    HW120279   3.513   0.982   5.313  2.2263  0.7496  1.3311
 6137SOL    HW220280   3.429   1.107   5.330 -0.6162 -1.0057  0.9366
 6138SOL     OW20281   6.498   8.577   2.033 -0.8315  0.7115 -0.3268
 6138SOL    HW120282   6.458   8.660   2.005  0.6579  1.0178 -1.7575
 6138SOL    HW220283   6.513   8.588   2.127  1.5757  3.1476 -0.8717
 6139SOL     OW20284   4.229   4.576   0.163 -0.0202 -0.7008 -0.0368
 6139SOL    HW120285   4.251   4.533   0.080  0.7281  0.2532 -0.3507
 6139SOL    HW220286   4.225   4.669   0.142 -0.7941 -0.5221  0.8069
 6140SOL     OW20287   0.408   0.612   0.716 -0.0824 -0.2506 -0.3886
 6140SOL    HW120288   0.330   0.590   0.767 -0.2713 -0.4749 -0.7742
 6140SOL    HW220289   0.376   0.629   0.628 -0.0242  2.1703  0.0121
 6141SOL     OW20290   3.009   0.293   0.503 -0.6638 -0.3795  0.5926
 6141SOL    HW120291   3.006   0.227   0.434 -0.1674 -1.1549  1.3006
 6141SOL    HW220292   2.964   0.368   0.466 -1.6066 -1.2556 -0.0777
 6142SOL     OW20293   1.612   5.964   3.092  0.0084  0.0560  0.0163
 6142SOL    HW120294   1.632   5.918   3.011 -0.2696 -0.0690  0.0146
 6142SOL    HW220295   1.568   5.898   3.146 -0.6506  0.3938 -0.0960
 6143SOL     OW20296   0.270   8.170   1.145  0.3440  0.1101  0.2186
 6143SOL    HW120297   0.268   8.225   1.067  1.1119 -0.5928 -0.3148
 6143SOL    HW220298   0.304   8.227   1.214 -0.6232  0.8257  0.1324
 6144SOL     OW20299   6.068   6.067   6.717 -0.0878  0.4136 -0.3735
 6144SOL    HW120300   6.092   5.975   6.726 -2.3668 -0.1832  0.5452
 6144SOL    HW220301   6.079   6.103   6.805 -0.3996  0.6867 -0.4448
 6145SOL     OW20302   2.404   0.939   2.729 -0.0037 -0.1058 -0.3218
 6145SOL    HW120303   2.486   0.929   2.680 -0.5250  0.1343 -1.2793
 6145SOL    HW220304   2.347   0.986   2.669  0.6016  4.0274  1.9414
 6146SOL     OW20305   6.496   5.173   1.087 -0.0854 -0.1693 -0.1059
 6146SOL    HW120306   6.579   5.211   1.115 -0.5347  0.1652  0.8352
 6146SOL    HW220307   6.475   5.219   1.005  0.7243 -0.3705 -0.4356
 6147SOL     OW20308   1.761   2.113   7.275  0.7218 -0.5173  0.1834
 6147SOL    HW120309   1.687   2.073   7.229  0.8683 -0.5745 -0.0059
 6147SOL    HW220310   1.723   2.188   7.321  0.7188  0.0685 -0.7343
 6148SOL     OW20311   4.296   4.910   1.767 -0.8229  0.4244  0.2692
 6148SOL    HW120312   4.335   4.933   1.852 -1.1913  0.6735  0.3720
 6148SOL    HW220313   4.348   4.836   1.737  1.2859  2.1463 -0.6705
 6149SOL     OW20314   5.083   2.671   0.082  0.5257  0.3322 -0.2515
 6149SOL    HW120315   4.992   2.686   0.056  0.7525 -0.6262 -1.6783
 6149SOL    HW220316   5.117   2.611   0.016  2.0703  0.3210  0.5276
 6150SOL     OW20317   0.295   0.676   1.880 -0.7623 -0.2264 -0.1281
 6150SOL    HW120318   0.254   0.590   1.875  0.2279 -0.7550  0.4613
 6150SOL    HW220319   0.289   0.711   1.791 -0.2567 -1.3605 -0.6326
 6151SOL     OW20320   2.535   1.381   8.292 -0.0978  0.6017  0.1749
 6151SOL    HW120321   2.496   1.372   8.205  0.9013  0.7940 -0.3043
 6151SOL    HW220322   2.484   1.451   8.334 -0.4387  0.6677 -0.3373
 6152SOL     OW20323   3.513   1.524   8.319  0.3328  0.0685 -0.0746
 6152SOL    HW120324   3.488   1.466   8.247  1.1310 -1.4408  0.8065
 6152SOL    HW220325   3.433   1.533   8.371  0.0969  0.0710 -0.4376
 6153SOL     OW20326   6.465   7.792   2.254  0.6220 -0.2219 -0.4741
 6153SOL    HW120327   6.531   7.857   2.229  0.7262 -0.4965 -0.9178
 6153SOL    HW220328   6.501   7.751   2.333  1.3532 -0.8966 -1.1407
 6154SOL     OW20329   3.066   8.912   0.644 -0.3765 -0.1821 -0.0301
 6154SOL    HW120330   3.123   8.851   0.690  0.7452  0.8692  0.0379
 6154SOL    HW220331   3.126   8.962   0.588 -1.3583  0.3593 -0.6141
 6155SOL     OW20332   4.889   2.558   5.837  0.1997  0.3948  0.1645
 6155SOL    HW120333   4.968   2.608   5.854  0.8409 -1.0775  1.7657
 6155SOL    HW220334   4.919   2.478   5.793 -0.6378  0.6594 -0.9653
 6156SOL     OW20335   0.950   5.881   2.317 -0.4997  0.2473  0.7260
 6156SOL    HW120336   1.003   5.943   2.368 -0.0191 -0.5865  1.2631
 6156SOL    HW220337   1.001   5.868   2.236  0.9050 -1.6200  1.8160
 6157SOL     OW20338   5.992   3.774   2.509  0.3051 -0.3479 -0.0381
 6157SOL    HW120339   6.041   3.790   2.590 -0.6483  1.6240  0.2113
 6157SOL    HW220340   6.060   3.758   2.444  1.2225  0.5167  0.6593
 6158SOL     OW20341   5.116   7.457   2.667  0.2724  0.1680 -0.4602
 6158SOL    HW120342   5.165   7.498   2.595  0.4165 -0.4487 -0.7225
 6158SOL    HW220343   5.141   7.365   2.662 -1.7050 -0.3583 -1.2340
 6159SOL     OW20344   7.805   6.984   8.971  0.5532 -0.2314 -0.6530
 6159SOL    HW120345   7.764   7.013   9.052  1.0900  0.9001 -0.7538
 6159SOL    HW220346   7.789   6.890   8.967 -3.0839  0.2754 -1.2998
 6160SOL     OW20347   0.120   7.824   1.874 -0.1428 -0.6444 -0.3669
 6160SOL    HW120348   0.078   7.741   1.899  1.4699 -1.4821 -0.2784
 6160SOL    HW220349   0.210   7.799   1.852  0.1217  0.9712 -1.2322
 6161SOL     OW20350   6.545   0.181   6.995  0.3261  0.7044 -0.0447
 6161SOL    HW120351   6.550   0.236   7.073  0.6018  0.7599 -0.1000
 6161SOL    HW220352   6.456   0.145   6.996  0.7418 -0.3704  1.0275
 6162SOL     OW20353   4.684   1.967   4.694 -0.7119  0.3217 -0.0131
 6162SOL    HW120354   4.770   2.006   4.714 -0.6269 -0.4105  1.1246
 6162SOL    HW220355   4.648   1.943   4.779 -0.6151 -2.3693 -0.6469
 6163SOL     OW20356   1.823   0.543   4.139 -0.5399  0.2676  0.8513
 6163SOL    HW120357   1.809   0.450   4.158 -1.4999  0.6595  2.2260
 6163SOL    HW220358   1.740   0.585   4.163 -0.4668  1.3746 -0.6679
 6164SOL     OW20359   6.369   2.541   3.684 -0.6043 -0.0590  0.4054
 6164SOL    HW120360   6.363   2.585   3.769  1.8619  0.5934  0.3349
 6164SOL    HW220361   6.373   2.448   3.706  1.5120  0.1568  1.2118
 6165SOL     OW20362   7.315   3.341   3.656 -0.1870 -0.1564 -0.0396
 6165SOL    HW120363   7.320   3.280   3.730 -0.7329  2.5269  2.3844
 6165SOL    HW220364   7.399   3.387   3.657 -1.2945  1.9636  0.9122
 6166SOL     OW20365   1.767   6.644   0.787  0.3993  0.1553 -0.0877
 6166SOL    HW120366   1.821   6.599   0.721  0.3587  0.0351 -0.0382
 6166SOL    HW220367   1.825   6.712   0.822 -0.0135  1.1325 -1.2279
 6167SOL     OW20368   8.059   2.513   6.085 -0.1826 -0.2036  0.3008
 6167SOL    HW120369   8.005   2.524   6.007  0.8601  0.0314 -0.4142
 6167SOL    HW220370   8.121   2.444   6.062  0.1502 -0.1165  0.9126
 6168SOL     OW20371   3.610   6.485   8.745 -0.2335  0.2914  0.4560
 6168SOL    HW120372   3.651   6.446   8.668 -1.8691 -0.1019 -0.2549
 6168SOL    HW220373   3.606   6.579   8.726 -0.1898  0.2563  0.2751
 6169SOL     OW20374   4.753   3.002   7.917 -0.3263 -0.2666 -0.7037
 6169SOL    HW120375   4.809   2.982   7.993  0.9781  1.2204 -1.2180
 6169SOL    HW220376   4.664   2.992   7.950  0.2032 -1.3675  0.5310
 6170SOL     OW20377   2.543   7.564   0.660  0.1396  0.2257 -0.3897
 6170SOL    HW120378   2.560   7.470   0.674 -1.8511 -0.2877 -1.1037
 6170SOL    HW220379   2.623   7.607   0.690  0.8913 -1.6574  0.4927
 6171SOL     OW20380   7.135   5.384   8.886 -0.0327 -0.6006  0.2441
 6171SOL    HW120381   7.106   5.411   8.799 -3.2106 -2.0824  0.7066
 6171SOL    HW220382   7.085   5.439   8.946  1.8197  0.1247  1.1934
 6172SOL     OW20383   0.819   2.899   1.256 -0.7258  0.4834  0.4922
 6172SOL    HW120384   0.764   2.975   1.277  1.8855  1.9948  2.3046
 6172SOL    HW220385   0.811   2.843   1.332 -0.9516 -0.0758  0.0655
 6173SOL     OW20386   5.539   1.873   7.507 -0.3155 -0.5460  0.1932
 6173SOL    HW120387   5.624   1.852   7.545  0.0901  0.2638 -0.2343
 6173SOL    HW220388   5.476   1.852   7.576  0.3775  0.6434  1.2268
 6174SOL     OW20389   4.201   3.552   1.898  0.2429  0.0602  0.4442
 6174SOL    HW120390   4.275   3.599   1.937 -0.6602  0.7392  1.3587
 6174SOL    HW220391   4.230   3.534   1.808  1.1013  1.2492  0.4602
 6175SOL     OW20392   3.054   4.452   1.510 -0.2707  0.0666 -0.2720
 6175SOL    HW120393   3.115   4.478   1.441  0.2650 -1.9686 -0.6202
 6175SOL    HW220394   3.075   4.361   1.528 -2.3544 -0.3132  0.5515
 6176SOL     OW20395   7.566   4.088   2.687  0.7560  0.8935 -0.0983
 6176SOL    HW120396   7.627   4.149   2.646  1.1727  0.2854 -0.3985
 6176SOL    HW220397   7.483   4.136   2.691  0.7303  1.0277 -1.5288
 6177SOL     OW20398   6.376   2.197   7.463  0.8167 -0.0102  0.7345
 6177SOL    HW120399   6.426   2.205   7.382  2.6065 -0.0866  1.7679
 6177SOL    HW220400   6.307   2.134   7.442  0.5306  0.8245 -1.0266
 6178SOL     OW20401   5.227   0.509   8.765 -0.0799  0.0949  0.0957
 6178SOL    HW120402   5.303   0.565   8.747  0.1025 -0.1563  0.0797
 6178SOL    HW220403   5.172   0.517   8.687  0.7924 -1.1316 -0.6906
 6179SOL     OW20404   0.562   8.745   6.843  0.1667 -0.1312 -0.3172
 6179SOL    HW120405   0.471   8.767   6.820 -0.0006 -0.5142 -0.0354
 6179SOL    HW220406   0.606   8.735   6.758  0.2510  1.2612 -0.4575
 6180SOL     OW20407   0.860   2.122   8.137 -0.0214  0.2091 -0.0713
 6180SOL    HW120408   0.920   2.108   8.063  1.0535 -0.9761  0.9700
 6180SOL    HW220409   0.885   2.207   8.172 -0.1456  0.5163 -0.7050
 6181SOL     OW20410   8.679   8.964   1.308 -0.0924 -0.2545 -0.1161
 6181SOL    HW120411   8.657   9.052   1.276  1.4103 -0.6496 -2.4859
 6181SOL    HW220412   8.595   8.917   1.307 -0.4477  0.3280 -1.7994
 6182SOL     OW20413   2.299   1.287   2.626 -0.2145 -0.8292  0.1625
 6182SOL    HW120414   2.208   1.272   2.600 -0.1085  1.3474 -1.8254
 6182SOL    HW220415   2.351   1.247   2.557  0.2267  0.4245 -0.2701
 6183SOL     OW20416   5.186   0.081   0.904 -0.1844 -0.6686  0.4696
 6183SOL    HW120417   5.217   0.165   0.938 -0.4537 -0.1152 -0.6295
 6183SOL    HW220418   5.248   0.058   0.835 -0.5824 -0.9713  0.2063
 6184SOL     OW20419   2.651   1.802   1.782 -0.0987  0.4965  0.4657
 6184SOL    HW120420   2.734   1.785   1.827 -0.4805 -0.1646  0.9419
 6184SOL    HW220421   2.591   1.828   1.852 -0.4299  0.4618  0.1962
 6185SOL     OW20422   8.720   1.211   8.822  0.0007 -0.1211  0.4749
 6185SOL    HW120423   8.745   1.295   8.861  0.2540 -0.1959  0.4762
 6185SOL    HW220424   8.674   1.235   8.741  0.5911  0.0112  0.1692
 6186SOL     OW20425   0.779   6.296   2.459 -0.6333  0.6262 -0.3361
 6186SOL    HW120426   0.790   6.292   2.364 -0.6441 -0.0804 -0.3137
 6186SOL    HW220427   0.766   6.389   2.477  0.7717  0.9623 -0.8649
 6187SOL     OW20428   7.495   2.945   5.635  0.0457 -0.1616  0.3264
 6187SOL    HW120429   7.543   3.028   5.629 -0.3101 -0.0120 -0.7266
 6187SOL    HW220430   7.521   2.897   5.556 -1.7303  0.0417 -0.4221
 6188SOL     OW20431   3.730   7.079   0.600  0.0686  0.3601  0.5800
 6188SOL    HW120432   3.725   6.984   0.593 -1.4925  0.5382 -1.8430
 6188SOL    HW220433   3.816   7.102   0.563 -0.5791  0.0086 -1.2184
 6189SOL     OW20434   3.650   5.406   0.525 -0.5209 -0.0579 -1.2477
 6189SOL    HW120435   3.691   5.484   0.488 -0.2935 -0.2452 -1.3925
 6189SOL    HW220436   3.591   5.374   0.457 -0.5778 -0.0403 -1.2069
 6190SOL     OW20437   1.802   0.739   3.189  0.0068 -0.0178  1.1356
 6190SOL    HW120438   1.877   0.781   3.229  2.2005 -0.8447 -1.7590
 6190SOL    HW220439   1.838   0.662   3.144 -2.5841 -0.5802 -0.2168
 6191SOL     OW20440   7.007   6.621   7.352 -0.4099 -0.1473  0.5340
 6191SOL    HW120441   7.018   6.541   7.301 -0.8654  0.4826 -0.6098
 6191SOL    HW220442   6.917   6.619   7.382 -1.3656  1.2055 -1.9040
 6192SOL     OW20443   3.414   6.930   4.904  0.0028 -0.3150  0.5840
 6192SOL    HW120444   3.322   6.919   4.879  0.2750  1.0596 -1.2115
 6192SOL    HW220445   3.410   6.978   4.987 -0.9235  0.8048 -0.0719
 6193SOL     OW20446   5.335   8.189   5.876  0.5995 -0.7065 -0.2104
 6193SOL    HW120447   5.404   8.193   5.810 -0.2052 -2.2409 -1.1978
 6193SOL    HW220448   5.271   8.255   5.849  0.3831 -1.1709 -0.8401
 6194SOL     OW20449   0.484   1.244   7.492 -0.4890 -0.0351 -0.1918
 6194SOL    HW120450   0.515   1.159   7.462  2.6938  1.8848 -3.0592
 6194SOL    HW220451   0.558   1.283   7.538 -1.7377  1.3754  0.7389
 6195SOL     OW20452   1.431   7.892   6.395 -0.1924 -0.1554  0.1199
 6195SOL    HW120453   1.527   7.898   6.393 -0.3041  2.9073 -0.2497
 6195SOL    HW220454   1.413   7.812   6.444  2.5426  0.0967  1.7334
 6196SOL     OW20455   6.864   7.485   6.845  0.2027  0.0839  0.1475
 6196SOL    HW120456   6.857   7.556   6.781 -0.9547 -0.1831 -0.0490
 6196SOL    HW220457   6.830   7.522   6.926 -1.0673 -0.4307 -0.1270
 6197SOL     OW20458   1.689   7.092   0.145 -0.3587 -0.0933 -0.3511
 6197SOL    HW120459   1.712   7.000   0.154 -0.9269 -0.1296  0.9562
 6197SOL    HW220460   1.727   7.134   0.222  0.6171  0.9277 -1.3638
 6198SOL     OW20461   2.892   2.243   4.426  0.3716 -0.4238 -0.5542
 6198SOL    HW120462   2.964   2.194   4.387  1.1040  0.8683 -0.8983
 6198SOL    HW220463   2.893   2.217   4.518 -0.7686 -2.7748 -1.1372
 6199SOL     OW20464   0.439   7.884   0.595  0.2683 -0.4838 -0.3494
 6199SOL    HW120465   0.469   7.828   0.667  0.1037 -0.3030 -0.1378
 6199SOL    HW220466   0.516   7.934   0.569 -0.4341  2.2286  2.2228
 6200SOL     OW20467   3.957   7.311   7.156 -0.3013  0.3826  0.2314
 6200SOL    HW120468   3.964   7.295   7.062  0.2868  0.5601  0.2402
 6200SOL    HW220469   4.020   7.251   7.196 -2.6395 -1.8876  0.7818
 6201SOL     OW20470   5.866   3.521   2.590  0.0922 -0.7281 -0.0597
 6201SOL    HW120471   5.791   3.487   2.541 -2.3334  1.5064  1.8222
 6201SOL    HW220472   5.896   3.596   2.538 -1.5084  0.7103  1.0037
 6202SOL     OW20473   7.090   1.244   4.206 -0.9513 -0.6252  0.2785
 6202SOL    HW120474   7.084   1.321   4.262  1.8778 -0.3204  0.3129
 6202SOL    HW220475   7.073   1.170   4.265 -0.3896 -0.1866  1.0094
 6203SOL     OW20476   3.478   3.153   8.431 -0.8083 -0.1498 -0.2378
 6203SOL    HW120477   3.565   3.183   8.408 -0.6118 -0.8310 -0.4059
 6203SOL    HW220478   3.461   3.192   8.517 -1.0337  1.3641 -0.9301
 6204SOL     OW20479   2.331   8.798   8.675  0.0743 -0.5199  0.6698
 6204SOL    HW120480   2.301   8.708   8.664 -0.8363  0.0220 -1.8051
 6204SOL    HW220481   2.399   8.810   8.609  0.8011  0.3867  1.5363
 6205SOL     OW20482   1.206   1.586   7.953  0.0079 -0.5082 -0.6062
 6205SOL    HW120483   1.232   1.534   7.877  1.0245  0.2114 -0.7637
 6205SOL    HW220484   1.110   1.591   7.946  0.0172 -1.1650 -1.3664
 6206SOL     OW20485   7.922   0.147   6.157 -0.2205  0.4992 -0.0788
 6206SOL    HW120486   7.991   0.081   6.156 -0.0751  0.6537 -0.6827
 6206SOL    HW220487   7.864   0.122   6.086 -2.1634 -1.0351  1.9257
 6207SOL     OW20488   6.793   0.792   6.395  0.2711 -0.0515 -0.2361
 6207SOL    HW120489   6.812   0.751   6.480 -0.5244  0.3424  0.1495
 6207SOL    HW220490   6.755   0.722   6.342 -2.8508  0.5143  1.0347
 6208SOL     OW20491   8.528   1.042   4.581 -0.2406 -0.2402  0.5066
 6208SOL    HW120492   8.448   1.041   4.633 -0.2447  0.2961  0.5229
 6208SOL    HW220493   8.591   0.992   4.633 -1.1303 -2.5293 -0.4816
 6209SOL     OW20494   7.270   1.291   3.815  0.4658  0.6277 -0.7933
 6209SOL    HW120495   7.323   1.279   3.894  1.7009 -1.0104 -1.8121
 6209SOL    HW220496   7.262   1.386   3.806 -2.1830  0.9893  2.8369
 6210SOL     OW20497   1.975   8.809   7.787  0.0490 -0.6543 -0.1136
 6210SOL    HW120498   1.974   8.851   7.701  0.5749 -0.5834 -0.0873
 6210SOL    HW220499   2.024   8.870   7.842 -1.4206 -0.0261  0.5860
 6211SOL     OW20500   2.521   7.635   6.183 -0.3571 -0.1056 -0.0970
 6211SOL    HW120501   2.544   7.726   6.204 -1.0684  0.1646 -0.4731
 6211SOL    HW220502   2.459   7.610   6.252 -2.0323  0.5020 -1.3003
 6212SOL     OW20503   6.481   7.009   6.128  0.5028  0.3304  0.4742
 6212SOL    HW120504   6.487   6.950   6.204  0.0129 -0.5353 -0.1513
 6212SOL    HW220505   6.443   7.089   6.164  0.9570  0.2022  1.2893
 6213SOL     OW20506   5.010   6.433   5.161 -0.2711 -0.3865 -0.2259
 6213SOL    HW120507   5.067   6.448   5.237  0.3672  1.2318 -0.9998
 6213SOL    HW220508   4.922   6.451   5.194 -0.0637 -0.2938  0.2952
 6214SOL     OW20509   1.620   1.837   4.226 -0.7444 -0.2853  0.4535
 6214SOL    HW120510   1.527   1.815   4.227 -0.2219 -3.2273 -1.9453
 6214SOL    HW220511   1.638   1.860   4.135  0.6445  1.9560  1.1955
 6215SOL     OW20512   0.054   6.138   7.222 -0.2909 -0.1885 -0.5525
 6215SOL    HW120513   0.102   6.131   7.139  0.1304  0.3760 -0.3549
 6215SOL    HW220514  -0.002   6.059   7.223  1.5981 -1.5922 -0.1376
 6216SOL     OW20515   3.003   3.882   2.697 -0.1874 -0.1017  0.3752
 6216SOL    HW120516   2.995   3.902   2.604 -0.2984 -0.1436  0.3763
 6216SOL    HW220517   2.916   3.851   2.724 -0.6615  1.6034  0.9060
 6217SOL     OW20518   2.033   4.576   1.671 -0.8253  0.3136  0.1685
 6217SOL    HW120519   2.013   4.494   1.626 -1.2966  0.5166  0.0060
 6217SOL    HW220520   2.000   4.563   1.760  2.0805 -0.9512  1.2035
 6218SOL     OW20521   3.635   4.182   2.711  0.3668 -0.1523  0.3932
 6218SOL    HW120522   3.727   4.196   2.691  0.5614 -0.1837  1.2406
 6218SOL    HW220523   3.591   4.260   2.676  0.7327 -0.0443  0.1603
 6219SOL     OW20524   7.378   5.045   3.928  0.0090  0.0613 -0.8696
 6219SOL    HW120525   7.396   5.125   3.879  0.5339  1.1449  0.9858
 6219SOL    HW220526   7.289   5.022   3.903 -0.7812  2.1791 -0.2545
 6220SOL     OW20527   8.327   1.506   3.442  0.3363 -0.2979  0.1042
 6220SOL    HW120528   8.349   1.542   3.357 -0.9923 -0.9439 -0.5401
 6220SOL    HW220529   8.320   1.412   3.428  0.3837 -0.4482  0.9919
 6221SOL     OW20530   6.556   7.623   5.475  0.0242 -0.0207  0.2166
 6221SOL    HW120531   6.593   7.535   5.466 -0.0929  0.0257 -0.8360
 6221SOL    HW220532   6.463   7.608   5.493 -0.4348 -0.1292 -2.0326
 6222SOL     OW20533   0.517   1.985   8.190 -0.2944  0.1440  0.6887
 6222SOL    HW120534   0.555   2.023   8.111 -0.9743  0.8916  0.7071
 6222SOL    HW220535   0.539   2.046   8.259  0.1316 -0.4123  1.0495
 6223SOL     OW20536   8.212   7.447   5.451 -0.8380 -0.0547 -0.3980
 6223SOL    HW120537   8.192   7.528   5.404  2.0856  0.6236 -0.6244
 6223SOL    HW220538   8.288   7.411   5.405  1.5197  0.0746  3.0738
 6224SOL     OW20539   4.800   1.626   5.940 -0.0119 -0.1904 -0.0896
 6224SOL    HW120540   4.755   1.543   5.955  0.1194  0.0221  1.7804
 6224SOL    HW220541   4.739   1.677   5.888  0.2336 -1.7071 -1.9773
 6225SOL     OW20542   5.613   8.402   4.393  0.7885 -0.0824 -0.2424
 6225SOL    HW120543   5.644   8.312   4.401  2.2934  0.3854 -0.4155
 6225SOL    HW220544   5.561   8.417   4.471  1.1041 -0.8865  0.1280
 6226SOL     OW20545   3.745   0.353   0.826  0.5193 -0.1511  0.3626
 6226SOL    HW120546   3.673   0.297   0.856  1.1608 -1.2359 -0.0583
 6226SOL    HW220547   3.824   0.309   0.857  1.0876  0.0103 -0.7877
 6227SOL     OW20548   7.073   5.668   7.392 -0.7168 -0.5713 -0.1929
 6227SOL    HW120549   7.016   5.743   7.410  1.0799  1.4546 -2.3203
 6227SOL    HW220550   7.134   5.700   7.325 -0.1120 -4.0860 -1.5225
 6228SOL     OW20551   3.789   0.140   3.990 -0.7709 -0.0737 -1.0011
 6228SOL    HW120552   3.762   0.174   3.905 -2.0849 -2.0283 -1.4414
 6228SOL    HW220553   3.707   0.113   4.032 -0.0899  0.2943  0.6557
 6229SOL     OW20554   0.176   8.230   8.886  0.9427  0.4369 -0.2027
 6229SOL    HW120555   0.222   8.146   8.891  2.2981  1.1776  0.1199
 6229SOL    HW220556   0.245   8.294   8.870 -0.2891  1.2902 -2.4002
 6230SOL     OW20557   7.827   4.306   8.282  0.3305 -0.0687 -0.4276
 6230SOL    HW120558   7.882   4.231   8.307  0.3832  0.4933  1.2441
 6230SOL    HW220559   7.883   4.382   8.296 -0.2512  0.3878 -0.5581
 6231SOL     OW20560   0.786   4.776   4.341  0.0177  0.4142 -0.2436
 6231SOL    HW120561   0.730   4.699   4.340  0.8950 -0.2500  0.1895
 6231SOL    HW220562   0.822   4.781   4.253  0.7590 -0.2994 -0.0001
 6232SOL     OW20563   6.359   4.528   1.869  0.6166 -0.3777  0.0884
 6232SOL    HW120564   6.316   4.503   1.951 -0.8844  2.0629  0.1441
 6232SOL    HW220565   6.425   4.593   1.894  1.1795 -0.7032 -0.5051
 6233SOL     OW20566   1.688   4.041   4.390  0.3134  0.5138 -0.1602
 6233SOL    HW120567   1.655   4.123   4.353 -0.5770 -0.1085 -0.7986
 6233SOL    HW220568   1.609   3.994   4.417  0.9238  0.9939  2.7345
 6234SOL     OW20569   4.174   5.092   3.968 -0.0036  0.1269  0.2782
 6234SOL    HW120570   4.114   5.021   3.945  1.6644 -0.9672 -0.9411
 6234SOL    HW220571   4.205   5.070   4.056 -1.8339  1.0914  1.2389
 6235SOL     OW20572   4.107   7.300   1.789  0.0432 -0.4874  0.0746
 6235SOL    HW120573   4.042   7.311   1.859  1.8300  0.8116  1.6299
 6235SOL    HW220574   4.087   7.214   1.751 -2.8913  0.0710  0.0723
 6236SOL     OW20575   2.493   0.873   4.860 -0.4646 -0.3355  0.0240
 6236SOL    HW120576   2.468   0.787   4.894 -2.0327  0.3778  0.8012
 6236SOL    HW220577   2.428   0.933   4.897  1.0347  1.3092  0.1008
 6237SOL     OW20578   1.657   0.596   8.636 -0.9059  0.2206 -0.3511
 6237SOL    HW120579   1.727   0.620   8.697 -1.7707 -0.4765  0.9556
 6237SOL    HW220580   1.615   0.679   8.613 -0.8861  0.4428  0.4067
 6238SOL     OW20581   7.181   8.011   4.250  0.0542 -0.5252 -0.5028
 6238SOL    HW120582   7.137   7.928   4.232 -0.3293 -0.4920  0.2347
 6238SOL    HW220583   7.160   8.030   4.342 -1.4911  1.3576 -1.1726
 6239SOL     OW20584   1.936   2.537   1.773  0.2864  0.1672  0.0481
 6239SOL    HW120585   1.939   2.606   1.706  0.7506 -0.8856 -1.0494
 6239SOL    HW220586   1.992   2.468   1.739  0.4757 -0.4356  1.5120
 6240SOL     OW20587   8.385   2.848   7.262  0.6417  0.2753 -0.1103
 6240SOL    HW120588   8.340   2.844   7.178 -1.3075  0.0953  0.8952
 6240SOL    HW220589   8.407   2.757   7.282  0.7618  0.2758 -0.2386
 6241SOL     OW20590   4.629   5.617   4.427  0.1927 -0.4165 -0.1086
 6241SOL    HW120591   4.663   5.704   4.406 -0.7675  0.3128  1.1715
 6241SOL    HW220592   4.585   5.629   4.511  0.0385 -2.1521  0.0848
 6242SOL     OW20593   7.720   4.441   4.939  0.3387 -0.3366  0.0271
 6242SOL    HW120594   7.815   4.450   4.947  0.6246 -1.2470 -1.7514
 6242SOL    HW220595   7.685   4.482   5.018  2.1166  1.6800 -0.1380
 6243SOL     OW20596   7.415   1.355   3.038  0.3189 -0.2737  0.6024
 6243SOL    HW120597   7.342   1.308   3.079  1.1857 -1.8717  0.4086
 6243SOL    HW220598   7.448   1.294   2.973  1.0455  0.9349 -0.1957
 6244SOL     OW20599   4.212   5.634   0.262 -0.3408 -0.2652  0.2471
 6244SOL    HW120600   4.152   5.704   0.235 -0.9390 -1.2217 -0.9651
 6244SOL    HW220601   4.187   5.614   0.352 -1.4268 -0.2079 -0.0348
 6245SOL     OW20602   1.200   0.634   6.489 -0.3561  0.0702 -1.0157
 6245SOL    HW120603   1.229   0.723   6.466 -1.0078  1.0212  1.4912
 6245SOL    HW220604   1.110   0.646   6.520 -0.5136 -1.5106 -0.8106
 6246SOL     OW20605   7.388   1.831   8.025  0.2243  0.4336  0.3278
 6246SOL    HW120606   7.341   1.913   8.043 -1.2810 -0.6421  1.6210
 6246SOL    HW220607   7.474   1.844   8.064  0.5250  1.9101 -0.7534
 6247SOL     OW20608   6.737   2.566   8.934  0.0202 -0.1608 -0.3267
 6247SOL    HW120609   6.822   2.560   8.890  0.2768 -1.2805  0.2666
 6247SOL    HW220610   6.757   2.600   9.021 -0.3700  1.1768 -0.7399
 6248SOL     OW20611   1.199   3.903   2.994 -0.0941 -0.9841 -0.1036
 6248SOL    HW120612   1.214   3.894   2.899  0.3523  0.0737 -0.1480
 6248SOL    HW220613   1.285   3.891   3.033 -0.3634 -1.9458  0.2302
 6249SOL     OW20614   7.203   6.692   0.220 -0.3081  0.2301 -0.1291
 6249SOL    HW120615   7.119   6.678   0.176  0.0416 -0.1540 -0.6940
 6249SOL    HW220616   7.257   6.617   0.192  0.1548  0.3712  0.3822
 6250SOL     OW20617   8.603   7.543   2.288  0.0543 -0.2857  0.0564
 6250SOL    HW120618   8.513   7.515   2.305 -0.3199  0.9888  0.2797
 6250SOL    HW220619   8.636   7.571   2.373  0.3017  0.2238 -0.1980
 6251SOL     OW20620   7.676   2.850   2.757  0.5701  0.3641 -0.0816
 6251SOL    HW120621   7.651   2.806   2.675 -0.7994  1.4239 -0.2674
 6251SOL    HW220622   7.638   2.796   2.826 -1.5391  1.4336 -0.3261
 6252SOL     OW20623   7.306   1.931   4.843 -0.3309 -0.0774  0.3871
 6252SOL    HW120624   7.234   1.989   4.866 -1.4622 -0.3619 -2.1323
 6252SOL    HW220625   7.345   1.971   4.765  0.4352 -1.4238  0.0501
 6253SOL     OW20626   2.612   2.349   7.189  0.4867 -0.2525 -0.2317
 6253SOL    HW120627   2.540   2.285   7.187  0.2911 -0.1373  1.4401
 6253SOL    HW220628   2.691   2.296   7.197  0.3101 -0.3378  1.3760
 6254SOL     OW20629   7.107   5.110   6.587  0.4658  0.0105  0.0062
 6254SOL    HW120630   7.131   5.071   6.671  2.4837 -0.6595 -0.8291
 6254SOL    HW220631   7.091   5.036   6.529  0.3941  0.4475 -0.5490
 6255SOL     OW20632   6.125   1.267   0.125 -0.8145 -0.3173  0.3096
 6255SOL    HW120633   6.186   1.327   0.083 -0.2960 -1.4284 -0.5683
 6255SOL    HW220634   6.141   1.183   0.083 -1.8938 -0.9650  1.1401
 6256SOL     OW20635   2.231   6.641   8.543  0.3915  0.3458 -0.2777
 6256SOL    HW120636   2.183   6.716   8.509  0.7347  1.3439  1.3507
 6256SOL    HW220637   2.275   6.604   8.466 -0.4036  1.3370 -1.2410
 6257SOL     OW20638   2.620   2.533   1.762 -0.4566  0.1431 -0.2356
 6257SOL    HW120639   2.650   2.460   1.708  0.8149  0.0110  0.6100
 6257SOL    HW220640   2.598   2.494   1.846 -2.5009  0.3381 -0.6092
 6258SOL     OW20641   4.317   3.940   0.252  0.1442  0.4754 -0.7792
 6258SOL    HW120642   4.258   3.864   0.258  0.3818  0.2979 -0.6830
 6258SOL    HW220643   4.329   3.968   0.342 -0.4098  0.9926 -0.8597
 6259SOL     OW20644   6.652   2.164   4.450  0.0329  0.1598  0.3456
 6259SOL    HW120645   6.726   2.211   4.491  0.7092  0.3848 -1.0777
 6259SOL    HW220646   6.587   2.233   4.434 -0.1064  0.1242  0.7411
 6260SOL     OW20647   5.083   1.193   6.016  0.6189 -0.3340  0.5459
 6260SOL    HW120648   5.023   1.261   6.046  0.0788  0.5297 -2.1552
 6260SOL    HW220649   5.154   1.241   5.973  0.0893 -1.4178 -1.6649
 6261SOL     OW20650   7.083   2.836   6.618 -0.2335 -0.0176  0.3521
 6261SOL    HW120651   7.079   2.911   6.558 -1.6571  1.0169  1.6227
 6261SOL    HW220652   7.163   2.850   6.668  1.1603 -1.0886 -1.4750
 6262SOL     OW20653   3.888   6.904   0.332  0.3226 -0.2623  0.1549
 6262SOL    HW120654   3.976   6.905   0.296  1.2723  0.5638  2.3209
 6262SOL    HW220655   3.875   6.993   0.366  0.3578 -1.3823  3.5172
 6263SOL     OW20656   1.393   7.390   3.708  0.2195 -0.1893  0.7682
 6263SOL    HW120657   1.446   7.354   3.778  0.5688 -0.0268  0.5900
 6263SOL    HW220658   1.451   7.391   3.631 -0.4834 -1.3765  0.1901
 6264SOL     OW20659   3.819   5.757   6.335  0.4650 -0.0556  0.2616
 6264SOL    HW120660   3.733   5.745   6.374  0.4927 -0.9449  0.0725
 6264SOL    HW220661   3.821   5.697   6.261  1.2018  0.0444  0.1878
 6265SOL     OW20662   2.690   5.237   6.215  0.1743 -0.0306  0.5600
 6265SOL    HW120663   2.731   5.153   6.191  0.7979  0.6688 -0.9355
 6265SOL    HW220664   2.617   5.246   6.155  0.3729  0.6946  0.4185
 6266SOL     OW20665   4.563   6.542   0.417  0.4077 -0.0903  0.1450
 6266SOL    HW120666   4.481   6.519   0.372  0.4848  0.8770 -0.5181
 6266SOL    HW220667   4.629   6.536   0.348  0.8708 -0.6534  0.6290
 6267SOL     OW20668   8.649   7.565   0.285  0.2597  0.3932 -0.7922
 6267SOL    HW120669   8.715   7.607   0.341  0.7337 -0.4655 -0.6893
 6267SOL    HW220670   8.594   7.637   0.255  0.4238  0.9633  0.2168
 6268SOL     OW20671   6.434   2.938   4.418  0.2230 -0.1597 -0.2332
 6268SOL    HW120672   6.362   2.892   4.461  0.1785 -0.8622 -1.0281
 6268SOL    HW220673   6.466   3.000   4.483 -2.0693  1.2513 -0.3493
 6269SOL     OW20674   4.572   4.702   1.418  0.5312 -0.4112  0.5018
 6269SOL    HW120675   4.516   4.636   1.378 -0.4135  0.5792  0.1464
 6269SOL    HW220676   4.655   4.695   1.369 -0.5109  0.6113 -1.5316
 6270SOL     OW20677   4.548   8.810   0.079  0.4919  0.0172  0.1290
 6270SOL    HW120678   4.487   8.796   0.007  0.5145  2.0944 -0.3541
 6270SOL    HW220679   4.629   8.769   0.051  0.6268  1.1588 -1.2643
 6271SOL     OW20680   7.509   7.433   7.475 -0.1771 -0.1972 -0.0695
 6271SOL    HW120681   7.535   7.359   7.419 -0.9274 -0.1446 -0.4975
 6271SOL    HW220682   7.579   7.497   7.463 -1.1929  0.5871 -2.4096
 6272SOL     OW20683   7.758   7.722   1.115  0.4817  0.0272  0.1552
 6272SOL    HW120684   7.693   7.719   1.185  1.0263  0.3788  0.6775
 6272SOL    HW220685   7.835   7.680   1.152  0.3827 -0.9114 -0.6580
 6273SOL     OW20686   0.002   3.005   5.634 -0.0060  0.4966  0.4018
 6273SOL    HW120687  -0.071   2.982   5.692 -0.0996  0.5283  0.2971
 6273SOL    HW220688   0.078   3.013   5.692 -0.6787  3.6731  1.0154
 6274SOL     OW20689   7.958   7.508   3.173 -0.6223 -0.6557 -0.5608
 6274SOL    HW120690   7.938   7.426   3.128  0.6338 -0.7339 -1.0219
 6274SOL    HW220691   7.994   7.565   3.104  1.2043 -0.7247  0.2789
 6275SOL     OW20692   6.929   7.656   5.698 -0.2669 -0.4080  0.4725
 6275SOL    HW120693   6.936   7.685   5.789  0.5736 -0.7754  0.5362
 6275SOL    HW220694   6.911   7.562   5.703 -0.6318 -0.3494  0.2632
 6276SOL     OW20695   5.194   1.450   1.038 -0.3816 -0.1516 -1.1052
 6276SOL    HW120696   5.289   1.452   1.030 -0.3321 -1.1393 -0.9026
 6276SOL    HW220697   5.176   1.501   1.117 -0.0287  0.0678 -1.1622
 6277SOL     OW20698   8.929   0.863   8.049 -0.4471 -0.1002  0.0886
 6277SOL    HW120699   8.845   0.840   8.088 -0.3359 -1.2277 -0.2791
 6277SOL    HW220700   8.933   0.958   8.052 -0.5929 -0.1211  2.5074
 6278SOL     OW20701   1.684   8.351   6.299 -0.1782  0.2480  0.2063
 6278SOL    HW120702   1.765   8.383   6.259  0.8965 -1.4828  0.8928
 6278SOL    HW220703   1.661   8.418   6.364 -0.3422  1.6499 -1.2417
 6279SOL     OW20704   5.298   0.114   3.345 -0.1815  0.2184 -0.1339
 6279SOL    HW120705   5.307   0.019   3.347  0.5239  0.2664 -0.7364
 6279SOL    HW220706   5.287   0.136   3.253  2.1602  0.9071 -0.3071
 6280SOL     OW20707   5.936   2.524   2.086  0.0685 -0.2868 -0.4146
 6280SOL    HW120708   5.903   2.559   2.004 -0.4146 -2.1414 -1.0717
 6280SOL    HW220709   5.856   2.504   2.137  0.3390  0.0728  0.1613
 6281SOL     OW20710   6.273   7.791   8.414 -0.1794  0.1182 -0.0922
 6281SOL    HW120711   6.234   7.879   8.410  1.6958  0.9870 -0.6559
 6281SOL    HW220712   6.273   7.769   8.507  0.7864  1.4473  0.2488
 6282SOL     OW20713   5.677   6.092   0.755 -0.1396 -0.7861 -0.2004
 6282SOL    HW120714   5.691   6.072   0.663 -0.1528  1.0334 -0.6343
 6282SOL    HW220715   5.599   6.042   0.779 -0.9584 -0.2021 -1.5718
 6283SOL     OW20716   1.296   5.097   4.595  0.6075 -1.0983 -0.2278
 6283SOL    HW120717   1.220   5.080   4.650 -0.4210 -1.1920 -1.6121
 6283SOL    HW220718   1.328   5.010   4.569 -0.6953 -1.0840 -2.0726
 6284SOL     OW20719   2.557   6.538   6.201 -0.3334 -0.2766 -0.6350
 6284SOL    HW120720   2.579   6.531   6.294 -0.8165 -1.2859 -0.5801
 6284SOL    HW220721   2.471   6.581   6.199 -0.9511 -1.4515 -0.5148
 6285SOL     OW20722   6.292   5.122   6.460 -0.3113  0.0219 -0.3595
 6285SOL    HW120723   6.300   5.174   6.379  0.5053 -0.9758 -0.9383
 6285SOL    HW220724   6.205   5.146   6.494 -1.3309 -0.6261 -2.3240
 6286SOL     OW20725   3.423   8.557   8.487  0.0184  0.2335 -0.2554
 6286SOL    HW120726   3.362   8.628   8.467  1.1882  1.1502 -0.6937
 6286SOL    HW220727   3.493   8.600   8.536  0.2452 -0.8308  0.3815
 6287SOL     OW20728   7.624   7.784   5.117  0.0198  0.0690  0.0891
 6287SOL    HW120729   7.641   7.720   5.047  1.9577 -0.6216  1.1395
 6287SOL    HW220730   7.594   7.862   5.070 -0.2565 -0.8748 -1.3948
 6288SOL     OW20731   4.046   0.413   1.701 -0.0837 -0.1326 -0.7508
 6288SOL    HW120732   4.039   0.445   1.611 -0.4286  2.7484  0.2167
 6288SOL    HW220733   4.139   0.417   1.721 -0.2733  2.1256 -0.0802
 6289SOL     OW20734   4.665   4.015   0.426 -0.0941 -0.5402  0.1987
 6289SOL    HW120735   4.639   4.006   0.335  0.6382 -1.7401  0.0925
 6289SOL    HW220736   4.631   3.936   0.469 -0.3850 -0.0164  0.9651
 6290SOL     OW20737   7.923   3.036   7.750  0.6542  0.2231 -0.5619
 6290SOL    HW120738   7.919   3.018   7.656 -0.3678 -1.2193 -0.2838
 6290SOL    HW220739   7.853   2.983   7.787 -0.0950  2.0851  0.8450
 6291SOL     OW20740   8.068   0.621   6.778  0.4393  0.0016  0.3505
 6291SOL    HW120741   8.023   0.551   6.730 -1.2268  1.7000 -0.7149
 6291SOL    HW220742   8.013   0.636   6.855  1.7160 -0.9497  1.5060
 6292SOL     OW20743   0.845   2.674   4.353 -0.6942 -0.2998 -0.4383
 6292SOL    HW120744   0.855   2.650   4.445 -0.4605  0.7137 -0.1925
 6292SOL    HW220745   0.907   2.618   4.307  0.2698  0.2093  0.1902
 6293SOL     OW20746   0.275   8.101   4.884 -0.3344 -0.1953 -0.8395
 6293SOL    HW120747   0.224   8.132   4.810  1.3570  0.4787 -1.7647
 6293SOL    HW220748   0.326   8.028   4.849 -0.5713 -0.8063  0.0443
 6294SOL     OW20749   4.641   4.007   6.319  0.2936  0.1270 -0.1838
 6294SOL    HW120750   4.654   3.984   6.227  0.6480 -0.9578  0.1275
 6294SOL    HW220751   4.668   4.099   6.324 -1.4110  0.7574 -1.5050
 6295SOL     OW20752   5.664   8.079   4.240  0.1790  0.2209 -0.3365
 6295SOL    HW120753   5.700   8.149   4.184 -0.5767  1.3622  0.5592
 6295SOL    HW220754   5.707   8.091   4.324  1.1357 -1.3499 -0.5589
 6296SOL     OW20755   8.056   7.271   4.930 -0.4811  0.3375  0.1367
 6296SOL    HW120756   7.987   7.205   4.939 -0.7178  0.5112 -0.3370
 6296SOL    HW220757   8.132   7.233   4.974 -0.6678 -0.1732  0.0236
 6297SOL     OW20758   0.831   3.836   3.107 -0.0102 -0.1592 -0.1514
 6297SOL    HW120759   0.811   3.881   3.025  0.6884 -0.3886 -0.4642
 6297SOL    HW220760   0.909   3.882   3.140  0.0475 -0.4325  0.0900
 6298SOL     OW20761   5.881   8.605   1.418  0.3639  0.3270  0.1901
 6298SOL    HW120762   5.848   8.692   1.439  1.6618  0.9886 -0.3875
 6298SOL    HW220763   5.956   8.592   1.475 -1.5324 -1.7114  2.4427
 6299SOL     OW20764   5.616   3.086   2.193  0.1596  0.2929  0.2775
 6299SOL    HW120765   5.632   2.994   2.172  0.4155  0.6779 -1.3356
 6299SOL    HW220766   5.696   3.131   2.166  0.3382  0.9087  1.7556
 6300SOL     OW20767   8.815   6.251   7.220 -0.0437  0.4280  0.5839
 6300SOL    HW120768   8.908   6.227   7.210 -0.2966 -0.8828  1.1474
 6300SOL    HW220769   8.783   6.192   7.289 -1.5577  0.1079 -0.3481
 6301SOL     OW20770   4.467   5.418   1.486 -0.4246  0.2424  0.0298
 6301SOL    HW120771   4.472   5.439   1.579 -0.8644  0.6139 -0.0236
 6301SOL    HW220772   4.373   5.409   1.468 -0.4407  1.5597 -0.6640
 6302SOL     OW20773   1.940   3.312   8.667  0.0559 -0.3490  0.6142
 6302SOL    HW120774   1.957   3.355   8.583  1.9793 -0.6879  0.7759
 6302SOL    HW220775   1.908   3.225   8.644  0.0477 -0.2441  0.2294
 6303SOL     OW20776   3.778   5.182   0.604  0.3219 -0.8675  0.6999
 6303SOL    HW120777   3.742   5.270   0.601  1.2028 -0.4662  1.4024
 6303SOL    HW220778   3.715   5.128   0.555  0.6347  0.4456 -1.2826
 6304SOL     OW20779   8.369   2.873   5.742  0.6015  0.1970  0.3602
 6304SOL    HW120780   8.303   2.881   5.673  0.9760 -1.4671 -0.2564
 6304SOL    HW220781   8.385   2.962   5.772 -0.1074  0.8780 -1.2084
 6305SOL     OW20782   5.250   5.921   7.570  0.7361  0.6019  0.7385
 6305SOL    HW120783   5.247   6.007   7.527  1.5198 -0.0559 -0.7244
 6305SOL    HW220784   5.171   5.919   7.624  0.6876  2.2213  0.7821
 6306SOL     OW20785   8.447   4.590   8.111 -0.3299 -0.4661 -0.8189
 6306SOL    HW120786   8.441   4.637   8.028 -2.3779  0.3284 -0.2941
 6306SOL    HW220787   8.418   4.653   8.176 -0.2842 -1.5648  0.3006
 6307SOL     OW20788   1.625   3.103   0.384  0.0672  0.5544  0.0289
 6307SOL    HW120789   1.714   3.071   0.398  0.4895  2.1270  1.3075
 6307SOL    HW220790   1.636   3.196   0.367 -1.3688  0.9478  1.0904
 6308SOL     OW20791   7.452   8.148   0.225  0.8075 -0.0802 -0.1196
 6308SOL    HW120792   7.401   8.139   0.145  3.3131  0.3259 -1.8563
 6308SOL    HW220793   7.507   8.070   0.228  2.1522  0.8466  0.1238
 6309SOL     OW20794   6.355   4.961   0.604  0.0479  0.1851 -0.0278
 6309SOL    HW120795   6.352   4.882   0.658 -0.9379  1.0091  1.1918
 6309SOL    HW220796   6.418   4.941   0.535 -0.8021 -1.9629 -0.2522
 6310SOL     OW20797   1.654   8.735   5.048  0.3211 -0.1558  0.4625
 6310SOL    HW120798   1.656   8.793   5.124 -1.4110 -0.3713  0.6976
 6310SOL    HW220799   1.693   8.787   4.977 -1.4153  1.4370  0.5943
 6311SOL     OW20800   2.416   0.939   3.251  1.0356  0.1851  0.3211
 6311SOL    HW120801   2.482   0.889   3.300  2.2845 -0.5587 -1.9549
 6311SOL    HW220802   2.446   0.934   3.160 -2.2529 -0.2879 -0.8565
 6312SOL     OW20803   0.731   0.963   0.643 -0.2572 -0.4856 -0.5499
 6312SOL    HW120804   0.756   0.907   0.569 -1.9902  0.5420 -1.9829
 6312SOL    HW220805   0.673   0.908   0.696 -2.0407 -0.0745 -2.0084
 6313SOL     OW20806   1.708   4.230   8.160  0.3842  0.2737  0.7144
 6313SOL    HW120807   1.643   4.244   8.091  1.6681 -3.6101 -1.5587
 6313SOL    HW220808   1.792   4.250   8.119  1.0527 -0.3396  1.7360
 6314SOL     OW20809   7.533   5.376   8.644  0.0451 -0.4706  0.2323
 6314SOL    HW120810   7.475   5.446   8.673  1.2954  0.1138  1.4405
 6314SOL    HW220811   7.483   5.328   8.578 -1.3231  0.7546  0.3502
 6315SOL     OW20812   2.960   1.666   8.368 -0.6075  0.1876  0.4569
 6315SOL    HW120813   2.996   1.584   8.402  0.3653 -0.0471 -1.0278
 6315SOL    HW220814   2.866   1.649   8.361 -0.8748  0.2807  2.9702
 6316SOL     OW20815   3.217   2.153   7.486  0.0151 -0.3720 -0.6543
 6316SOL    HW120816   3.172   2.198   7.558  1.8846  1.2378 -0.4232
 6316SOL    HW220817   3.191   2.061   7.496 -2.4133  0.3047  0.0130
 6317SOL     OW20818   1.444   4.237   0.140  0.5182 -0.3405  0.2886
 6317SOL    HW120819   1.366   4.189   0.167  0.1484 -0.8408 -1.5404
 6317SOL    HW220820   1.494   4.174   0.088  1.0789  0.6230 -0.3730
 6318SOL     OW20821   5.160   4.780   2.093 -0.5206  0.3241  1.3069
 6318SOL    HW120822   5.103   4.853   2.069  0.6221  0.7354 -0.2797
 6318SOL    HW220823   5.219   4.817   2.159  0.0857  0.8892  0.4747
 6319SOL     OW20824   4.033   5.128   0.586  0.6345  0.5287  0.6622
 6319SOL    HW120825   4.041   5.096   0.497  1.2627 -1.4022  1.3587
 6319SOL    HW220826   3.939   5.142   0.598  0.5284  0.6270 -0.2339
 6320SOL     OW20827   5.652   1.321   7.585  0.2284 -0.5796  0.4189
 6320SOL    HW120828   5.640   1.296   7.676  1.1903 -1.9113  0.2035
 6320SOL    HW220829   5.569   1.362   7.560  0.0087 -0.0547  1.9141
 6321SOL     OW20830   7.065   6.198   5.384  0.2028  0.1539 -0.0407
 6321SOL    HW120831   6.995   6.193   5.448 -0.8611  0.1741 -1.1650
 6321SOL    HW220832   7.086   6.291   5.379  0.6431  0.0989  0.6262
 6322SOL     OW20833   7.393   6.843   1.457  0.0586  0.4073  0.3665
 6322SOL    HW120834   7.449   6.773   1.423 -0.9365 -0.2884  0.1050
 6322SOL    HW220835   7.443   6.883   1.528  0.4190 -0.9495  0.8989
 6323SOL     OW20836   7.279   4.854   7.160  0.6481 -0.3442 -0.2318
 6323SOL    HW120837   7.203   4.816   7.115  1.0496 -0.5550 -0.7383
 6323SOL    HW220838   7.340   4.781   7.171  0.4475 -0.3632  0.9217
 6324SOL     OW20839   7.213   8.811   6.403 -0.0774  0.4931  0.5116
 6324SOL    HW120840   7.252   8.735   6.446  1.4405  1.3338  0.7080
 6324SOL    HW220841   7.231   8.798   6.309  0.2255  0.6175  0.5501
 6325SOL     OW20842   1.544   6.033   8.013  0.2277 -0.3589 -0.7877
 6325SOL    HW120843   1.470   6.071   7.966  1.4840  1.7482 -1.2065
 6325SOL    HW220844   1.506   5.999   8.095 -1.1073  1.3019 -0.6730
 6326SOL     OW20845   8.489   1.789   5.085 -0.4618 -0.1262 -0.2289
 6326SOL    HW120846   8.538   1.847   5.027  1.3503 -0.2325  1.0805
 6326SOL    HW220847   8.419   1.844   5.120 -0.7044  0.3360 -1.4119
 6327SOL     OW20848   8.605   0.090   8.394 -0.0298  0.2910 -0.3687
 6327SOL    HW120849   8.695   0.067   8.416  0.1880  0.9189 -0.5757
 6327SOL    HW220850   8.554   0.012   8.415  0.6072 -0.1823 -0.5471
 6328SOL     OW20851   0.123   4.092   5.034  0.1857  0.6061  0.1801
 6328SOL    HW120852   0.187   4.123   4.970  0.6493 -1.4167 -0.4298
 6328SOL    HW220853   0.052   4.055   4.982  0.0612 -0.0966  0.8218
 6329SOL     OW20854   4.580   5.206   4.610 -0.1338  0.2947  0.2271
 6329SOL    HW120855   4.597   5.257   4.531 -0.8595 -0.2373 -0.2869
 6329SOL    HW220856   4.620   5.257   4.680 -0.3515  1.2902 -0.3447
 6330SOL     OW20857   0.701   4.475   1.300 -0.1319 -0.1279  1.2286
 6330SOL    HW120858   0.739   4.525   1.373  1.5241  1.1508 -0.4045
 6330SOL    HW220859   0.639   4.535   1.259 -0.2071 -0.4126  0.9230
 6331SOL     OW20860   5.191   2.236   5.157 -0.4106 -0.2586 -0.2680
 6331SOL    HW120861   5.238   2.162   5.194 -0.9745 -0.3226  0.3348
 6331SOL    HW220862   5.126   2.260   5.223 -0.9246  0.1162 -0.8838
 6332SOL     OW20863   5.164   8.749   6.999 -0.4533 -0.4715  0.1712
 6332SOL    HW120864   5.149   8.674   7.056 -2.5402 -0.3133 -0.0894
 6332SOL    HW220865   5.148   8.825   7.055 -0.5507 -0.2769 -0.1162
 6333SOL     OW20866   4.458   2.717   7.717 -0.1384 -0.8258 -0.0113
 6333SOL    HW120867   4.549   2.714   7.745  0.0992 -0.0338 -0.6466
 6333SOL    HW220868   4.460   2.761   7.632 -1.1445 -0.4800  0.1222
 6334SOL     OW20869   8.286   7.887   3.819  1.1625 -0.0847 -0.0631
 6334SOL    HW120870   8.208   7.926   3.858  1.1136  1.6290 -1.7427
 6334SOL    HW220871   8.256   7.853   3.735  2.0604 -0.1806 -0.3512
 6335SOL     OW20872   4.525   1.104   9.000 -0.2842  0.2890 -0.0316
 6335SOL    HW120873   4.512   1.175   9.063  0.7537 -0.3545  0.9340
 6335SOL    HW220874   4.619   1.105   8.981 -0.6346  0.7362 -1.9194
 6336SOL     OW20875   4.274   3.591   3.409  0.1366 -0.2683 -0.1023
 6336SOL    HW120876   4.339   3.541   3.359  1.7758  2.3622 -0.7854
 6336SOL    HW220877   4.306   3.588   3.499 -0.4402 -1.3852  0.0850
 6337SOL     OW20878   7.794   2.030   2.811  0.5105  0.2563  0.5862
 6337SOL    HW120879   7.849   1.996   2.741  1.6298  1.6361  0.7319
 6337SOL    HW220880   7.709   2.046   2.770  0.5105 -0.9522  0.0927
 6338SOL     OW20881   5.045   4.979   0.861 -0.0479  0.4477 -0.3641
 6338SOL    HW120882   5.134   4.947   0.852 -0.2733  0.0940 -1.5775
 6338SOL    HW220883   5.034   4.997   0.954  1.2570  0.4190 -0.1993
 6339SOL     OW20884   2.105   1.679   4.188  0.0284 -0.0013 -0.8009
 6339SOL    HW120885   2.123   1.735   4.263 -0.6800 -1.0783  0.2009
 6339SOL    HW220886   2.046   1.731   4.133  0.4466  0.7420 -0.5513
 6340SOL     OW20887   5.703   1.772   7.739 -0.3466 -0.0099  0.0497
 6340SOL    HW120888   5.631   1.709   7.747  0.1352 -0.7110 -0.8317
 6340SOL    HW220889   5.670   1.852   7.779 -1.7749 -0.1996 -0.6664
 6341SOL     OW20890   7.544   7.691   0.660 -0.3788  0.5964 -0.1343
 6341SOL    HW120891   7.511   7.638   0.733  0.0878 -0.6557 -0.8118
 6341SOL    HW220892   7.556   7.779   0.697  1.0356 -0.2897  1.6357
 6342SOL     OW20893   0.886   6.733   0.118 -0.0807 -0.4490 -0.6992
 6342SOL    HW120894   0.906   6.807   0.176  0.4421 -0.7472 -0.4851
 6342SOL    HW220895   0.799   6.752   0.084  0.3659  0.6587 -1.2756
 6343SOL     OW20896   0.810   4.585   7.280 -0.3313 -0.9288  0.6847
 6343SOL    HW120897   0.828   4.589   7.186  2.4221 -0.9742  1.1516
 6343SOL    HW220898   0.748   4.657   7.294  2.4398  1.9956 -0.5717
 6344SOL     OW20899   8.706   4.778   2.369  0.4926  0.4381 -0.0056
 6344SOL    HW120900   8.722   4.723   2.293  0.7988 -0.8694  0.9658
 6344SOL    HW220901   8.791   4.783   2.413  1.0974  3.6811 -1.2701
 6345SOL     OW20902   4.557   3.032   0.631  1.2531  0.2783 -0.0951
 6345SOL    HW120903   4.566   3.009   0.724  2.7375 -1.0350 -0.5305
 6345SOL    HW220904   4.626   3.098   0.617  1.4634 -0.0115 -0.4179
 6346SOL     OW20905   1.993   1.408   2.739  0.2392  0.2987  0.3087
 6346SOL    HW120906   2.037   1.372   2.816 -0.3978  0.5883  0.8151
 6346SOL    HW220907   1.904   1.427   2.768 -0.6410 -1.4549 -1.0316
 6347SOL     OW20908   4.605   0.407   3.313 -0.4013  0.4371 -0.0275
 6347SOL    HW120909   4.527   0.372   3.355  0.0729  0.9089  1.2839
 6347SOL    HW220910   4.599   0.502   3.327 -0.4575  0.6736 -1.4459
 6348SOL     OW20911   7.943   4.225   7.948  0.2104 -0.5589  0.1135
 6348SOL    HW120912   7.931   4.268   7.864 -0.6219  0.2636  0.6418
 6348SOL    HW220913   7.862   4.175   7.962  1.0778 -2.1968 -0.4045
 6349SOL     OW20914   4.007   4.754   3.309 -0.3313  0.3114 -0.4131
 6349SOL    HW120915   4.066   4.811   3.358 -0.3293 -0.0636  0.0296
 6349SOL    HW220916   3.925   4.757   3.358 -0.2049 -0.3862 -0.1479
 6350SOL     OW20917   2.775   0.420   6.379  0.3242 -0.1807  0.0070
 6350SOL    HW120918   2.839   0.373   6.325  0.1770 -0.0731 -0.2645
 6350SOL    HW220919   2.762   0.503   6.332  1.7296  0.8084  1.2610
 6351SOL     OW20920   3.798   5.601   0.117  0.6436  0.1565 -0.3226
 6351SOL    HW120921   3.711   5.625   0.150  1.1675  0.7599  0.6309
 6351SOL    HW220922   3.785   5.594   0.022 -0.9441 -1.8693 -0.0274
 6352SOL     OW20923   6.267   4.473   5.234  0.3723  0.2838  0.5863
 6352SOL    HW120924   6.254   4.519   5.317  0.7533  0.9357  0.2883
 6352SOL    HW220925   6.180   4.442   5.209  0.1512  0.6491  0.9010
 6353SOL     OW20926   4.692   8.899   2.010  0.0764  0.4882  0.3792
 6353SOL    HW120927   4.639   8.965   1.966  0.0957 -0.7003 -1.5360
 6353SOL    HW220928   4.765   8.948   2.048 -0.5166  1.6909  0.0150
 6354SOL     OW20929   4.412   8.291   5.960 -0.2462 -0.4801  0.1978
 6354SOL    HW120930   4.371   8.347   6.027 -0.9763  0.4487 -0.9701
 6354SOL    HW220931   4.339   8.241   5.923 -0.6180  1.8167 -2.5137
 6355SOL     OW20932   4.278   4.925   2.948 -0.1366 -0.1093  0.1019
 6355SOL    HW120933   4.191   4.902   2.916 -0.1759 -1.0251  0.8257
 6355SOL    HW220934   4.271   4.920   3.043  0.8260 -0.6908  0.1620
 6356SOL     OW20935   7.216   1.796   2.688 -0.0282 -0.0321 -0.3004
 6356SOL    HW120936   7.269   1.738   2.634 -1.5111 -2.0679  0.3475
 6356SOL    HW220937   7.257   1.793   2.775 -1.4417 -2.0339  0.3405
 6357SOL     OW20938   7.930   5.249   2.354  0.4801  0.3441 -0.1314
 6357SOL    HW120939   7.956   5.207   2.271 -0.1081  0.6586 -0.4763
 6357SOL    HW220940   7.835   5.242   2.355  0.4963  0.2128  0.5944
 6358SOL     OW20941   6.588   6.752   6.958  0.3837  0.5318  0.9656
 6358SOL    HW120942   6.665   6.738   7.013  1.5534 -1.1794 -0.9366
 6358SOL    HW220943   6.549   6.665   6.949  1.2144  0.3647 -2.1621
 6359SOL     OW20944   1.842   0.870   0.559 -0.1819 -0.2339 -0.0174
 6359SOL    HW120945   1.816   0.939   0.498  0.0854 -0.4872 -0.4287
 6359SOL    HW220946   1.763   0.849   0.608 -0.7772 -1.0199 -1.2672
 6360SOL     OW20947   2.504   1.113   1.174 -0.3396  0.6057  0.4249
 6360SOL    HW120948   2.518   1.203   1.143 -0.7796  0.6081  0.2179
 6360SOL    HW220949   2.463   1.068   1.100 -2.4895  0.9280  1.3444
 6361SOL     OW20950   6.884   0.669   1.910 -0.7891  0.0416 -0.2407
 6361SOL    HW120951   6.967   0.697   1.871 -0.7976 -0.5654 -0.7169
 6361SOL    HW220952   6.865   0.736   1.975  0.1912  0.0708  0.0415
 6362SOL     OW20953   3.352   3.905   7.679 -0.2983  0.0179  0.1291
 6362SOL    HW120954   3.395   3.910   7.594  0.5689 -3.6270  0.2186
 6362SOL    HW220955   3.418   3.936   7.742  0.0991 -0.0701 -0.2467
 6363SOL     OW20956   5.534   1.461   2.499  0.1410 -0.1393  0.2825
 6363SOL    HW120957   5.446   1.423   2.509 -0.9486  2.2985  0.8735
 6363SOL    HW220958   5.542   1.479   2.405 -1.1970  2.1135  0.5411
 6364SOL     OW20959   0.866   6.498   5.956  0.1911 -0.7445  0.0134
 6364SOL    HW120960   0.907   6.453   5.883 -0.9991 -1.2470 -0.3652
 6364SOL    HW220961   0.940   6.536   6.005  0.9936 -0.3331 -1.4630
 6365SOL     OW20962   2.181   5.458   2.158  0.0359  0.1648  0.4506
 6365SOL    HW120963   2.218   5.410   2.084 -0.9204 -0.1135  0.1428
 6365SOL    HW220964   2.242   5.443   2.229  0.5450 -0.2402 -0.0591
 6366SOL     OW20965   6.697   4.202   3.584 -0.1112  0.5254  0.5303
 6366SOL    HW120966   6.761   4.227   3.651  1.4037 -2.7090  0.4893
 6366SOL    HW220967   6.750   4.189   3.505 -1.0361 -0.7511  0.0931
 6367SOL     OW20968   5.338   3.149   7.803 -0.0963 -0.7330 -0.1033
 6367SOL    HW120969   5.308   3.213   7.739 -0.0507 -0.6254 -0.0167
 6367SOL    HW220970   5.258   3.103   7.830 -0.2820  0.0317  0.6578
 6368SOL     OW20971   3.847   5.159   2.280 -0.2021  0.2198  0.3801
 6368SOL    HW120972   3.864   5.175   2.187  0.1387 -0.1648  0.3735
 6368SOL    HW220973   3.879   5.238   2.324 -1.7742  1.0825  0.0475
 6369SOL     OW20974   4.866   0.666   2.907  0.2736  0.1510 -0.5022
 6369SOL    HW120975   4.785   0.620   2.885  1.2667 -0.3527 -3.6130
 6369SOL    HW220976   4.918   0.601   2.954 -0.5745  0.0515  0.3299
 6370SOL     OW20977   0.893   1.652   3.501  0.5279  0.3582 -0.3891
 6370SOL    HW120978   0.917   1.729   3.551  1.0341 -0.0671  0.0298
 6370SOL    HW220979   0.968   1.593   3.509  0.0830 -0.2441 -0.5644
 6371SOL     OW20980   3.503   6.267   2.277 -0.2431  0.6577  0.0136
 6371SOL    HW120981   3.409   6.258   2.262  0.0352 -1.0396 -0.9424
 6371SOL    HW220982   3.530   6.183   2.314  0.7999  1.3794  0.9979
 6372SOL     OW20983   8.111   8.871   4.889 -0.5510 -0.6046  0.1861
 6372SOL    HW120984   8.174   8.924   4.937 -0.4401 -1.5236  1.0936
 6372SOL    HW220985   8.163   8.799   4.852 -0.7948 -0.4268 -0.5270
 6373SOL     OW20986   1.133   5.843   3.501 -0.4707 -0.3532  0.2062
 6373SOL    HW120987   1.120   5.901   3.576  0.0024  0.5077 -0.3587
 6373SOL    HW220988   1.064   5.868   3.440  0.0353 -0.0481 -0.2428
 6374SOL     OW20989   3.630   5.994   5.131  0.1528  0.2688  0.2180
 6374SOL    HW120990   3.690   5.975   5.059  0.2293  1.9180 -0.1962
 6374SOL    HW220991   3.686   6.003   5.208  0.1807 -0.4465  0.2885
 6375SOL     OW20992   5.550   5.420   3.146 -0.3520  0.2412 -0.7690
 6375SOL    HW120993   5.585   5.437   3.059  2.5276  1.7134  0.5125
 6375SOL    HW220994   5.564   5.326   3.160  0.0846  0.1894 -1.5233
 6376SOL     OW20995   0.747   4.898   7.080 -0.1157  0.0958  0.3765
 6376SOL    HW120996   0.713   4.965   7.020 -0.2147 -0.3461 -0.0656
 6376SOL    HW220997   0.668   4.859   7.118 -0.1370 -1.0945 -0.8264
 6377SOL     OW20998   4.888   0.411   7.737 -0.2947  0.0269 -0.1235
 6377SOL    HW120999   4.893   0.488   7.793 -0.9883  0.0504 -0.0904
 6377SOL    HW221000   4.803   0.418   7.694 -0.8484 -1.3111  0.7196
 6378SOL     OW21001   1.861   1.315   4.563 -0.1138 -0.1530  0.5394
 6378SOL    HW121002   1.865   1.377   4.489 -1.5751 -1.7294 -0.9661
 6378SOL    HW221003   1.792   1.350   4.619 -2.1963 -1.2117 -1.2039
 6379SOL     OW21004   4.488   3.893   1.896 -0.0741 -0.0582  0.3938
 6379SOL    HW121005   4.523   3.924   1.813  0.4436 -1.2009  0.1668
 6379SOL    HW221006   4.490   3.970   1.953 -0.5407  0.7659 -0.6695
 6380SOL     OW21007   8.830   4.985   5.360 -0.0291  0.3528  0.2164
 6380SOL    HW121008   8.770   4.940   5.301  2.3053 -0.9928 -1.2804
 6380SOL    HW221009   8.861   5.061   5.311  0.7546  0.0863  0.2751
 6381SOL     OW21010   0.936   6.501   0.889 -0.2232 -0.0801  0.5336
 6381SOL    HW121011   1.010   6.485   0.831  1.0517 -0.0440  2.0920
 6381SOL    HW221012   0.963   6.574   0.944 -1.6025  0.2191  0.8587
 6382SOL     OW21013   4.769   2.275   7.572 -0.2727 -0.1607  0.3238
 6382SOL    HW121014   4.840   2.214   7.551  1.6209  1.5328  1.5040
 6382SOL    HW221015   4.721   2.232   7.643  0.6060 -0.5844  0.6739
 6383SOL     OW21016   6.551   3.697   2.730  0.1246  0.4682 -0.5953
 6383SOL    HW121017   6.479   3.711   2.791 -0.3963  1.7566 -1.4612
 6383SOL    HW221018   6.579   3.607   2.746 -0.4852  0.5321  1.0003
 6384SOL     OW21019   2.302   8.350   6.132 -0.2311 -0.0623 -0.5742
 6384SOL    HW121020   2.397   8.359   6.138 -0.2724 -0.5132  1.8023
 6384SOL    HW221021   2.269   8.439   6.141 -0.0739 -0.2209  2.8372
 6385SOL     OW21022   0.697   1.000   1.088  0.3209  0.0216 -0.2760
 6385SOL    HW121023   0.759   1.064   1.053  0.1087  0.0865 -0.5338
 6385SOL    HW221024   0.752   0.936   1.133  0.5399  0.3390 -0.0917
 6386SOL     OW21025   6.262   1.706   2.184 -0.3791 -0.3041 -0.2400
 6386SOL    HW121026   6.275   1.627   2.133  1.1175 -0.9325  1.0532
 6386SOL    HW221027   6.215   1.678   2.262 -1.2054  0.3602 -0.4817
 6387SOL     OW21028   2.410   2.388   4.025 -0.2858 -0.0276  0.5543
 6387SOL    HW121029   2.384   2.352   4.110  0.5319  2.5118  1.9731
 6387SOL    HW221030   2.363   2.471   4.019 -0.3577 -0.1750 -1.5296
 6388SOL     OW21031   3.058   2.785   2.788  0.0883 -0.2352  0.0553
 6388SOL    HW121032   3.060   2.817   2.697  0.7550 -1.3216 -0.3397
 6388SOL    HW221033   3.136   2.824   2.828 -0.1702  0.1931  0.1442
 6389SOL     OW21034   7.812   5.476   6.150  0.3836 -0.7995 -0.1359
 6389SOL    HW121035   7.806   5.470   6.054  0.3718 -0.8335 -0.1333
 6389SOL    HW221036   7.764   5.399   6.181  0.3457 -0.7618 -0.1016
 6390SOL     OW21037   0.580   5.843   6.271  0.5014  0.2872 -0.2709
 6390SOL    HW121038   0.638   5.817   6.199 -0.4814 -0.5148 -0.7995
 6390SOL    HW221039   0.614   5.797   6.347  0.1540 -0.7432 -0.7267
 6391SOL     OW21040   7.518   3.773   3.057  0.3298 -0.2766 -0.4613
 6391SOL    HW121041   7.511   3.695   3.003 -0.1447  0.2364 -1.1499
 6391SOL    HW221042   7.471   3.751   3.137  0.5459 -0.8339 -0.4840
 6392SOL     OW21043   5.059   5.039   2.931 -0.5951 -0.1266 -0.0837
 6392SOL    HW121044   4.967   5.014   2.920 -0.7525  0.0831  0.6789
 6392SOL    HW221045   5.097   4.968   2.982 -0.7978  0.6628  1.2162
 6393SOL     OW21046   3.351   4.073   8.653 -0.6699 -0.1118  0.5310
 6393SOL    HW121047   3.394   4.012   8.593 -2.4472 -1.0728  0.1836
 6393SOL    HW221048   3.390   4.055   8.738  0.3901 -0.1738  0.0487
 6394SOL     OW21049   6.992   1.420   2.869 -0.1093 -0.7602 -0.9334
 6394SOL    HW121050   7.077   1.453   2.837  0.1657  0.0905  0.5829
 6394SOL    HW221051   6.993   1.327   2.848  2.0948 -1.2247  0.8069
 6395SOL     OW21052   0.762   0.073   4.184 -0.1496 -0.1245  0.3881
 6395SOL    HW121053   0.685   0.060   4.241  0.2644  1.5503  1.4013
 6395SOL    HW221054   0.836   0.044   4.238  0.0955 -0.1479  0.0389
 6396SOL     OW21055   8.210   2.721   4.044  0.1984  0.0827  0.6041
 6396SOL    HW121056   8.281   2.778   4.017  0.8698 -1.1797 -0.4586
 6396SOL    HW221057   8.247   2.633   4.040 -1.5587 -0.6767 -0.6168
 6397SOL     OW21058   0.422   4.134   6.362 -0.1032  0.0193 -0.0554
 6397SOL    HW121059   0.373   4.216   6.366  0.4152  0.3396 -0.1178
 6397SOL    HW221060   0.472   4.133   6.444 -0.8958 -0.7435  0.4308
 6398SOL     OW21061   7.378   5.934   1.141 -0.3517  0.2233 -0.0762
 6398SOL    HW121062   7.424   6.015   1.163 -0.0121  0.7328 -2.3689
 6398SOL    HW221063   7.363   5.941   1.046 -0.1970 -2.4425 -0.3603
 6399SOL     OW21064   3.079   4.921   5.041  0.3515  0.7585 -0.0816
 6399SOL    HW121065   3.061   4.929   5.134 -0.6463 -1.5960 -0.0034
 6399SOL    HW221066   2.994   4.934   4.998  0.8740  2.2610 -0.7405
 6400SOL     OW21067   6.469   7.580   4.342  0.0451  0.3390 -0.8028
 6400SOL    HW121068   6.526   7.637   4.394  1.1929 -4.1675  3.7181
 6400SOL    HW221069   6.523   7.552   4.269  2.1146 -0.2822  0.8540
 6401SOL     OW21070   1.175   1.881   6.251  0.2817  0.6211 -0.4508
 6401SOL    HW121071   1.092   1.836   6.267  0.8413  0.5246  2.6308
 6401SOL    HW221072   1.149   1.969   6.222 -0.8926  0.5701  0.3979
 6402SOL     OW21073   8.434   0.718   0.549  0.1935  0.1183 -0.9500
 6402SOL    HW121074   8.428   0.764   0.633  0.9193 -0.3735 -0.6210
 6402SOL    HW221075   8.385   0.774   0.488  0.2901  0.8615 -0.3646
 6403SOL     OW21076   3.415   5.522   1.300  0.3612  0.0153  0.6315
 6403SOL    HW121077   3.387   5.609   1.273  1.2220  0.0773 -0.0981
 6403SOL    HW221078   3.507   5.517   1.274  0.4126 -0.9860  0.9669
 6404SOL     OW21079   3.708   0.935   1.399  0.3574 -0.2504  0.1330
 6404SOL    HW121080   3.652   0.950   1.475  1.9820  1.1019  1.1175
 6404SOL    HW221081   3.777   0.877   1.431  0.4785 -0.5237 -0.5984
 6405SOL     OW21082   7.989   8.286   8.083  0.0651 -0.1928 -0.2505
 6405SOL    HW121083   7.973   8.370   8.040  2.8433  0.3117 -0.4903
 6405SOL    HW221084   7.955   8.221   8.022 -1.1052  0.6969 -0.5795
 6406SOL     OW21085   0.953   1.568   4.182 -0.1566  0.0843 -0.6614
 6406SOL    HW121086   0.994   1.654   4.195  0.6616 -0.6219  1.9586
 6406SOL    HW221087   1.021   1.514   4.144  0.8160 -0.5068  1.7242
 6407SOL     OW21088   2.869   8.911   8.673 -0.4393 -0.4366  0.0052
 6407SOL    HW121089   2.930   8.979   8.646  0.4923 -1.5395 -0.7867
 6407SOL    HW221090   2.920   8.855   8.732 -0.9800 -0.8269  0.1102
 6408SOL     OW21091   1.594   5.556   5.442 -0.0140  0.1298  0.5309
 6408SOL    HW121092   1.645   5.629   5.406 -1.1983  0.9591  0.5103
 6408SOL    HW221093   1.587   5.494   5.369 -1.6548  1.4117 -0.4535
 6409SOL     OW21094   3.146   0.868   5.267  0.0266 -0.3290  0.3913
 6409SOL    HW121095   3.051   0.877   5.275  0.1888  0.8889  1.3501
 6409SOL    HW221096   3.176   0.956   5.244  1.0669 -0.2543  1.8650
 6410SOL     OW21097   5.792   7.172   2.488  0.5809  0.2757 -0.2344
 6410SOL    HW121098   5.759   7.146   2.574  0.8432  0.3823 -0.1008
 6410SOL    HW221099   5.805   7.267   2.495 -1.8990  0.7841 -1.2177
 6411SOL     OW21100   0.627   1.549   7.897  0.5230  0.0738 -0.5296
 6411SOL    HW121101   0.665   1.592   7.974  2.4902 -2.2263 -0.1000
 6411SOL    HW221102   0.682   1.471   7.884 -3.5888 -3.1505 -0.4021
 6412SOL     OW21103   0.721   6.833   7.685  0.2877 -0.4615  0.6618
 6412SOL    HW121104   0.776   6.800   7.614  1.4917  1.8590  0.4370
 6412SOL    HW221105   0.765   6.802   7.764  0.3424 -0.9734  0.4351
 6413SOL     OW21106   1.286   1.249   0.651  0.0118  0.4860 -0.2888
 6413SOL    HW121107   1.301   1.299   0.571 -0.0734  0.8870 -0.0546
 6413SOL    HW221108   1.256   1.163   0.620  1.2073  0.2014 -0.7195
 6414SOL     OW21109   4.738   7.850   5.470 -0.0430 -0.5511 -0.2896
 6414SOL    HW121110   4.767   7.914   5.406  1.1503  1.3031  1.9361
 6414SOL    HW221111   4.811   7.789   5.478  1.1420  0.9803  1.3894
 6415SOL     OW21112   5.179   7.920   6.525 -0.0546 -0.1774  0.0509
 6415SOL    HW121113   5.139   7.975   6.593 -0.4423 -0.4947  0.0867
 6415SOL    HW221114   5.116   7.923   6.453  0.6998  0.7488 -0.5857
 6416SOL     OW21115   6.829   3.597   6.430  0.8318  0.3211 -0.7583
 6416SOL    HW121116   6.891   3.659   6.391  2.8579 -0.6723  0.6891
 6416SOL    HW221117   6.833   3.520   6.374  1.2211  0.1195 -0.4607
 6417SOL     OW21118   7.678   7.060   0.214 -0.2747  0.1074  0.2161
 6417SOL    HW121119   7.702   6.990   0.274  1.5665 -0.6255 -1.2488
 6417SOL    HW221120   7.583   7.055   0.208 -0.3487 -0.9174  1.6987
 6418SOL     OW21121   4.590   4.242   3.599  0.0896  0.3999 -0.1770
 6418SOL    HW121122   4.683   4.253   3.577 -0.2847 -0.8824 -2.7995
 6418SOL    HW221123   4.584   4.151   3.630 -0.0967  0.9214  1.3796
 6419SOL     OW21124   7.483   7.891   6.369  0.0996  0.1806  0.0933
 6419SOL    HW121125   7.499   7.925   6.457 -1.6556  2.2728 -0.2940
 6419SOL    HW221126   7.441   7.964   6.323 -0.3871 -1.3528 -2.0308
 6420SOL     OW21127   8.898   7.756   2.522  0.2894  0.1207  0.1655
 6420SOL    HW121128   8.813   7.713   2.526  0.4121 -0.2445 -0.9306
 6420SOL    HW221129   8.908   7.796   2.609 -0.0587 -1.6218  1.0689
 6421SOL     OW21130   5.387   6.838   7.061  0.0898  0.3422 -0.7438
 6421SOL    HW121131   5.478   6.860   7.083 -0.1144  1.2782 -0.8070
 6421SOL    HW221132   5.336   6.872   7.134 -0.3269  1.0167 -1.3343
 6422SOL     OW21133   1.793   2.443   1.455 -0.5067  0.7562 -0.2185
 6422SOL    HW121134   1.755   2.365   1.496 -0.0707  1.5488  1.7868
 6422SOL    HW221135   1.862   2.409   1.399  0.9873 -0.2698  2.0864
 6423SOL     OW21136   7.079   1.297   6.520  0.8615  0.4006  0.4782
 6423SOL    HW121137   7.147   1.364   6.525  0.5722  0.6055  2.7306
 6423SOL    HW221138   7.033   1.303   6.604 -1.2146 -0.4932 -0.5198
 6424SOL     OW21139   6.437   6.835   3.184 -0.1010 -0.1597  0.2984
 6424SOL    HW121140   6.497   6.790   3.243  0.8794 -2.3104 -2.1186
 6424SOL    HW221141   6.359   6.780   3.183 -0.8739  0.8902  0.9791
 6425SOL     OW21142   0.666   8.701   8.989 -0.4242 -0.1119  0.0898
 6425SOL    HW121143   0.744   8.720   9.042  0.6714 -0.0587 -1.4799
 6425SOL    HW221144   0.658   8.606   8.992 -0.9001 -0.0546  1.0513
 6426SOL     OW21145   1.904   7.292   8.090  0.7154  0.0432 -0.4225
 6426SOL    HW121146   1.981   7.343   8.067  0.0014  0.9327 -0.9311
 6426SOL    HW221147   1.831   7.352   8.076 -0.0646 -0.7649  0.0876
 6427SOL     OW21148   3.394   4.754   7.789  0.0329  0.3493 -0.2919
 6427SOL    HW121149   3.402   4.843   7.821  0.6818  0.2744 -0.2348
 6427SOL    HW221150   3.484   4.725   7.775 -0.0836 -0.8218  1.1470
 6428SOL     OW21151   3.192   5.458   6.383  0.4299  0.6251 -0.0141
 6428SOL    HW121152   3.261   5.422   6.438 -0.8340 -0.6185  0.8160
 6428SOL    HW221153   3.118   5.472   6.442 -1.5320 -2.2463 -1.5337
 6429SOL     OW21154   6.459   1.142   0.657 -0.3407 -0.2001 -0.1819
 6429SOL    HW121155   6.496   1.095   0.731  0.6178 -1.8106 -1.6045
 6429SOL    HW221156   6.520   1.213   0.639  0.2031 -0.6942 -0.3110
 6430SOL     OW21157   8.999   5.007   8.419  0.2148  0.2771  0.4143
 6430SOL    HW121158   8.942   5.070   8.464  1.0252  1.1522  0.2545
 6430SOL    HW221159   9.045   4.961   8.489 -2.2102 -2.0147  0.6677
 6431SOL     OW21160   3.653   5.902   2.252  0.2453  0.0227 -0.0372
 6431SOL    HW121161   3.693   5.952   2.180  0.8083 -1.1443 -0.5653
 6431SOL    HW221162   3.625   5.821   2.211  0.2898 -0.5356  1.0157
 6432SOL     OW21163   4.654   8.280   8.720 -0.1147  0.4126  0.2098
 6432SOL    HW121164   4.603   8.284   8.639  0.0467 -0.6270  0.0326
 6432SOL    HW221165   4.745   8.284   8.691  0.0280 -1.9691  0.1099
 6433SOL     OW21166   8.045   8.625   3.747  0.2662 -0.4920 -0.1860
 6433SOL    HW121167   8.068   8.694   3.809  1.1504 -0.5983 -0.3839
 6433SOL    HW221168   8.036   8.547   3.801 -1.0272 -0.1921  0.0820
 6434SOL     OW21169   8.925   6.443   7.002 -0.3384  0.3269 -0.0309
 6434SOL    HW121170   8.915   6.424   6.909 -1.0251  3.3962 -0.7044
 6434SOL    HW221171   8.868   6.380   7.046 -0.0168 -1.1692 -1.6553
 6435SOL     OW21172   4.263   7.589   4.363  0.0954 -0.0526 -0.2067
 6435SOL    HW121173   4.219   7.632   4.436 -0.2898  0.7668 -0.9093
 6435SOL    HW221174   4.192   7.568   4.301  0.5835  0.6672 -1.0399
 6436SOL     OW21175   0.287   7.562   2.030 -0.2368 -0.3491 -0.2196
 6436SOL    HW121176   0.203   7.533   1.995 -1.7577  1.3388  1.8097
 6436SOL    HW221177   0.305   7.502   2.102 -0.0013 -0.3447 -0.2739
 6437SOL     OW21178   1.622   8.993   8.949  1.0913  0.2400  0.1106
 6437SOL    HW121179   1.693   9.052   8.924  0.5185  0.3016 -1.5315
 6437SOL    HW221180   1.550   9.052   8.973  0.0859  0.3697 -2.7577
 6438SOL     OW21181   1.649   7.170   7.594  0.3186 -0.3310 -0.9573
 6438SOL    HW121182   1.690   7.102   7.541 -0.9951 -0.5509 -1.7243
 6438SOL    HW221183   1.565   7.133   7.621  1.5848 -0.9133  2.7585
 6439SOL     OW21184   1.746   3.653   3.132  0.1402 -0.4109  0.0585
 6439SOL    HW121185   1.737   3.748   3.139  2.2299 -0.2366  1.2187
 6439SOL    HW221186   1.826   3.640   3.081 -0.0160 -1.5551  0.0678
 6440SOL     OW21187   6.912   7.748   4.718  0.2539 -0.8149  0.1338
 6440SOL    HW121188   6.830   7.699   4.707 -0.5401  0.5409 -0.2245
 6440SOL    HW221189   6.965   7.724   4.642  0.1744 -1.6547  0.3329
 6441SOL     OW21190   1.510   5.413   5.201  0.2398 -0.2956  0.2360
 6441SOL    HW121191   1.455   5.487   5.227  0.1742  0.5728 -2.1466
 6441SOL    HW221192   1.545   5.437   5.116  1.0574 -2.5871 -0.1604
 6442SOL     OW21193   6.681   3.820   4.185  0.5490  0.3043 -0.5704
 6442SOL    HW121194   6.713   3.730   4.197  1.9251  0.7506 -0.7292
 6442SOL    HW221195   6.641   3.819   4.098 -1.6001 -0.7237  0.3628
 6443SOL     OW21196   4.220   3.016   0.652  0.0145  0.1507  0.1373
 6443SOL    HW121197   4.192   2.987   0.565  0.8600  0.4667 -0.2477
 6443SOL    HW221198   4.284   2.951   0.680 -0.9699 -0.4943  0.9599
 6444SOL     OW21199   6.518   6.493   7.753 -0.5497 -0.3259 -0.0515
 6444SOL    HW121200   6.464   6.491   7.674  0.2822  0.0533 -0.6485
 6444SOL    HW221201   6.515   6.583   7.783  1.9975  0.4486 -1.7435
 6445SOL     OW21202   0.048   4.121   6.188 -0.4556 -0.2342  0.0878
 6445SOL    HW121203   0.018   4.089   6.102 -1.1663  0.7195 -0.0279
 6445SOL    HW221204   0.084   4.208   6.170  2.3498 -1.2504  0.2431
 6446SOL     OW21205   0.174   2.123   4.665  0.3871 -0.0490  0.6435
 6446SOL    HW121206   0.172   2.194   4.601 -1.1278 -0.5324  0.0949
 6446SOL    HW221207   0.168   2.043   4.613  0.0284 -0.4882  1.3348
 6447SOL     OW21208   1.055   1.955   4.920 -0.4083 -0.4661 -0.0603
 6447SOL    HW121209   0.982   1.952   4.859 -0.8678 -0.3520  0.4776
 6447SOL    HW221210   1.127   1.913   4.874 -1.1838 -1.8120 -0.0785
 6448SOL     OW21211   5.199   1.866   2.122  0.1941 -0.5802 -0.1276
 6448SOL    HW121212   5.140   1.792   2.137  1.5128 -1.3339  1.8367
 6448SOL    HW221213   5.150   1.942   2.155 -0.8206 -0.6947 -1.3201
 6449SOL     OW21214   6.654   0.364   0.080 -0.0110 -0.1449 -0.0200
 6449SOL    HW121215   6.742   0.325   0.083 -0.2861 -0.8734 -0.8663
 6449SOL    HW221216   6.662   0.446   0.127  1.7996  1.1147 -2.3131
 6450SOL     OW21217   4.590   0.767   4.321  0.2249  0.2239  0.4354
 6450SOL    HW121218   4.573   0.857   4.348  0.9264  0.9047 -1.2567
 6450SOL    HW221219   4.669   0.743   4.370  0.0529  0.5216  0.8737
 6451SOL     OW21220   8.140   2.531   0.326 -0.1602 -0.2668  0.5656
 6451SOL    HW121221   8.156   2.625   0.330 -0.4788 -0.1853  0.0127
 6451SOL    HW221222   8.047   2.524   0.304 -0.1015 -0.7114  0.4561
 6452SOL     OW21223   5.704   5.804   6.295 -0.0782  0.0109  0.0533
 6452SOL    HW121224   5.743   5.754   6.223  1.1664  0.8281  0.1394
 6452SOL    HW221225   5.679   5.887   6.254  1.2043  0.7247  0.6677
 6453SOL     OW21226   5.883   8.082   8.855  0.2764  0.3917 -0.4174
 6453SOL    HW121227   5.812   8.018   8.853  0.1108  0.5894 -1.0159
 6453SOL    HW221228   5.863   8.138   8.930 -1.1316  1.4909 -1.5444
 6454SOL     OW21229   3.221   5.277   8.585 -0.4412  0.3333  0.1877
 6454SOL    HW121230   3.250   5.229   8.662  1.0348 -1.1199 -1.2038
 6454SOL    HW221231   3.139   5.234   8.559 -0.8808  0.7541  0.8353
 6455SOL     OW21232   6.527   6.893   6.407  0.0814 -0.0641 -0.0624
 6455SOL    HW121233   6.561   6.866   6.492  0.5357  1.5914  0.3149
 6455SOL    HW221234   6.469   6.822   6.381  0.5111 -0.9466  1.2776
 6456SOL     OW21235   8.525   0.512   2.049  0.0919 -0.4184  0.7857
 6456SOL    HW121236   8.550   0.431   2.005 -1.2419 -0.4549  0.0474
 6456SOL    HW221237   8.556   0.581   1.991 -1.2038 -0.4604  0.0040
 6457SOL     OW21238   2.037   0.717   0.422 -0.0868 -0.5968  0.1614
 6457SOL    HW121239   2.102   0.787   0.433  1.0585 -1.8893  2.1162
 6457SOL    HW221240   1.959   0.749   0.467 -0.1050  0.0474 -0.3103
 6458SOL     OW21241   6.890   5.018   8.479  0.1845  0.0439  0.1195
 6458SOL    HW121242   6.811   4.964   8.485  0.5202 -0.3523  1.2292
 6458SOL    HW221243   6.884   5.059   8.393 -0.9566 -0.4014 -0.0374
 6459SOL     OW21244   3.425   7.904   5.885  0.0015 -0.0085 -0.1364
 6459SOL    HW121245   3.369   7.835   5.921  0.2115 -0.3891 -0.5350
 6459SOL    HW221246   3.386   7.924   5.800  1.1090 -1.0749 -0.9308
 6460SOL     OW21247   8.912   8.770   4.728  0.2317  0.1464 -0.6064
 6460SOL    HW121248   8.925   8.720   4.648  1.2250  1.0688 -1.0529
 6460SOL    HW221249   8.856   8.843   4.701 -0.2646 -0.0830 -0.2196
 6461SOL     OW21250   2.261   5.026   1.902  0.1380 -0.5918 -0.7441
 6461SOL    HW121251   2.257   5.096   1.837  1.7947 -0.2023 -0.4585
 6461SOL    HW221252   2.244   5.071   1.985 -4.2630 -1.4108 -0.9667
 6462SOL     OW21253   2.993   7.772   0.599 -0.0222  0.2560  0.5968
 6462SOL    HW121254   3.083   7.795   0.621  0.4874 -0.4210 -0.6567
 6462SOL    HW221255   2.999   7.682   0.565 -0.7149  1.1153 -2.0166
 6463SOL     OW21256   8.824   8.264   7.211 -0.4842  0.5305 -0.0597
 6463SOL    HW121257   8.808   8.359   7.211  0.7269  0.7448 -0.2600
 6463SOL    HW221258   8.916   8.255   7.234 -0.5227 -0.5952 -0.3071
 6464SOL     OW21259   2.626   5.796   7.987  0.0136  1.1050  0.1450
 6464SOL    HW121260   2.634   5.890   7.970 -2.8794  1.3107 -0.6290
 6464SOL    HW221261   2.617   5.757   7.900 -2.6943  0.6563  0.5382
 6465SOL     OW21262   2.550   8.397   2.680 -0.1255  0.0424 -0.6656
 6465SOL    HW121263   2.610   8.341   2.631 -0.7874 -0.7465 -0.5897
 6465SOL    HW221264   2.591   8.483   2.678  1.2517 -0.5717 -0.2152
 6466SOL     OW21265   5.741   2.484   1.478  0.4298  0.3166  0.2685
 6466SOL    HW121266   5.675   2.470   1.410  0.2584  1.2129  0.2351
 6466SOL    HW221267   5.700   2.451   1.558  0.9334 -1.4708 -0.1752
 6467SOL     OW21268   8.520   1.416   5.124  0.2648  0.4863 -0.8727
 6467SOL    HW121269   8.608   1.394   5.154 -1.0096 -0.3751  2.7711
 6467SOL    HW221270   8.487   1.334   5.087  0.1379  0.0086  0.2433
 6468SOL     OW21271   0.293   1.418   8.455  0.1173  0.7536 -0.6162
 6468SOL    HW121272   0.309   1.427   8.360  1.6605  1.3223 -0.3391
 6468SOL    HW221273   0.380   1.407   8.492 -0.6608 -3.0195  0.4390
 6469SOL     OW21274   1.991   7.331   5.638  0.3300 -0.1314  0.4874
 6469SOL    HW121275   1.969   7.424   5.635 -1.0725 -0.4537  0.4288
 6469SOL    HW221276   1.990   7.303   5.547  0.5626 -0.2578  0.5217
 6470SOL     OW21277   8.553   8.108   7.911  0.2434  0.0168  0.0288
 6470SOL    HW121278   8.579   8.030   7.960 -0.2570  0.0654  0.3884
 6470SOL    HW221279   8.583   8.181   7.964  1.5309  0.0903 -0.7557
 6471SOL     OW21280   6.717   4.277   5.178  0.1010  0.8498 -0.1602
 6471SOL    HW121281   6.720   4.217   5.103 -0.8026  1.8433 -1.0328
 6471SOL    HW221282   6.627   4.310   5.178  0.6583  2.4291  0.1079
 6472SOL     OW21283   7.523   1.169   0.690  0.4540 -0.4071  0.4245
 6472SOL    HW121284   7.483   1.253   0.668  0.7746 -0.3239  0.1508
 6472SOL    HW221285   7.456   1.122   0.739  0.3108  0.0533  0.6768
 6473SOL     OW21286   2.057   8.779   3.230 -0.2608  0.7906  0.1355
 6473SOL    HW121287   2.094   8.717   3.167 -1.3244  1.2203 -0.9448
 6473SOL    HW221288   2.129   8.798   3.290  1.2056  1.3934 -1.7327
 6474SOL     OW21289   7.573   4.354   8.973 -0.4799  0.2494 -0.3096
 6474SOL    HW121290   7.567   4.399   9.057  4.8071  0.6763  0.1505
 6474SOL    HW221291   7.581   4.424   8.908 -0.2529 -0.0547 -0.6151
 6475SOL     OW21292   6.134   7.841   7.935 -0.3707 -0.4109  0.6144
 6475SOL    HW121293   6.118   7.749   7.918  2.2468 -1.2400  1.9701
 6475SOL    HW221294   6.079   7.862   8.011 -1.6969 -0.5401 -0.2858
 6476SOL     OW21295   4.384   7.199   5.745 -0.0888 -0.0131  0.2485
 6476SOL    HW121296   4.325   7.201   5.669  0.2573 -0.5137 -0.0363
 6476SOL    HW221297   4.361   7.278   5.794  0.8933  1.3006 -1.2871
 6477SOL     OW21298   8.509   8.772   6.186  0.5835 -0.3644  0.3688
 6477SOL    HW121299   8.515   8.693   6.240  0.4776 -0.1880  0.6365
 6477SOL    HW221300   8.532   8.844   6.245 -2.5186  0.1984  1.0430
 6478SOL     OW21301   8.685   5.680   0.469  0.0111 -0.3702 -0.0028
 6478SOL    HW121302   8.706   5.734   0.545  1.3034  0.3107 -0.8198
 6478SOL    HW221303   8.757   5.694   0.408 -0.4976 -1.6750 -0.9612
 6479SOL     OW21304   1.507   4.654   7.879  0.6716  0.5061  0.4817
 6479SOL    HW121305   1.546   4.586   7.935 -0.3776 -0.4140  0.1294
 6479SOL    HW221306   1.515   4.618   7.791 -0.8176  0.3634  0.3894
 6480SOL     OW21307   1.485   8.437   8.447 -0.0240 -0.1879 -0.2037
 6480SOL    HW121308   1.446   8.487   8.518 -0.2903  0.1602 -0.5872
 6480SOL    HW221309   1.451   8.478   8.367 -0.6579 -1.2852 -0.5239
 6481SOL     OW21310   6.544   0.028   5.905  0.3937 -0.5788  0.0653
 6481SOL    HW121311   6.460  -0.015   5.886 -0.9924  1.1360  1.8308
 6481SOL    HW221312   6.606  -0.044   5.915 -1.3373 -2.0529  0.8200
 6482SOL     OW21313   0.695   0.034   4.913 -0.0758  0.3245 -0.5900
 6482SOL    HW121314   0.690   0.069   4.824 -1.7072  0.6453 -0.4036
 6482SOL    HW221315   0.656   0.102   4.968  0.3704 -0.1212  0.3027
 6483SOL     OW21316   8.690   3.729   0.008 -0.1502  0.1142  0.7010
 6483SOL    HW121317   8.773   3.768   0.037  0.7072 -0.5961 -0.6717
 6483SOL    HW221318   8.716   3.647  -0.033 -1.7517 -1.0962  2.0007
 6484SOL     OW21319   7.023   3.541   4.169  0.2784 -0.4095 -0.4926
 6484SOL    HW121320   7.088   3.592   4.121  0.8566 -0.3946  0.2757
 6484SOL    HW221321   6.965   3.506   4.102 -0.8128  2.1377 -0.9609
 6485SOL     OW21322   0.783   6.672   4.047 -0.1246  0.3218  0.5013
 6485SOL    HW121323   0.830   6.732   3.990 -0.2000  0.7212  0.8594
 6485SOL    HW221324   0.691   6.698   4.039 -0.3892 -0.8375 -0.6673
 6486SOL     OW21325   5.233   4.889   4.261  0.1858 -0.1263 -0.2190
 6486SOL    HW121326   5.210   4.800   4.238  1.1893 -0.5099  0.1880
 6486SOL    HW221327   5.312   4.880   4.315 -0.4881  0.9023  0.9931
 6487SOL     OW21328   5.895   8.584   4.257  0.3500 -0.6162 -0.4949
 6487SOL    HW121329   5.817   8.532   4.278 -0.5244  1.1979  1.0022
 6487SOL    HW221330   5.939   8.595   4.341  0.6675  0.7794 -0.8272
 6488SOL     OW21331   1.051   4.887   5.661  0.0883  0.3017  0.2931
 6488SOL    HW121332   1.052   4.973   5.621  0.7944 -0.9050 -2.4997
 6488SOL    HW221333   0.958   4.864   5.667 -0.0975  1.2157  1.0212
 6489SOL     OW21334   8.204   7.459   8.714  0.4538  0.1817  0.8987
 6489SOL    HW121335   8.266   7.479   8.785 -0.6567  2.6668  1.2611
 6489SOL    HW221336   8.199   7.540   8.663 -0.4053 -0.8829 -0.7678
 6490SOL     OW21337   8.832   0.992   1.028 -0.1975 -0.3049 -0.5190
 6490SOL    HW121338   8.837   1.082   1.062  1.5653 -0.4868 -0.2243
 6490SOL    HW221339   8.840   1.002   0.933 -0.0849 -0.1518 -0.4940
 6491SOL     OW21340   3.806   2.363   2.729  0.4475  0.5687 -0.1480
 6491SOL    HW121341   3.771   2.433   2.783  1.7933  0.5696  0.7637
 6491SOL    HW221342   3.832   2.295   2.792  0.2419 -0.2614 -0.9349
 6492SOL     OW21343   5.283   5.249   5.471  0.0369  0.3689  0.2985
 6492SOL    HW121344   5.297   5.234   5.377  2.9214  1.6990  0.3991
 6492SOL    HW221345   5.227   5.326   5.475  1.1719  1.2612 -0.3971
 6493SOL     OW21346   2.557   3.105   8.592  0.0464 -0.4730  0.4248
 6493SOL    HW121347   2.594   3.037   8.648  0.3923 -0.1672  0.5750
 6493SOL    HW221348   2.564   3.070   8.503 -0.4929 -0.9546  0.5686
 6494SOL     OW21349   6.417   1.561   7.660  0.4322 -0.2632 -0.5148
 6494SOL    HW121350   6.448   1.584   7.748  0.9647 -1.5508 -0.3331
 6494SOL    HW221351   6.332   1.519   7.675 -0.3892  1.2159 -0.8132
 6495SOL     OW21352   5.192   1.100   5.539 -0.2261  0.2805 -0.2320
 6495SOL    HW121353   5.099   1.102   5.519 -0.4310  0.7237  0.6941
 6495SOL    HW221354   5.196   1.072   5.630  0.5699 -0.0983 -0.3755
 6496SOL     OW21355   0.205   0.288   8.313 -0.1050 -0.0270  0.6568
 6496SOL    HW121356   0.112   0.310   8.308 -0.2011 -0.6503 -1.2401
 6496SOL    HW221357   0.214   0.237   8.394 -1.5521 -0.5663  0.5009
 6497SOL     OW21358   8.592   5.995   2.070  0.2233 -0.5087  0.0284
 6497SOL    HW121359   8.554   5.922   2.020 -1.1200  0.4816 -0.4528
 6497SOL    HW221360   8.675   6.013   2.027  0.0436 -1.0147 -0.5428
 6498SOL     OW21361   7.287   8.690   3.699 -0.2841  0.0477  0.4383
 6498SOL    HW121362   7.194   8.702   3.718  0.0321  1.7361  1.1150
 6498SOL    HW221363   7.327   8.668   3.783  0.0136 -0.0740  0.2682
 6499SOL     OW21364   1.960   1.470   4.837  0.1430 -0.0199 -0.0131
 6499SOL    HW121365   1.957   1.421   4.919 -0.9838 -3.1169 -1.7365
 6499SOL    HW221366   2.023   1.540   4.853  1.9858 -2.0820  2.6490
 6500SOL     OW21367   5.261   1.053   3.818 -0.1684 -0.1179  0.3528
 6500SOL    HW121368   5.195   1.113   3.854  1.3014  1.4892  0.5088
 6500SOL    HW221369   5.345   1.095   3.837  0.8495 -1.1577 -1.4948
 6501SOL     OW21370   7.576   0.919   7.543 -0.5546 -0.1896  0.7195
 6501SOL    HW121371   7.570   1.012   7.562 -0.8304  0.2495 -1.2423
 6501SOL    HW221372   7.489   0.895   7.509 -0.0362 -0.7807 -0.2427
 6502SOL     OW21373   3.426   4.286   2.916 -0.5114  0.7613 -0.4808
 6502SOL    HW121374   3.377   4.226   2.860 -0.4736  0.4339 -0.1681
 6502SOL    HW221375   3.516   4.280   2.885 -0.1674 -0.7088  0.6824
 6503SOL     OW21376   3.270   4.668   2.353  0.3065 -0.4871  0.2001
 6503SOL    HW121377   3.175   4.666   2.368  0.1318 -1.8935 -0.9438
 6503SOL    HW221378   3.279   4.691   2.261  1.0622 -0.9733  0.1491
 6504SOL     OW21379   5.128   2.005   7.722 -0.2849  0.1298  1.2621
 6504SOL    HW121380   5.044   1.986   7.765 -0.8238  2.8467  1.5434
 6504SOL    HW221381   5.105   2.055   7.645  0.9556 -1.6212 -0.3471
 6505SOL     OW21382   8.400   4.064   1.920 -0.4857 -0.2883  0.0707
 6505SOL    HW121383   8.481   4.044   1.967  0.1456  0.4772 -0.6455
 6505SOL    HW221384   8.333   4.072   1.988  0.3603  0.6157  0.8352
 6506SOL     OW21385   0.375   3.579   5.712  0.1925  0.1169  0.1502
 6506SOL    HW121386   0.469   3.592   5.711  0.0320  1.4817 -0.3949
 6506SOL    HW221387   0.349   3.597   5.802  0.3123  1.1570 -0.0021
 6507SOL     OW21388   8.340   4.504   0.117  0.8738 -0.1179  0.2094
 6507SOL    HW121389   8.346   4.411   0.141  0.6774 -0.3252 -0.5362
 6507SOL    HW221390   8.283   4.506   0.040  2.3155  0.4014 -0.9045
 6508SOL     OW21391   8.182   3.492   2.560 -0.0692  0.2570  0.6157
 6508SOL    HW121392   8.096   3.534   2.563  0.0213  0.7405 -1.8290
 6508SOL    HW221393   8.165   3.403   2.530  0.2114  0.1086  0.8904
 6509SOL     OW21394   6.985   3.824   1.342  0.1400 -0.1283 -0.0054
 6509SOL    HW121395   6.892   3.804   1.343 -0.1213  0.9809 -0.4203
 6509SOL    HW221396   7.024   3.754   1.290 -0.5005 -0.4439 -0.0709
 6510SOL     OW21397   2.945   3.099   8.403  0.0993  0.0723 -0.1334
 6510SOL    HW121398   2.975   3.022   8.353 -0.4130  0.2129 -0.6739
 6510SOL    HW221399   2.872   3.133   8.352 -1.1424 -0.3993  1.2555
 6511SOL     OW21400   4.772   1.750   6.469  0.7015 -0.5203  0.4253
 6511SOL    HW121401   4.853   1.699   6.462  0.2135 -1.1872 -0.7461
 6511SOL    HW221402   4.703   1.688   6.443  0.1890  0.9611 -2.0933
 6512SOL     OW21403   3.218   1.195   8.283  0.2054 -0.3951  0.2428
 6512SOL    HW121404   3.188   1.267   8.227  1.4086  0.0926  0.1980
 6512SOL    HW221405   3.145   1.180   8.343 -1.0615 -0.8375 -1.3291
 6513SOL     OW21406   6.209   0.462   5.529 -0.5650 -0.1420  0.5376
 6513SOL    HW121407   6.304   0.456   5.519 -0.2308 -0.5744  3.2352
 6513SOL    HW221408   6.188   0.551   5.499  0.9122  0.4544  1.1493
 6514SOL     OW21409   7.367   8.210   4.227  0.3151  0.2456  0.0131
 6514SOL    HW121410   7.447   8.169   4.261 -0.0632 -0.0740  0.5344
 6514SOL    HW221411   7.303   8.140   4.226 -0.1882  0.6869  0.3889
 6515SOL     OW21412   0.265   3.187   8.138 -0.1578 -1.1223 -0.8126
 6515SOL    HW121413   0.257   3.110   8.194  1.8673 -0.5250  0.3793
 6515SOL    HW221414   0.237   3.260   8.193  1.2000 -0.6142 -0.7606
 6516SOL     OW21415   0.615   6.483   5.636  0.0720 -0.0590  0.3951
 6516SOL    HW121416   0.562   6.412   5.599  0.5696 -0.0327 -0.3878
 6516SOL    HW221417   0.590   6.560   5.585  1.7806 -0.2936 -0.8697
 6517SOL     OW21418   3.225   7.924   7.713 -0.0849 -0.7451  0.5032
 6517SOL    HW121419   3.233   7.956   7.802  1.0421  0.2668  0.0653
 6517SOL    HW221420   3.153   7.974   7.676  0.2969 -0.2106  0.4660
 6518SOL     OW21421   4.065   2.853   8.059  0.6133  0.1449  0.1534
 6518SOL    HW121422   4.065   2.759   8.078 -0.0685  0.0109 -0.4467
 6518SOL    HW221423   3.978   2.883   8.084  0.3037  0.3091 -1.0312
 6519SOL     OW21424   8.293   7.347   4.034  0.4116  0.1940  0.1658
 6519SOL    HW121425   8.320   7.431   4.070  2.5135 -0.3779  0.0821
 6519SOL    HW221426   8.276   7.292   4.110 -0.5120  0.5473  0.2224
 6520SOL     OW21427   1.125   5.157   6.400 -0.3891 -0.4401  0.6464
 6520SOL    HW121428   1.135   5.119   6.487  1.7875 -1.2579  0.1031
 6520SOL    HW221429   1.073   5.093   6.351  0.9710 -1.4732  0.5100
 6521SOL     OW21430   2.517   1.626   5.842  0.4362  0.3476  0.3509
 6521SOL    HW121431   2.463   1.705   5.833  0.3593  0.1989 -0.5796
 6521SOL    HW221432   2.468   1.570   5.903 -0.4835  0.2050 -0.4962
 6522SOL     OW21433   6.005   5.069   6.074 -0.8354  0.0064  0.4389
 6522SOL    HW121434   6.087   5.060   6.025 -0.1850  1.5414  1.1576
 6522SOL    HW221435   6.015   5.010   6.149 -0.3660  0.2139  0.5412
 6523SOL     OW21436   1.038   0.283   4.522 -0.3375  0.6098 -0.3483
 6523SOL    HW121437   1.043   0.247   4.611  0.7370  1.2013 -0.1556
 6523SOL    HW221438   1.128   0.302   4.498 -0.7217  1.6954 -1.0476
 6524SOL     OW21439   3.818   1.218   6.879  0.0604  0.2152 -0.3376
 6524SOL    HW121440   3.803   1.230   6.972  2.4501  1.6254 -0.0480
 6524SOL    HW221441   3.803   1.305   6.841 -2.3179 -0.6431 -1.5689
 6525SOL     OW21442   8.354   7.594   6.542 -0.1349 -0.4226  0.0328
 6525SOL    HW121443   8.343   7.502   6.563 -0.0476  0.0239  2.2820
 6525SOL    HW221444   8.448   7.604   6.526  0.4582 -0.2172  3.0207
 6526SOL     OW21445   0.357   0.101   8.163 -0.6479 -1.0293  0.0720
 6526SOL    HW121446   0.427   0.088   8.227  0.0588  1.4556 -0.1033
 6526SOL    HW221447   0.289   0.148   8.211 -0.7698 -0.4977 -0.6117
 6527SOL     OW21448   1.160   8.759   2.165 -0.3725 -0.1112  0.2416
 6527SOL    HW121449   1.170   8.665   2.180  0.2177 -0.4581 -2.0157
 6527SOL    HW221450   1.248   8.794   2.175  0.0971 -0.3987 -2.3516
 6528SOL     OW21451   5.516   7.967   8.331 -0.0929 -0.1421  0.5134
 6528SOL    HW121452   5.492   7.874   8.333 -1.8481  0.2777  0.9289
 6528SOL    HW221453   5.470   8.002   8.255  1.8933  0.0883 -0.6324
 6529SOL     OW21454   1.171   1.366   6.384 -0.2200 -0.2305  0.2882
 6529SOL    HW121455   1.134   1.400   6.303  0.2140  1.7960  0.8730
 6529SOL    HW221456   1.100   1.318   6.425 -0.8479 -0.1151 -0.6408
 6530SOL     OW21457   1.356   8.738   0.376  0.2634  0.8588 -0.6635
 6530SOL    HW121458   1.407   8.768   0.301  0.8103 -0.3188 -0.7775
 6530SOL    HW221459   1.421   8.700   0.435 -0.2935  0.8248 -0.0648
 6531SOL     OW21460   0.087   4.608   4.396  0.5872 -0.3845 -0.0695
 6531SOL    HW121461   0.179   4.627   4.379  0.1235  0.1363 -2.2903
 6531SOL    HW221462   0.071   4.524   4.352 -0.0569 -0.3647  0.1094
 6532SOL     OW21463   5.725   6.011   5.722 -0.1231 -0.4182  0.3664
 6532SOL    HW121464   5.631   6.032   5.719 -0.5414 -1.7688  2.1737
 6532SOL    HW221465   5.735   5.940   5.660  0.0223  0.6586 -0.8911
 6533SOL     OW21466   8.757   3.265   0.152 -0.0348  0.3580  1.1001
 6533SOL    HW121467   8.830   3.322   0.175  0.7148 -0.0854 -0.0741
 6533SOL    HW221468   8.691   3.324   0.115  0.6478  0.5123  0.0935
 6534SOL     OW21469   4.410   6.625   8.204 -0.0349 -0.4521 -0.3130
 6534SOL    HW121470   4.423   6.633   8.298 -2.3046 -0.2322  0.0370
 6534SOL    HW221471   4.399   6.531   8.189  0.1346 -0.4691 -0.3324
 6535SOL     OW21472   8.296   2.317   1.819  0.1555  0.2807 -0.1374
 6535SOL    HW121473   8.224   2.324   1.756 -0.6922 -0.7573  0.6877
 6535SOL    HW221474   8.255   2.330   1.904  1.3721  2.1407  0.2309
 6536SOL     OW21475   4.729   8.890   4.718 -0.0849 -0.0349 -0.1303
 6536SOL    HW121476   4.821   8.902   4.696  0.1055  0.6570  0.9833
 6536SOL    HW221477   4.710   8.800   4.693  0.7933 -0.0665 -0.7135
 6537SOL     OW21478   5.915   3.572   7.066  0.3626 -0.1212  0.5405
 6537SOL    HW121479   5.854   3.630   7.020  2.5941  1.2220 -0.9110
 6537SOL    HW221480   5.903   3.487   7.024 -0.8186  0.0003  0.6037
 6538SOL     OW21481   8.575   2.355   7.735 -0.5081 -0.0399 -0.6612
 6538SOL    HW121482   8.650   2.382   7.682 -0.4945 -0.2689 -0.7597
 6538SOL    HW221483   8.562   2.427   7.797 -1.6922  1.0845 -2.1539
 6539SOL     OW21484   2.193   5.512   2.601  0.3230 -0.1656  0.0753
 6539SOL    HW121485   2.124   5.578   2.607  0.3524 -0.2485  1.6258
 6539SOL    HW221486   2.147   5.430   2.583  0.1159 -0.0526  0.0886
 6540SOL     OW21487   2.474   8.210   8.326  0.5298 -0.0950  0.2167
 6540SOL    HW121488   2.379   8.217   8.330  0.6913  1.6242  2.3021
 6540SOL    HW221489   2.494   8.223   8.233 -1.2490 -0.8189 -0.3243
 6541SOL     OW21490   8.753   3.420   1.610 -0.3418  0.4286 -0.2908
 6541SOL    HW121491   8.733   3.353   1.676  0.4304 -1.1582 -1.5900
 6541SOL    HW221492   8.734   3.377   1.526 -0.9114  2.2537 -1.1360
 6542SOL     OW21493   3.654   1.339   1.879  0.1413  0.0382  0.4308
 6542SOL    HW121494   3.599   1.280   1.931  0.6053 -2.9894 -2.2087
 6542SOL    HW221495   3.724   1.365   1.939 -3.4099  3.4680  3.7088
 6543SOL     OW21496   0.450   3.483   1.969 -0.1046  0.4115  0.3813
 6543SOL    HW121497   0.485   3.566   2.002  0.1378  0.5189 -0.1457
 6543SOL    HW221498   0.378   3.508   1.912  0.0256  0.2664  0.1508
 6544SOL     OW21499   8.711   6.770   6.524  0.2974 -0.1745  0.3231
 6544SOL    HW121500   8.806   6.777   6.534  0.3021 -1.6118  1.6747
 6544SOL    HW221501   8.679   6.758   6.613 -1.3045  1.4775  0.0197
 6545SOL     OW21502   4.355   0.463   3.439 -0.1096 -0.7528 -0.2162
 6545SOL    HW121503   4.295   0.534   3.463  2.0657  0.6864  1.3922
 6545SOL    HW221504   4.329   0.390   3.497 -0.6999 -0.3882 -0.0069
 6546SOL     OW21505   5.222   0.825   7.372  0.0036  0.5523 -0.1255
 6546SOL    HW121506   5.315   0.809   7.391  0.1364 -0.1539 -1.2390
 6546SOL    HW221507   5.178   0.814   7.456  0.6900 -1.2106  0.0523
 6547SOL     OW21508   7.487   5.393   0.479  0.0757 -0.0778 -0.1098
 6547SOL    HW121509   7.526   5.431   0.401  0.4282 -0.1940  0.0091
 6547SOL    HW221510   7.560   5.382   0.540 -0.3362  0.8030  0.5629
 6548SOL     OW21511   7.297   1.129   8.670  0.5020 -0.1057 -0.0664
 6548SOL    HW121512   7.267   1.054   8.618 -0.6074 -0.8054  1.4945
 6548SOL    HW221513   7.222   1.190   8.670 -0.3880 -1.0468  2.3371
 6549SOL     OW21514   7.668   6.986   8.611 -0.6222  0.0774 -0.2342
 6549SOL    HW121515   7.619   6.956   8.688  0.8034  0.8608  1.0369
 6549SOL    HW221516   7.712   7.066   8.640  1.2020 -0.4359 -1.3670
 6550SOL     OW21517   6.027   6.930   1.975 -0.2846  0.1980 -0.6101
 6550SOL    HW121518   5.968   6.859   1.951 -1.2636  1.5932 -2.6242
 6550SOL    HW221519   6.000   6.955   2.064 -0.9877 -0.8601 -0.5090
 6551SOL     OW21520   3.896   8.752   7.640  0.2005  0.5451  0.1724
 6551SOL    HW121521   3.808   8.785   7.621  0.1893  1.2392  1.3527
 6551SOL    HW221522   3.882   8.675   7.694  0.2604 -1.0230 -1.8988
 6552SOL     OW21523   8.317   3.561   3.998  0.2522 -0.8332 -0.0827
 6552SOL    HW121524   8.354   3.485   4.043 -0.2128 -2.0555 -1.6536
 6552SOL    HW221525   8.353   3.557   3.910  0.4726  1.0029 -0.1174
 6553SOL     OW21526   5.392   7.067   2.755  0.4718  0.2092 -0.5199
 6553SOL    HW121527   5.391   7.099   2.845 -1.4044 -0.6132 -0.2048
 6553SOL    HW221528   5.417   7.144   2.703  1.7884  0.6427  0.6830
 6554SOL     OW21529   8.922   2.927   2.788  0.1429  0.1444  0.0284
 6554SOL    HW121530   8.933   3.014   2.749 -1.3804  0.1495 -0.4418
 6554SOL    HW221531   8.929   2.941   2.882 -0.2593  0.7989 -0.0380
 6555SOL     OW21532   4.570   5.165   5.178  0.0382 -0.3662  0.2604
 6555SOL    HW121533   4.599   5.138   5.265 -0.7777 -0.6410  0.4601
 6555SOL    HW221534   4.595   5.257   5.172  3.4896 -1.2103 -0.7021
 6556SOL     OW21535   6.930   3.664   6.043  0.1641  0.3586 -0.0578
 6556SOL    HW121536   6.836   3.677   6.051  0.2708  0.6578  0.7593
 6556SOL    HW221537   6.967   3.753   6.039  0.6114  0.3468  2.2425
 6557SOL     OW21538   7.423   3.854   6.104  0.3068  0.9293 -0.3974
 6557SOL    HW121539   7.412   3.759   6.116 -2.2249  1.0045 -1.5036
 6557SOL    HW221540   7.478   3.861   6.026  0.8025  0.4028 -0.1117
 6558SOL     OW21541   2.816   5.394   1.428 -0.3594  0.1897 -0.1210
 6558SOL    HW121542   2.898   5.344   1.434 -1.1382 -1.3825 -1.7707
 6558SOL    HW221543   2.800   5.401   1.334 -1.5474  1.4747  0.1572
 6559SOL     OW21544   5.310   1.912   6.991 -0.2844  0.0523 -0.3458
 6559SOL    HW121545   5.260   1.845   7.036  0.3871 -1.0994 -1.2666
 6559SOL    HW221546   5.253   1.942   6.920 -0.4853  0.2718 -0.0913
 6560SOL     OW21547   6.336   0.430   3.312  0.2251  0.1665 -0.1174
 6560SOL    HW121548   6.412   0.390   3.354  0.2620  0.3988  0.0412
 6560SOL    HW221549   6.294   0.479   3.382  0.6463  1.0873 -0.4945
 6561SOL     OW21550   7.638   8.270   3.932  0.1572 -0.0486 -0.2666
 6561SOL    HW121551   7.633   8.362   3.908  1.0027  0.5205  1.5862
 6561SOL    HW221552   7.547   8.243   3.945 -0.0683  1.8686  3.7246
 6562SOL     OW21553   5.970   2.641   0.439 -0.3579 -0.5911 -0.0641
 6562SOL    HW121554   5.989   2.547   0.442 -0.9317 -0.6947  0.4925
 6562SOL    HW221555   6.033   2.679   0.500 -1.4349 -0.8573  1.2547
 6563SOL     OW21556   8.300   8.584   6.684 -0.5058 -0.5807 -0.6190
 6563SOL    HW121557   8.310   8.524   6.758  0.0792  0.8256  0.4992
 6563SOL    HW221558   8.385   8.626   6.675 -1.2033  0.9034 -0.6097
 6564SOL     OW21559   5.065   5.081   2.222  0.3515  0.1244  0.3379
 6564SOL    HW121560   5.072   5.084   2.126  0.0557 -0.2513  0.3001
 6564SOL    HW221561   5.152   5.102   2.253  0.6322 -0.4827 -0.0273
 6565SOL     OW21562   8.865   1.537   6.148  0.2924  0.6623 -0.4208
 6565SOL    HW121563   8.899   1.609   6.200  1.1747  0.2759 -0.4410
 6565SOL    HW221564   8.934   1.471   6.150 -0.9611 -0.6878  0.5788
 6566SOL     OW21565   4.194   7.730   4.611 -0.5034 -0.3203  0.3822
 6566SOL    HW121566   4.260   7.686   4.665  2.1617 -0.5537 -2.7968
 6566SOL    HW221567   4.216   7.823   4.618  0.4297 -0.4219 -0.9143
 6567SOL     OW21568   6.272   0.707   8.635 -0.0830  0.0311  0.2710
 6567SOL    HW121569   6.218   0.784   8.617 -0.4039 -0.1341  0.5169
 6567SOL    HW221570   6.217   0.632   8.612  0.3576 -0.1223 -0.3060
 6568SOL     OW21571   4.848   0.563   3.934  0.1015  0.3696 -0.1793
 6568SOL    HW121572   4.857   0.651   3.899  2.3163  0.6812  1.0305
 6568SOL    HW221573   4.793   0.517   3.870  0.0663  2.2070 -1.5365
 6569SOL     OW21574   1.239   8.479   1.551 -0.1774  0.1248 -0.1491
 6569SOL    HW121575   1.230   8.443   1.639 -0.7345  0.0596 -0.2274
 6569SOL    HW221576   1.192   8.417   1.495  2.0853 -1.1051 -0.8280
 6570SOL     OW21577   4.049   4.311   6.903 -0.3056  0.1490  0.0369
 6570SOL    HW121578   4.091   4.287   6.985 -1.1641 -0.8063  0.2033
 6570SOL    HW221579   4.041   4.407   6.908 -0.9863  0.0491  1.3900
 6571SOL     OW21580   1.848   7.565   6.285 -0.2025  0.5034 -0.4441
 6571SOL    HW121581   1.862   7.658   6.267 -1.2037  0.5510 -0.9861
 6571SOL    HW221582   1.937   7.528   6.283  0.3746  1.6557  1.1246
 6572SOL     OW21583   1.378   2.844   5.314 -0.0409  0.3565  0.1681
 6572SOL    HW121584   1.365   2.902   5.240 -1.2896 -0.1291 -0.0232
 6572SOL    HW221585   1.471   2.820   5.311 -0.4635 -1.3224 -2.5065
 6573SOL     OW21586   8.268   5.020   4.039  0.3073  0.3747 -0.0027
 6573SOL    HW121587   8.193   4.977   3.997  0.8923 -0.4029 -0.2872
 6573SOL    HW221588   8.343   4.963   4.018  0.9885  1.1674  0.2214
 6574SOL     OW21589   1.021   3.781   2.317 -0.3358 -0.2940 -0.0934
 6574SOL    HW121590   1.071   3.701   2.333 -1.2724 -0.4847  2.2793
 6574SOL    HW221591   1.048   3.841   2.387 -1.2005  0.6780 -0.5670
 6575SOL     OW21592   8.418   4.326   1.145  0.1598 -0.6001 -0.6085
 6575SOL    HW121593   8.440   4.268   1.219  1.8230  0.7434  0.0064
 6575SOL    HW221594   8.501   4.343   1.102 -0.0490  2.2825 -0.0336
 6576SOL     OW21595   8.388   6.790   1.576 -0.0902  0.5035 -0.1728
 6576SOL    HW121596   8.379   6.703   1.616  0.1175 -0.2999 -1.7935
 6576SOL    HW221597   8.461   6.830   1.624  0.8610 -0.8526 -0.4160
 6577SOL     OW21598   1.280   3.362   7.761  0.8710 -0.2084 -0.5528
 6577SOL    HW121599   1.369   3.329   7.747  0.9081 -0.8006  0.8462
 6577SOL    HW221600   1.289   3.422   7.835  0.2219  0.2542 -0.8473
 6578SOL     OW21601   3.107   1.852   8.193  0.1883  0.2511  0.3392
 6578SOL    HW121602   3.069   1.937   8.216 -1.6953  0.1999 -2.0639
 6578SOL    HW221603   3.069   1.791   8.257  0.3447  0.9914  1.1538
 6579SOL     OW21604   2.364   2.150   6.567 -0.0555  0.2170  0.0043
 6579SOL    HW121605   2.434   2.116   6.623  0.2336 -0.6110 -0.8361
 6579SOL    HW221606   2.409   2.180   6.488 -0.3467  2.2792  0.5598
 6580SOL     OW21607   8.550   6.377   6.070  0.4231 -0.4586 -0.2566
 6580SOL    HW121608   8.464   6.340   6.053  0.1391  0.4347 -0.8975
 6580SOL    HW221609   8.538   6.471   6.056  1.2265 -0.1793  0.8165
 6581SOL     OW21610   4.663   8.884   0.674  0.4680 -0.8715 -0.0846
 6581SOL    HW121611   4.572   8.900   0.650  0.2797  0.6980  1.4578
 6581SOL    HW221612   4.706   8.863   0.591 -0.4938  2.3915 -1.5936
 6582SOL     OW21613   3.404   5.532   7.276 -0.2606  0.0466  0.0562
 6582SOL    HW121614   3.488   5.573   7.300  0.3924 -0.2557 -1.5914
 6582SOL    HW221615   3.340   5.603   7.283  0.6659  1.1227 -1.6359
 6583SOL     OW21616   1.552   4.646   4.367  0.0325 -0.5233 -0.1820
 6583SOL    HW121617   1.624   4.670   4.309  1.1752 -0.0226  1.3844
 6583SOL    HW221618   1.593   4.630   4.451 -1.6957 -0.1083  0.7896
 6584SOL     OW21619   1.787   8.927   3.227 -0.2154  0.3616  0.1077
 6584SOL    HW121620   1.864   8.871   3.224 -0.1890  0.4291 -0.8420
 6584SOL    HW221621   1.821   9.013   3.253 -0.2668 -0.0591  1.6254
 6585SOL     OW21622   5.702   4.681   3.294  0.3515 -0.2260  0.3232
 6585SOL    HW121623   5.614   4.677   3.254  0.3750  0.1124  0.2299
 6585SOL    HW221624   5.705   4.607   3.354  0.8494 -1.6559 -1.3824
 6586SOL     OW21625   4.038   0.682   5.973 -0.0389 -0.3070 -0.0291
 6586SOL    HW121626   4.099   0.681   5.899  0.9317 -2.0559  0.7361
 6586SOL    HW221627   4.078   0.624   6.038 -1.4290  0.2840  1.4198
 6587SOL     OW21628   5.064   5.236   6.733 -0.1435  0.1104  0.4146
 6587SOL    HW121629   5.102   5.298   6.672 -0.2211 -2.0680 -2.0143
 6587SOL    HW221630   4.981   5.209   6.693 -1.4759  0.4334  2.7425
 6588SOL     OW21631   2.695   0.967   1.082  0.2387  0.1837 -0.4342
 6588SOL    HW121632   2.639   1.026   1.133 -0.7716  0.2691 -1.6167
 6588SOL    HW221633   2.683   0.994   0.991  1.7442 -0.2010 -0.7838
 6589SOL     OW21634   8.087   8.486   4.466 -0.0553 -0.5293 -0.1582
 6589SOL    HW121635   8.023   8.525   4.406  0.3483  1.1849  0.4776
 6589SOL    HW221636   8.074   8.532   4.549  1.5733 -0.5880  0.1634
 6590SOL     OW21637   0.863   5.753   1.762 -0.4379  0.5263 -0.3182
 6590SOL    HW121638   0.816   5.672   1.783  1.5254 -0.6142 -0.1322
 6590SOL    HW221639   0.908   5.734   1.680 -0.2124  1.5663 -0.4505
 6591SOL     OW21640   3.642   1.735   0.358 -0.5490  0.0440 -0.1166
 6591SOL    HW121641   3.654   1.747   0.264 -1.6975  2.4160 -0.0257
 6591SOL    HW221642   3.704   1.795   0.398 -1.8658  0.9965  0.5672
 6592SOL     OW21643   6.535   4.267   8.874  0.0091  0.4642  0.4641
 6592SOL    HW121644   6.484   4.271   8.793  0.5237 -1.8445 -0.0497
 6592SOL    HW221645   6.615   4.315   8.855  0.7775 -1.2892 -0.9531
 6593SOL     OW21646   1.774   0.171   8.608 -0.1817  0.3787  0.0250
 6593SOL    HW121647   1.834   0.227   8.558 -2.9187  0.9680 -2.9440
 6593SOL    HW221648   1.753   0.222   8.686  3.3794 -0.0674  1.4813
 6594SOL     OW21649   3.301   4.662   4.960  0.4173 -0.5182  0.7017
 6594SOL    HW121650   3.255   4.727   5.013 -0.1136 -0.7446  0.5286
 6594SOL    HW221651   3.345   4.713   4.892 -0.9601 -0.4068 -0.1525
 6595SOL     OW21652   4.387   0.347   1.821  0.3551  0.1913 -0.5916
 6595SOL    HW121653   4.350   0.428   1.786 -0.8657  0.5786  1.4153
 6595SOL    HW221654   4.421   0.372   1.907  0.0808 -1.3920  0.0105
 6596SOL     OW21655   7.295   3.653   1.086  0.0313  0.7123  0.3744
 6596SOL    HW121656   7.236   3.643   1.161 -0.2339  0.5620  0.1453
 6596SOL    HW221657   7.382   3.660   1.126  0.1987 -1.9081  0.6237
 6597SOL     OW21658   6.988   7.583   0.026 -0.2925 -0.2630  0.1180
 6597SOL    HW121659   7.083   7.591   0.028 -0.1489 -0.6911 -2.1354
 6597SOL    HW221660   6.969   7.547  -0.061 -2.6579  1.7522 -0.3176
 6598SOL     OW21661   5.664   2.499   2.126  0.2515  0.2482  0.1295
 6598SOL    HW121662   5.632   2.510   2.036 -0.8738 -2.4331  0.0967
 6598SOL    HW221663   5.609   2.558   2.178 -0.5050  0.2993 -0.6971
 6599SOL     OW21664   1.250   2.041   7.638  0.6027  0.2885 -0.7736
 6599SOL    HW121665   1.298   2.076   7.563  0.7017  0.0380 -0.8263
 6599SOL    HW221666   1.305   1.971   7.672  1.3909  1.5212  0.5924
 6600SOL     OW21667   7.210   4.731   4.902  0.1062  0.1361 -0.3387
 6600SOL    HW121668   7.227   4.764   4.990  0.2109 -0.3988 -0.1537
 6600SOL    HW221669   7.208   4.636   4.912  3.5075 -0.1952 -1.4619
 6601SOL     OW21670   5.958   2.966   4.508  0.3130  0.0370 -0.7931
 6601SOL    HW121671   5.927   3.029   4.574  1.1642 -0.3195 -0.0315
 6601SOL    HW221672   5.883   2.954   4.449  0.0686  1.6027 -0.8376
 6602SOL     OW21673   0.415   2.661   1.888 -0.3456 -0.0063  0.1749
 6602SOL    HW121674   0.325   2.671   1.917 -0.4694 -1.3483  0.3030
 6602SOL    HW221675   0.410   2.666   1.792 -0.7844 -1.5236  0.0954
 6603SOL     OW21676   4.506   1.314   0.731 -0.6120 -0.9134  0.4868
 6603SOL    HW121677   4.516   1.409   0.738 -0.7121 -0.8043 -0.7133
 6603SOL    HW221678   4.450   1.301   0.655 -1.1653 -1.9201  1.0373
 6604SOL     OW21679   2.052   2.278   5.302 -0.2537  0.0425 -0.0601
 6604SOL    HW121680   1.969   2.235   5.323 -0.6960  0.4177 -0.9903
 6604SOL    HW221681   2.041   2.367   5.336 -0.5991  0.3645 -0.9861
 6605SOL     OW21682   6.277   5.322   6.834 -0.5248 -0.0978  0.4760
 6605SOL    HW121683   6.298   5.414   6.818  0.0717 -0.5850 -2.1676
 6605SOL    HW221684   6.271   5.284   6.746  0.4143 -2.8263  1.4943
 6606SOL     OW21685   7.164   2.398   1.754 -0.1418 -0.4111  0.4179
 6606SOL    HW121686   7.166   2.365   1.844  1.1901 -2.1855 -0.2085
 6606SOL    HW221687   7.156   2.493   1.763  0.7297 -0.4828  2.4357
 6607SOL     OW21688   5.339   0.955   6.405  0.3155 -0.2582 -0.0804
 6607SOL    HW121689   5.253   0.995   6.398 -0.8920 -2.4624  1.1483
 6607SOL    HW221690   5.348   0.902   6.326  0.4280 -0.2294 -0.0873
 6608SOL     OW21691   1.866   3.794   4.257  0.0396  0.3151  0.6704
 6608SOL    HW121692   1.924   3.722   4.232 -0.0071  0.4034  0.3129
 6608SOL    HW221693   1.908   3.872   4.222 -1.1678  0.2124 -1.1218
 6609SOL     OW21694   0.819   7.790   5.349 -0.8373  0.0423 -0.2309
 6609SOL    HW121695   0.883   7.790   5.278 -1.1703 -2.4529 -0.6354
 6609SOL    HW221696   0.735   7.804   5.305 -0.8231  0.8640 -0.0085
 6610SOL     OW21697   0.995   5.269   3.596  0.0386 -0.2935  0.6606
 6610SOL    HW121698   0.972   5.362   3.600  1.4781  0.0729  1.0326
 6610SOL    HW221699   1.076   5.266   3.545 -1.0245 -1.5900 -1.0582
 6611SOL     OW21700   8.265   3.311   4.181  0.2614 -0.0344  0.0396
 6611SOL    HW121701   8.201   3.246   4.210  0.6581 -0.0362  0.9449
 6611SOL    HW221702   8.303   3.273   4.102  0.5916 -0.9813  0.6316
 6612SOL     OW21703   0.978   5.613   5.902  0.4161  0.1277 -0.6898
 6612SOL    HW121704   0.949   5.560   5.976  1.6551  1.2217  0.6629
 6612SOL    HW221705   1.058   5.571   5.872  2.4395  2.0633  1.5633
 6613SOL     OW21706   1.520   5.626   7.604 -0.2733  0.2057  0.4652
 6613SOL    HW121707   1.551   5.686   7.537 -0.9027 -0.3550 -0.3490
 6613SOL    HW221708   1.585   5.556   7.606 -1.1959 -0.7305 -0.9094
 6614SOL     OW21709   3.235   2.157   7.974  0.2345  0.3779  0.2439
 6614SOL    HW121710   3.246   2.072   7.931  1.4397  1.0949 -0.9250
 6614SOL    HW221711   3.297   2.155   8.047 -1.7794 -0.8207  2.0538
 6615SOL     OW21712   0.671   0.739   1.774 -0.9239 -0.0626 -0.2484
 6615SOL    HW121713   0.664   0.766   1.866  0.4020  1.7741 -0.6184
 6615SOL    HW221714   0.598   0.784   1.731  0.1031  1.3988 -0.5267
 6616SOL     OW21715   4.157   0.675   1.295 -0.7961  0.0176  0.1235
 6616SOL    HW121716   4.105   0.743   1.254 -1.8793 -1.0791 -0.3851
 6616SOL    HW221717   4.184   0.618   1.223 -0.5423 -0.5000  0.6173
 6617SOL     OW21718   2.145   8.005   4.876 -0.0074  0.1309  0.8546
 6617SOL    HW121719   2.134   7.965   4.790  0.7183  1.1232  0.2596
 6617SOL    HW221720   2.194   7.941   4.927  0.2824 -0.1436  0.2425
 6618SOL     OW21721   0.091   5.933   2.826  0.1232 -0.5276 -0.2364
 6618SOL    HW121722   0.046   5.850   2.844  0.1274 -0.0790  2.1375
 6618SOL    HW221723   0.182   5.908   2.812  0.8473 -0.8031  3.7503
 6619SOL     OW21724   7.470   8.524   1.434  0.1018 -0.3611 -0.2783
 6619SOL    HW121725   7.479   8.444   1.382 -0.5534  0.2483 -1.3863
 6619SOL    HW221726   7.527   8.511   1.509  1.2133 -1.2211 -1.2356
 6620SOL     OW21727   7.003   7.325   5.019 -0.0325  0.4310 -0.2625
 6620SOL    HW121728   6.944   7.275   5.074 -1.1081  0.5113 -1.2983
 6620SOL    HW221729   7.074   7.264   4.998  0.3982  0.4080  1.1733
 6621SOL     OW21730   6.843   6.281   8.137  0.0250 -0.2001 -0.3693
 6621SOL    HW121731   6.803   6.346   8.079  0.6843  0.1040 -0.4902
 6621SOL    HW221732   6.897   6.227   8.080  1.2612  0.5551  0.0392
 6622SOL     OW21733   8.377   6.751   3.072 -0.5146  0.7027 -0.0438
 6622SOL    HW121734   8.460   6.718   3.107  0.0820  2.7081  0.5587
 6622SOL    HW221735   8.346   6.681   3.014  2.7182  0.7211 -2.0454
 6623SOL     OW21736   1.935   5.570   2.138 -0.8291  0.3235 -0.0063
 6623SOL    HW121737   1.960   5.660   2.118 -0.0399 -0.1100 -1.0818
 6623SOL    HW221738   2.018   5.527   2.159 -0.8054 -0.8123 -2.2396
 6624SOL     OW21739   1.644   5.009   6.163  0.2305  0.2067  0.4237
 6624SOL    HW121740   1.728   4.973   6.135  0.7525  0.5912  1.4480
 6624SOL    HW221741   1.660   5.041   6.252 -0.4072  2.2807 -0.1648
 6625SOL     OW21742   3.892   0.237   5.297  0.7999 -0.1037  0.7610
 6625SOL    HW121743   3.840   0.211   5.222  0.3246  0.9794  0.6966
 6625SOL    HW221744   3.830   0.237   5.370  0.7729  0.8372  0.7517
 6626SOL     OW21745   0.800   4.632   5.654  0.1398  0.2266  0.2054
 6626SOL    HW121746   0.854   4.569   5.701  2.8292  1.7055 -0.6812
 6626SOL    HW221747   0.786   4.703   5.716  0.0786  0.2879  0.1211
 6627SOL     OW21748   2.278   2.990   4.116  0.5297  0.0237 -0.3495
 6627SOL    HW121749   2.206   2.987   4.053 -0.3649  1.4553  0.5541
 6627SOL    HW221750   2.250   2.934   4.188 -0.2338  1.4553  0.5119
 6628SOL     OW21751   4.736   2.627   3.772 -0.3992  0.1836  0.4419
 6628SOL    HW121752   4.747   2.532   3.783 -2.0004 -0.2274 -1.0011
 6628SOL    HW221753   4.657   2.648   3.822 -1.5991  0.2154 -1.3735
 6629SOL     OW21754   7.615   4.506   1.003  0.2409  0.3331  0.3777
 6629SOL    HW121755   7.607   4.547   1.089 -0.0841 -1.0633  1.0472
 6629SOL    HW221756   7.638   4.577   0.944  1.0123  1.2296  1.7122
 6630SOL     OW21757   1.661   7.614   0.235  0.5522 -0.2619  0.3409
 6630SOL    HW121758   1.710   7.575   0.163 -0.0318  0.1738 -0.3072
 6630SOL    HW221759   1.701   7.578   0.314  0.2912 -1.8333 -0.2259
 6631SOL     OW21760   2.159   6.526   5.010 -0.2755  0.0205 -0.4049
 6631SOL    HW121761   2.099   6.451   5.010  0.0153 -0.2183 -0.6493
 6631SOL    HW221762   2.244   6.488   5.034 -0.2470  0.3797  0.0901
 6632SOL     OW21763   7.970   4.743   6.221 -0.1426  0.2434  0.4139
 6632SOL    HW121764   8.025   4.821   6.228  1.2879 -0.5492 -1.1796
 6632SOL    HW221765   8.032   4.670   6.211 -1.4461 -0.7246 -1.1824
 6633SOL     OW21766   3.984   8.949   0.963  0.7580  0.1758 -0.1287
 6633SOL    HW121767   4.066   8.946   0.914  0.4797 -0.8662 -0.5740
 6633SOL    HW221768   3.991   8.876   1.025  0.5224  0.6172  0.4199
 6634SOL     OW21769   8.730   2.026   1.445  0.1077 -0.0232 -0.1028
 6634SOL    HW121770   8.794   2.097   1.431  1.1400 -0.8033  0.4557
 6634SOL    HW221771   8.732   1.976   1.364 -1.7041  1.3628 -1.0712
 6635SOL     OW21772   0.386   7.887   6.993 -0.4454  0.2323  0.0281
 6635SOL    HW121773   0.318   7.915   6.932  0.2758  2.1133  0.0118
 6635SOL    HW221774   0.448   7.838   6.939 -0.0107  1.5501 -0.7214
 6636SOL     OW21775   3.919   3.869   0.055  0.6043 -0.3528 -0.0259
 6636SOL    HW121776   3.968   3.875   0.137  1.4103 -0.4878 -0.4917
 6636SOL    HW221777   3.837   3.826   0.080 -0.3610  1.9820  1.2246
 6637SOL     OW21778   3.758   5.249   1.637 -0.3865 -0.4623 -0.3409
 6637SOL    HW121779   3.700   5.322   1.657  0.1873  0.0516 -0.5348
 6637SOL    HW221780   3.837   5.289   1.600  0.3623 -1.1013  0.5072
 6638SOL     OW21781   6.365   6.493   1.326  0.1793  0.2919  0.1339
 6638SOL    HW121782   6.301   6.454   1.266 -0.0259  1.0496 -0.1512
 6638SOL    HW221783   6.321   6.569   1.363  0.9779  0.9488 -0.2297
 6639SOL     OW21784   6.667   2.916   2.747 -0.0980 -0.6463  0.0169
 6639SOL    HW121785   6.670   2.823   2.770 -0.9987 -0.4093  1.1369
 6639SOL    HW221786   6.574   2.939   2.748  0.0744  0.1674 -0.7240
 6640SOL     OW21787   3.537   1.780   0.632 -0.6726 -0.2779 -0.1249
 6640SOL    HW121788   3.549   1.691   0.665 -1.1798 -0.0828  0.5851
 6640SOL    HW221789   3.549   1.771   0.537 -1.6940 -1.2792 -0.1824
 6641SOL     OW21790   1.947   4.592   5.886 -0.7002 -0.5749 -0.4760
 6641SOL    HW121791   1.926   4.664   5.827 -1.6778  0.8404  1.4655
 6641SOL    HW221792   1.866   4.542   5.894 -1.3024  0.5844  1.3424
 6642SOL     OW21793   5.837   5.471   1.180  0.0239  0.0560  0.5739
 6642SOL    HW121794   5.793   5.397   1.138  2.7982 -1.4728  0.1170
 6642SOL    HW221795   5.879   5.518   1.108  0.3133  0.6420  1.1166
 6643SOL     OW21796   5.711   6.514   5.869  0.6250 -0.7017 -0.0796
 6643SOL    HW121797   5.643   6.562   5.821 -0.1278 -0.1180  1.4904
 6643SOL    HW221798   5.752   6.458   5.803  0.4283  0.8904 -1.6341
 6644SOL     OW21799   0.035   8.354   0.871  0.0336 -0.6834 -0.1716
 6644SOL    HW121800   0.021   8.266   0.906 -0.0325 -0.9881 -0.9600
 6644SOL    HW221801  -0.029   8.408   0.917 -1.1209 -1.3675 -0.9358
 6645SOL     OW21802   6.453   2.360   4.365  0.0873 -0.4857  0.0594
 6645SOL    HW121803   6.411   2.439   4.332 -1.1642 -1.2198 -0.1521
 6645SOL    HW221804   6.529   2.347   4.308  1.3083  1.4625  1.1320
 6646SOL     OW21805   0.794   4.530   6.738 -0.0593  0.3415 -0.0026
 6646SOL    HW121806   0.822   4.606   6.688  0.0677  0.9012  0.9043
 6646SOL    HW221807   0.860   4.463   6.719  0.3522  0.7592 -0.0534
 6647SOL     OW21808   4.414   8.612   0.603 -0.3991 -0.1329  0.3559
 6647SOL    HW121809   4.458   8.584   0.523 -1.7473 -0.1202 -0.4168
 6647SOL    HW221810   4.446   8.551   0.670 -1.4203 -2.0205 -0.7907
 6648SOL     OW21811   6.684   0.464   6.862 -1.1563 -0.5763 -0.1279
 6648SOL    HW121812   6.730   0.501   6.938 -0.9100  2.4400 -1.5702
 6648SOL    HW221813   6.597   0.441   6.895 -0.9675  0.3879  1.1404
 6649SOL     OW21814   7.701   6.176   7.573  0.0770 -0.4045 -0.0851
 6649SOL    HW121815   7.687   6.112   7.642  2.5473 -2.0346 -0.9205
 6649SOL    HW221816   7.748   6.248   7.616  3.8511 -2.4841 -0.2828
 6650SOL     OW21817   2.146   6.374   1.800 -0.1810 -0.1838 -0.1894
 6650SOL    HW121818   2.218   6.423   1.761 -1.5429  1.7102 -0.4655
 6650SOL    HW221819   2.150   6.396   1.893 -0.0923 -0.5298 -0.1073
 6651SOL     OW21820   7.894   8.486   2.400  0.3637  0.6441  0.1697
 6651SOL    HW121821   7.841   8.555   2.441  0.6733  0.7063  0.4756
 6651SOL    HW221822   7.914   8.519   2.313  0.9520  1.1796  0.5002
 6652SOL     OW21823   0.757   3.202   4.232 -1.3274 -0.7195 -0.1452
 6652SOL    HW121824   0.833   3.214   4.290 -0.2714 -1.0383 -1.4080
 6652SOL    HW221825   0.762   3.110   4.206 -1.0804 -0.3034 -1.6484
 6653SOL     OW21826   0.475   0.708   1.397 -0.1038 -0.1897  0.0085
 6653SOL    HW121827   0.406   0.728   1.333  0.0543  0.1496 -0.0529
 6653SOL    HW221828   0.451   0.621   1.431 -0.1429 -0.4067 -0.5698
 6654SOL     OW21829   0.108   6.152   5.059 -0.2435 -0.2021 -0.1198
 6654SOL    HW121830   0.154   6.070   5.076 -1.6437 -1.5643 -2.3518
 6654SOL    HW221831   0.160   6.195   4.990 -0.2529  0.1401  0.0833
 6655SOL     OW21832   0.288   2.856   4.021  0.0807  0.4648  0.0044
 6655SOL    HW121833   0.346   2.918   4.066  0.8028 -1.1593  1.3841
 6655SOL    HW221834   0.217   2.912   3.987  1.0717  2.1445  0.5468
 6656SOL     OW21835   8.210   5.459   2.130 -0.2431  0.2478  0.3789
 6656SOL    HW121836   8.143   5.392   2.120 -1.0640  1.0099  0.6888
 6656SOL    HW221837   8.166   5.532   2.173  0.8684  0.6305  0.9222
 6657SOL     OW21838   5.011   0.881   6.643 -0.3014  0.2253 -0.0143
 6657SOL    HW121839   5.055   0.935   6.708  0.0973 -1.1945  0.9305
 6657SOL    HW221840   4.978   0.944   6.578  2.0661  1.4314 -0.1528
 6658SOL     OW21841   8.692   0.411   3.616  0.3149  0.0749  0.1988
 6658SOL    HW121842   8.637   0.372   3.684 -0.5675  0.6405 -0.1704
 6658SOL    HW221843   8.712   0.339   3.557 -1.4251  0.1585 -0.5600
 6659SOL     OW21844   0.752   0.231   1.450 -0.3124 -0.0189  0.5850
 6659SOL    HW121845   0.706   0.285   1.386 -0.3638  0.8788  1.3641
 6659SOL    HW221846   0.690   0.220   1.522  0.1166 -0.1550  0.9426
 6660SOL     OW21847   8.317   1.471   1.550  0.4114  0.2022  0.0390
 6660SOL    HW121848   8.281   1.550   1.590  0.3231  0.1876 -0.0121
 6660SOL    HW221849   8.244   1.433   1.502  0.5066  0.2000 -0.1060
 6661SOL     OW21850   7.076   1.843   5.494  0.5142 -0.3716  0.4938
 6661SOL    HW121851   7.136   1.899   5.445 -1.1440 -0.6301 -2.0437
 6661SOL    HW221852   7.125   1.761   5.506  1.1643 -0.1281 -0.3547
 6662SOL     OW21853   6.709   0.568   6.276 -0.1392  0.0068  0.1210
 6662SOL    HW121854   6.725   0.511   6.351 -1.7332  0.7437  1.0794
 6662SOL    HW221855   6.619   0.548   6.250 -0.6891  1.9043  0.3776
 6663SOL     OW21856   2.730   7.144   0.999 -0.4794  0.7924  0.2813
 6663SOL    HW121857   2.787   7.109   0.930 -0.7570 -0.7952  0.8241
 6663SOL    HW221858   2.787   7.150   1.076 -1.1361 -1.4310  1.0081
 6664SOL     OW21859   3.503   2.625   2.352  0.0869  0.6196 -0.4174
 6664SOL    HW121860   3.571   2.570   2.392 -0.4875  0.4880  0.4116
 6664SOL    HW221861   3.428   2.567   2.342 -1.1447  1.6278  2.1523
 6665SOL     OW21862   6.996   3.318   3.577 -0.2242 -0.7129  0.3215
 6665SOL    HW121863   7.037   3.257   3.638 -0.8903 -0.7564  0.7420
 6665SOL    HW221864   7.001   3.275   3.492 -0.7774 -1.4067  0.6313
 6666SOL     OW21865   8.124   0.853   3.784  0.1393 -0.0519 -0.0264
 6666SOL    HW121866   8.183   0.864   3.859  1.2449 -0.1508 -0.8543
 6666SOL    HW221867   8.072   0.933   3.782  1.0644  0.5606  0.0256
 6667SOL     OW21868   3.818   3.670   8.806 -0.2845  0.2900 -0.1495
 6667SOL    HW121869   3.856   3.757   8.797 -2.2791  1.0767 -1.7323
 6667SOL    HW221870   3.860   3.619   8.736 -0.7224  0.6133 -0.6538
 6668SOL     OW21871   8.642   1.881   3.191  0.3211  0.1509 -0.1331
 6668SOL    HW121872   8.623   1.842   3.106 -1.7160 -2.0024  1.1929
 6668SOL    HW221873   8.716   1.831   3.224  0.7677  0.6317 -0.3868
 6669SOL     OW21874   3.726   2.143   3.480 -0.4071 -0.3777 -0.3002
 6669SOL    HW121875   3.654   2.204   3.497 -0.2534 -0.1608 -0.4221
 6669SOL    HW221876   3.784   2.191   3.420 -0.2744 -0.6348 -0.3776
 6670SOL     OW21877   8.502   8.581   5.025 -0.3775 -0.1760  0.9006
 6670SOL    HW121878   8.591   8.594   5.058 -0.6462  0.2508  1.4893
 6670SOL    HW221879   8.497   8.487   5.005 -0.8006 -0.9099  3.9780
 6671SOL     OW21880   4.207   0.970   8.212 -0.3430  0.1731 -0.8522
 6671SOL    HW121881   4.240   0.988   8.124  0.3239  0.7617 -0.4963
 6671SOL    HW221882   4.234   0.880   8.230  0.0039  0.2364 -1.0467
 6672SOL     OW21883   2.763   0.307   7.437  0.0644 -0.3508  0.6147
 6672SOL    HW121884   2.849   0.269   7.420 -0.7598 -1.6874 -0.7772
 6672SOL    HW221885   2.702   0.251   7.389 -1.2201  2.7755 -1.7647
 6673SOL     OW21886   1.885   8.801   5.962 -0.0274 -0.1238  0.0005
 6673SOL    HW121887   1.794   8.779   5.981 -0.2399  0.3361 -0.4697
 6673SOL    HW221888   1.910   8.861   6.033 -0.1092 -0.1977  0.0920
 6674SOL     OW21889   4.112   3.104   5.386  0.0963  0.5758  0.0178
 6674SOL    HW121890   4.191   3.137   5.429 -0.1922  3.0217 -1.1326
 6674SOL    HW221891   4.140   3.085   5.297  0.1769 -2.2690  0.5543
 6675SOL     OW21892   5.930   1.681   3.247  0.3603 -0.0254  0.1649
 6675SOL    HW121893   5.948   1.774   3.236 -0.3236  0.3620  1.8232
 6675SOL    HW221894   5.961   1.640   3.167  0.0838  1.7122 -0.8848
 6676SOL     OW21895   6.333   1.607   4.570  0.0211  0.8137  0.5317
 6676SOL    HW121896   6.370   1.694   4.560 -0.4755  1.1022  1.1521
 6676SOL    HW221897   6.312   1.600   4.664 -0.8346  0.3968  0.3210
 6677SOL     OW21898   6.241   6.440   8.834 -0.2340 -0.4469  0.1720
 6677SOL    HW121899   6.149   6.414   8.834 -0.1302 -0.8328 -0.4929
 6677SOL    HW221900   6.238   6.536   8.832 -0.6092 -0.4104  1.3134
 6678SOL     OW21901   1.264   4.567   3.773 -0.2754 -0.2131  0.5401
 6678SOL    HW121902   1.305   4.538   3.854 -0.5189  1.4381  1.2956
 6678SOL    HW221903   1.327   4.545   3.704 -0.0357 -1.5624  1.1695
 6679SOL     OW21904   8.537   2.072   8.184  0.0349 -0.1441  0.6083
 6679SOL    HW121905   8.478   2.137   8.146  0.7040  0.0754 -0.0770
 6679SOL    HW221906   8.561   2.016   8.111  0.8736 -0.0789  0.8238
 6680SOL     OW21907   1.195   3.370   0.690  0.4976 -0.2681  0.4981
 6680SOL    HW121908   1.163   3.459   0.697 -1.0017 -0.6595 -0.7652
 6680SOL    HW221909   1.267   3.374   0.627 -0.0362 -0.0474 -0.1028
 6681SOL     OW21910   3.636   5.513   6.622  0.5012 -0.3004 -0.1403
 6681SOL    HW121911   3.668   5.446   6.562 -0.0431 -0.1646 -0.5846
 6681SOL    HW221912   3.618   5.588   6.566 -3.3233 -1.2368 -0.4125
 6682SOL     OW21913   5.250   6.385   0.803 -0.3836 -0.1097 -0.0507
 6682SOL    HW121914   5.177   6.323   0.803 -2.1654  1.8779 -0.2193
 6682SOL    HW221915   5.325   6.334   0.770 -2.0588 -1.7981 -1.4661
 6683SOL     OW21916   0.477   4.322   1.684 -0.4805 -0.1507 -0.3445
 6683SOL    HW121917   0.521   4.242   1.656 -0.2444  0.3551 -1.4773
 6683SOL    HW221918   0.485   4.381   1.609 -2.0426  0.3776 -0.1194
 6684SOL     OW21919   6.450   3.627   6.701 -0.0149  0.4863  0.3634
 6684SOL    HW121920   6.370   3.584   6.731  0.7539 -2.1121 -0.9967
 6684SOL    HW221921   6.479   3.679   6.776 -0.0094 -2.9232  3.0254
 6685SOL     OW21922   1.863   1.453   1.357  0.4261 -0.1630 -0.0827
 6685SOL    HW121923   1.865   1.417   1.268  0.1190 -0.0697 -0.1296
 6685SOL    HW221924   1.837   1.379   1.412 -0.9513  0.1500 -0.2727
 6686SOL     OW21925   6.172   1.589   3.062  0.5431 -0.1910  0.0979
 6686SOL    HW121926   6.208   1.548   2.984  1.5002 -0.9475  0.9089
 6686SOL    HW221927   6.149   1.515   3.119  0.9568  0.3671  1.0071
 6687SOL     OW21928   6.944   8.570   1.063  0.2061 -0.4487  0.0838
 6687SOL    HW121929   6.976   8.502   1.121  0.3140  0.9400  1.7324
 6687SOL    HW221930   7.001   8.566   0.987  0.9108 -1.4494  0.6461
 6688SOL     OW21931   0.572   7.449   1.425 -0.0320 -0.2793 -0.4768
 6688SOL    HW121932   0.547   7.371   1.474  2.1493 -0.4043  0.5597
 6688SOL    HW221933   0.620   7.415   1.349  0.8061  0.0071 -0.0922
 6689SOL     OW21934   7.645   0.524   0.898 -0.2049  0.0667 -0.7515
 6689SOL    HW121935   7.625   0.471   0.821 -0.1799 -0.7084 -0.2338
 6689SOL    HW221936   7.667   0.460   0.966  2.3234  0.7933 -0.7884
 6690SOL     OW21937   2.352   2.950   6.079 -0.0114  0.1535 -0.6651
 6690SOL    HW121938   2.405   2.956   6.159  1.5905 -1.7059 -1.5166
 6690SOL    HW221939   2.262   2.956   6.110  0.4634 -2.1745  1.5554
 6691SOL     OW21940   1.518   5.938   0.768 -0.0367  0.4116 -0.2774
 6691SOL    HW121941   1.580   5.911   0.700 -0.1270 -1.4882  0.3575
 6691SOL    HW221942   1.553   6.021   0.800  1.4216  0.0644 -0.8860
 6692SOL     OW21943   7.776   2.134   3.097 -0.0222  0.2547  0.3776
 6692SOL    HW121944   7.777   2.082   3.017  2.5277 -1.2503  1.2593
 6692SOL    HW221945   7.786   2.224   3.067 -2.3612  0.1001 -1.0945
 6693SOL     OW21946   0.511   0.983   7.385 -0.5529 -0.1927 -0.3828
 6693SOL    HW121947   0.474   0.972   7.298 -1.5426  0.3501 -0.0583
 6693SOL    HW221948   0.601   0.951   7.378 -1.3733 -2.5384 -0.9599
 6694SOL     OW21949   8.739   3.048   2.138  0.2611 -0.1141  0.2638
 6694SOL    HW121950   8.768   2.959   2.116  0.5388  0.2745 -1.0544
 6694SOL    HW221951   8.815   3.087   2.182  0.5773 -0.1467 -0.2413
 6695SOL     OW21952   6.096   8.873   1.630  0.2443 -0.3617 -0.2575
 6695SOL    HW121953   6.042   8.799   1.657 -2.7453  2.2523  1.6755
 6695SOL    HW221954   6.180   8.834   1.605 -2.4033 -4.8030 -3.7696
 6696SOL     OW21955   0.398   6.368   6.375  0.5031  0.2476 -0.2122
 6696SOL    HW121956   0.469   6.384   6.313 -0.1538  0.9663 -0.7880
 6696SOL    HW221957   0.328   6.329   6.323  0.1346  0.3752  0.1799
 6697SOL     OW21958   0.070   0.912   0.357  0.0579 -0.0274 -0.3898
 6697SOL    HW121959   0.036   0.911   0.268  2.6972  0.1057 -1.5036
 6697SOL    HW221960   0.098   1.003   0.371 -1.5345  0.2818  1.1383
 6698SOL     OW21961   5.597   0.153   1.246  0.4876  0.1935 -0.3933
 6698SOL    HW121962   5.651   0.079   1.275 -1.4727 -1.1176  0.0726
 6698SOL    HW221963   5.660   0.225   1.236  2.0623 -0.7419  1.8721
 6699SOL     OW21964   3.515   7.642   3.415  1.0919  0.5815 -0.4514
 6699SOL    HW121965   3.548   7.572   3.471 -0.4436  0.3327  0.1910
 6699SOL    HW221966   3.546   7.723   3.457  0.9876  0.3579  0.0638
 6700SOL     OW21967   4.677   2.037   6.554  0.2382 -0.4585 -0.2770
 6700SOL    HW121968   4.638   2.029   6.642 -1.6156  0.2024 -0.9960
 6700SOL    HW221969   4.628   1.974   6.501 -1.2895  1.7758 -1.6556
 6701SOL     OW21970   2.031   0.291   5.530  0.2684 -0.1335 -0.1014
 6701SOL    HW121971   2.041   0.219   5.593  0.2997  1.8735  2.3578
 6701SOL    HW221972   1.939   0.288   5.505 -0.4594  0.6273  2.2297
 6702SOL     OW21973   1.752   5.849   1.046 -0.6479 -0.0916 -0.3208
 6702SOL    HW121974   1.778   5.865   1.137 -1.2412  0.0721 -0.1760
 6702SOL    HW221975   1.790   5.764   1.025 -2.1155 -1.0520  0.7280
 6703SOL     OW21976   4.909   7.787   4.039  0.3431  0.0966 -0.1208
 6703SOL    HW121977   4.916   7.701   4.081 -0.6154 -0.0703 -0.2872
 6703SOL    HW221978   4.884   7.767   3.948  0.1417  0.5468 -0.1670
 6704SOL     OW21979   8.625   4.038   2.978  0.0492  0.6596 -0.2806
 6704SOL    HW121980   8.704   4.075   2.939 -0.6807  0.7000 -1.7949
 6704SOL    HW221981   8.554   4.072   2.925 -0.9320 -0.0130  0.5616
 6705SOL     OW21982   3.606   1.349   7.772 -0.2792 -0.0994 -0.0946
 6705SOL    HW121983   3.511   1.347   7.762 -0.4629  1.1458  1.0735
 6705SOL    HW221984   3.634   1.425   7.720 -0.1607  0.6100  0.9645
 6706SOL     OW21985   0.235   5.833   7.141 -0.5457  0.3038 -0.2709
 6706SOL    HW121986   0.139   5.837   7.135 -0.5896  2.1847  0.6965
 6706SOL    HW221987   0.252   5.798   7.228 -0.3662  0.0996 -0.3901
 6707SOL     OW21988   2.362   3.098   1.888 -0.3473 -0.0521 -0.1246
 6707SOL    HW121989   2.315   3.167   1.839 -1.4940 -0.0532  0.9210
 6707SOL    HW221990   2.336   3.017   1.844 -0.6675  0.0205 -0.0779
 6708SOL     OW21991   5.620   1.794   3.776  0.1164 -0.1421  0.0709
 6708SOL    HW121992   5.588   1.725   3.834  0.1035  0.2148  0.4973
 6708SOL    HW221993   5.553   1.862   3.780  0.1173 -0.1097 -0.3657
 6709SOL     OW21994   5.715   8.240   5.490 -0.3094 -0.2741  0.2816
 6709SOL    HW121995   5.650   8.248   5.420 -0.9206  0.8704  0.9583
 6709SOL    HW221996   5.665   8.203   5.563  0.2898 -1.3140  0.1886
 6710SOL     OW21997   2.706   2.693   7.424  0.0610  0.4234  0.2876
 6710SOL    HW121998   2.682   2.781   7.393 -0.1549 -0.3350 -1.8537
 6710SOL    HW221999   2.623   2.651   7.443  0.1343  0.4217  0.6203
 6711SOL     OW22000   1.603   0.835   6.236 -0.5122 -0.3805  0.7472
 6711SOL    HW122001   1.676   0.850   6.296 -1.6468  0.3056  2.0148
 6711SOL    HW222002   1.637   0.859   6.150  1.2211 -1.5806  1.0565
 6712SOL     OW22003   1.230   0.570   7.760 -0.2631 -0.0463  0.5011
 6712SOL    HW122004   1.157   0.528   7.714  2.5180 -3.1124 -1.4965
 6712SOL    HW222005   1.285   0.606   7.690  2.1844 -1.4799  1.5929
 6713SOL     OW22006   3.636   4.658   7.748 -0.1536  0.3272 -0.4578
 6713SOL    HW122007   3.665   4.605   7.822 -2.3323  0.8944  0.8911
 6713SOL    HW222008   3.678   4.618   7.672 -1.0970 -2.9105  0.5547
 6714SOL     OW22009   1.796   6.223   3.566  0.0380  0.0130 -0.2826
 6714SOL    HW122010   1.818   6.159   3.499 -0.3814  0.1279 -0.5311
 6714SOL    HW222011   1.792   6.173   3.647  0.5037 -0.1344 -0.3462
 6715SOL     OW22012   5.153   0.359   1.036 -0.2259 -0.2832  0.1425
 6715SOL    HW122013   5.236   0.344   1.081  0.1060 -1.8877 -0.8974
 6715SOL    HW222014   5.162   0.446   0.998  1.2307 -0.6315 -0.3916
 6716SOL     OW22015   0.388   3.216   1.986  0.2417 -0.5252 -0.7357
 6716SOL    HW122016   0.410   3.307   2.005  1.2337 -0.9654  0.3886
 6716SOL    HW222017   0.394   3.209   1.891  1.2704  0.3199 -0.7537
 6717SOL     OW22018   4.176   2.247   4.683 -0.2953 -0.8681 -0.2165
 6717SOL    HW122019   4.235   2.279   4.614 -0.6597 -2.4382 -1.3020
 6717SOL    HW222020   4.217   2.277   4.765  1.2207 -0.6423 -1.0131
 6718SOL     OW22021   4.684   4.483   7.096 -0.1279  0.4390 -0.1377
 6718SOL    HW122022   4.691   4.427   7.019  0.3495  0.3954 -0.0629
 6718SOL    HW222023   4.770   4.479   7.137 -0.6336 -0.2451  0.9000
 6719SOL     OW22024   4.337   2.489   1.348 -0.2529 -0.3267 -0.6517
 6719SOL    HW122025   4.268   2.504   1.283 -0.7258  0.1260 -0.0635
 6719SOL    HW222026   4.355   2.576   1.384 -0.7538 -0.7135  0.5672
 6720SOL     OW22027   3.069   5.576   5.143  0.2000  0.0327  0.1210
 6720SOL    HW122028   3.159   5.584   5.175  0.3853  0.9046 -0.5653
 6720SOL    HW222029   3.032   5.663   5.156 -0.2866 -0.1014 -0.3604
 6721SOL     OW22030   6.563   5.566   3.517 -0.2330 -0.3746 -0.2258
 6721SOL    HW122031   6.621   5.633   3.480  0.9061  0.8449  3.4288
 6721SOL    HW222032   6.583   5.487   3.467  2.0020  0.8379 -1.4007
 6722SOL     OW22033   4.232   1.033   6.432 -0.6969 -0.2653 -0.0452
 6722SOL    HW122034   4.245   0.981   6.353  1.8967 -1.2642  0.9234
 6722SOL    HW222035   4.298   1.103   6.425 -1.0736  0.1833  0.7885
 6723SOL     OW22036   3.076   6.161   0.349 -0.5179  0.0589 -0.1842
 6723SOL    HW122037   3.165   6.126   0.338 -0.3175  0.5017 -0.0198
 6723SOL    HW222038   3.021   6.084   0.362 -0.2085 -0.2404 -0.6391
 6724SOL     OW22039   5.562   8.733   8.859  0.1569 -0.6248  0.1904
 6724SOL    HW122040   5.602   8.710   8.775  1.6049  0.9124  0.4089
 6724SOL    HW222041   5.557   8.650   8.907  0.5509 -1.2923 -0.8852
 6725SOL     OW22042   5.166   7.575   7.190 -0.3366 -0.6378  0.2061
 6725SOL    HW122043   5.131   7.499   7.234 -1.9392  1.3075  2.5283
 6725SOL    HW222044   5.092   7.613   7.143 -0.5902  1.4488  2.1077
 6726SOL     OW22045   4.873   7.684   0.644  0.4852  0.1454  0.3956
 6726SOL    HW122046   4.804   7.660   0.706 -2.9701  1.6098 -2.5146
 6726SOL    HW222047   4.904   7.770   0.674 -0.1821  0.2289  0.8595
 6727SOL     OW22048   4.602   1.529   6.547  0.1502  0.0356  0.3089
 6727SOL    HW122049   4.511   1.504   6.529 -0.1079 -0.0971  1.6829
 6727SOL    HW222050   4.655   1.463   6.503 -0.3915  0.3417 -0.8477
 6728SOL     OW22051   4.537   6.600   7.965  0.1583 -0.1242  0.2367
 6728SOL    HW122052   4.510   6.635   8.050  3.3129  3.1629  0.1539
 6728SOL    HW222053   4.620   6.556   7.983  1.1033  1.0161 -1.1233
 6729SOL     OW22054   7.858   5.478   6.923  0.3891 -0.3537  0.2194
 6729SOL    HW122055   7.765   5.465   6.939  0.1555 -0.2649 -1.0214
 6729SOL    HW222056   7.863   5.550   6.860  1.2489 -0.9294 -0.4008
 6730SOL     OW22057   6.474   4.467   2.896  0.6647 -0.0933 -0.3018
 6730SOL    HW122058   6.474   4.543   2.837 -2.7926  0.1065 -0.2997
 6730SOL    HW222059   6.510   4.396   2.844  0.1076  0.6675 -1.7862
 6731SOL     OW22060   7.944   0.105   4.899  0.2867  0.6648  0.5365
 6731SOL    HW122061   7.971   0.169   4.832  0.7383  0.0674  0.1282
 6731SOL    HW222062   8.018   0.044   4.903 -0.5508 -0.3918  0.1990
 6732SOL     OW22063   0.320   4.412   2.298  0.1344  0.2760  0.4572
 6732SOL    HW122064   0.373   4.337   2.273  0.6948  0.2486  1.6718
 6732SOL    HW222065   0.268   4.431   2.220  1.1658 -0.3424 -0.4117
 6733SOL     OW22066   8.334   7.512   4.707 -0.4931 -0.3999 -0.2548
 6733SOL    HW122067   8.329   7.479   4.617 -0.1655 -0.6099 -0.1986
 6733SOL    HW222068   8.381   7.443   4.755 -1.4593 -0.7125  0.2729
 6734SOL     OW22069   6.808   3.287   1.058  0.1623  0.0105 -0.7229
 6734SOL    HW122070   6.719   3.264   1.033  0.4442  0.2520 -1.9952
 6734SOL    HW222071   6.864   3.223   1.014  0.5415 -2.1546  2.5029
 6735SOL     OW22072   5.162   4.745   2.537 -0.4033  0.3555 -0.9278
 6735SOL    HW122073   5.184   4.655   2.516 -0.6135  0.1724 -0.3926
 6735SOL    HW222074   5.067   4.744   2.550 -0.3300  0.5295 -0.3476
 6736SOL     OW22075   5.732   8.624   0.817  0.3426  0.0639 -0.1956
 6736SOL    HW122076   5.670   8.580   0.759  0.1333  0.2431 -0.1093
 6736SOL    HW222077   5.802   8.561   0.830 -0.1167 -0.3741  0.2012
 6737SOL     OW22078   2.567   0.169   7.321 -0.1518  0.1655  0.0389
 6737SOL    HW122079   2.512   0.091   7.318 -1.6462  1.1734  0.1580
 6737SOL    HW222080   2.579   0.193   7.229  0.7949 -0.4848 -0.0335
 6738SOL     OW22081   0.034   4.736   1.663 -0.6082 -0.3235  0.4358
 6738SOL    HW122082  -0.035   4.800   1.643 -1.6585 -1.0450  1.6154
 6738SOL    HW222083   0.115   4.783   1.644 -1.3964  0.6089 -0.8240
 6739SOL     OW22084   1.729   8.121   4.801  0.2053 -0.5160 -0.7192
 6739SOL    HW122085   1.762   8.186   4.864  2.3519  0.0459 -2.3058
 6739SOL    HW222086   1.772   8.040   4.826  0.1834 -0.5481 -0.7849
 6740SOL     OW22087   4.443   7.493   0.612  0.2174 -0.3659  0.1360
 6740SOL    HW122088   4.353   7.462   0.598  0.0035 -0.3571  1.3919
 6740SOL    HW222089   4.498   7.425   0.575 -0.2917 -0.7500  0.0733
 6741SOL     OW22090   1.740   8.513   1.182  0.2280  0.1404 -0.4944
 6741SOL    HW122091   1.826   8.529   1.144  1.4727 -2.4932  0.9303
 6741SOL    HW222092   1.699   8.449   1.123  0.6922 -1.2028  0.5983
 6742SOL     OW22093   1.361   0.532   4.649 -0.0624 -0.0614 -0.3924
 6742SOL    HW122094   1.303   0.594   4.692  1.3937 -0.0359  1.6791
 6742SOL    HW222095   1.329   0.528   4.559 -1.7090  1.8042  0.0350
 6743SOL     OW22096   1.460   6.115   8.419  0.0379 -0.5183 -0.0067
 6743SOL    HW122097   1.378   6.162   8.435  0.2287 -0.1049 -0.2362
 6743SOL    HW222098   1.508   6.121   8.503  0.1560 -0.1113 -0.1010
 6744SOL     OW22099   8.257   7.471   8.261  0.0932  0.1356 -0.2646
 6744SOL    HW122100   8.289   7.415   8.190  0.7372  1.3397 -0.9563
 6744SOL    HW222101   8.230   7.410   8.330  1.5391 -1.0050 -0.6663
 6745SOL     OW22102   5.476   1.610   2.242  0.4690 -0.4047 -0.1850
 6745SOL    HW122103   5.504   1.552   2.171  0.5506 -0.8345  0.1950
 6745SOL    HW222104   5.382   1.619   2.230  0.8786  2.4137 -2.5030
 6746SOL     OW22105   2.899   2.833   5.588  0.1773 -0.7924  0.1223
 6746SOL    HW122106   2.910   2.809   5.496  0.2230  0.1537 -0.1274
 6746SOL    HW222107   2.953   2.770   5.636 -0.1703 -1.5514 -0.4609
 6747SOL     OW22108   5.065   2.137   0.956  1.3109 -0.0661 -0.6410
 6747SOL    HW122109   5.043   2.209   0.897 -1.0376 -0.8487 -0.8262
 6747SOL    HW222110   5.133   2.088   0.911  1.2758  0.7298 -1.5787
 6748SOL     OW22111   6.485   3.454   6.050  0.3770  0.4246 -0.2620
 6748SOL    HW122112   6.504   3.378   5.996  0.0620 -2.1094  2.8970
 6748SOL    HW222113   6.398   3.483   6.021  0.1046 -1.0006 -0.9621
 6749SOL     OW22114   3.939   4.536   3.521 -0.6236 -0.5712  0.1598
 6749SOL    HW122115   4.031   4.563   3.521 -0.7649 -0.0305  1.2264
 6749SOL    HW222116   3.934   4.471   3.591 -1.2900  0.3041  0.9443
 6750SOL     OW22117   3.330   4.715   3.857  0.0087  0.3521  0.6037
 6750SOL    HW122118   3.360   4.669   3.778 -0.1552  0.1492  0.6620
 6750SOL    HW222119   3.236   4.728   3.843 -0.6445 -2.2443  2.0433
 6751SOL     OW22120   8.194   7.636   1.762 -0.2727 -0.5612  0.3019
 6751SOL    HW122121   8.241   7.555   1.779 -0.1935 -0.8185 -0.9993
 6751SOL    HW222122   8.102   7.615   1.782 -0.1103 -0.6468  0.9706
 6752SOL     OW22123   6.618   6.732   4.134  0.3866 -0.5791 -0.0990
 6752SOL    HW122124   6.701   6.779   4.137  0.1513 -0.1506 -0.2327
 6752SOL    HW222125   6.622   6.671   4.208  0.3877  0.1579  0.5085
 6753SOL     OW22126   6.092   1.242   4.300 -0.3057 -0.0406 -0.8005
 6753SOL    HW122127   6.051   1.156   4.292 -0.1722 -0.0093 -1.9353
 6753SOL    HW222128   6.126   1.262   4.213  0.3765  0.8149 -0.3656
 6754SOL     OW22129   2.953   2.080   3.547 -0.6848  0.0975 -0.5263
 6754SOL    HW122130   2.987   2.088   3.637  0.1846  0.1823 -0.8552
 6754SOL    HW222131   2.891   2.008   3.552 -1.6302  0.9264  0.4307
 6755SOL     OW22132   2.162   1.040   2.373 -0.5539  0.1120  0.4707
 6755SOL    HW122133   2.237   0.998   2.414  0.0087  0.7170  0.0742
 6755SOL    HW222134   2.149   1.121   2.423 -0.3474  0.4711 -0.0521
 6756SOL     OW22135   3.148   7.218   6.535 -0.2413  0.2311 -0.1258
 6756SOL    HW122136   3.191   7.282   6.478 -0.0046 -0.8063 -1.1487
 6756SOL    HW222137   3.059   7.253   6.547  0.2268  1.3338  0.3062
 6757SOL     OW22138   7.128   4.806   8.366 -0.1843 -0.3436 -0.2554
 6757SOL    HW122139   7.075   4.794   8.446 -0.9705 -0.3437 -0.7674
 6757SOL    HW222140   7.217   4.782   8.393 -0.9658 -3.8436 -0.1995
 6758SOL     OW22141   6.351   4.281   4.622  0.5611 -0.2873  0.6643
 6758SOL    HW122142   6.361   4.313   4.712  1.2057 -0.5906  0.7057
 6758SOL    HW222143   6.430   4.310   4.577 -0.0892  0.4825 -0.0000
 6759SOL     OW22144   8.470   0.189   1.669  0.6520  0.4246  0.1916
 6759SOL    HW122145   8.376   0.179   1.684  0.4628  0.5183 -0.8532
 6759SOL    HW222146   8.477   0.264   1.611  1.2970 -0.1589 -0.5092
 6760SOL     OW22147   2.159   3.179   1.293  0.5001 -0.4154  0.0118
 6760SOL    HW122148   2.072   3.195   1.257  0.1854 -2.1859 -0.1404
 6760SOL    HW222149   2.164   3.234   1.371 -0.3901  0.3972 -0.4897
 6761SOL     OW22150   7.346   8.701   0.873 -0.3972 -0.3243  0.0561
 6761SOL    HW122151   7.351   8.634   0.805  1.0331 -2.0581  1.7751
 6761SOL    HW222152   7.356   8.784   0.826 -0.3197 -1.4022 -1.9123
 6762SOL     OW22153   7.261   6.476   8.819  0.0281  0.4958  0.1599
 6762SOL    HW122154   7.218   6.557   8.792 -0.2088 -0.1053 -1.3311
 6762SOL    HW222155   7.243   6.414   8.749  1.5738 -0.3905  0.4901
 6763SOL     OW22156   8.701   7.040   5.559  0.1554 -0.0849  0.2315
 6763SOL    HW122157   8.679   7.077   5.474  0.3395 -0.1269  0.1660
 6763SOL    HW222158   8.672   6.949   5.554 -2.3273  0.5580  1.1420
 6764SOL     OW22159   8.491   3.801   2.247  0.3725 -0.4207  0.4306
 6764SOL    HW122160   8.546   3.822   2.323 -1.0452 -0.5288  1.5364
 6764SOL    HW222161   8.415   3.756   2.285 -0.0931 -0.9977 -1.1300
 6765SOL     OW22162   8.916   1.172   1.543  0.1872  0.5713  0.3422
 6765SOL    HW122163   8.837   1.206   1.500  1.0759  0.9939 -1.0255
 6765SOL    HW222164   8.927   1.084   1.507  0.9383  0.9266 -0.3240
 6766SOL     OW22165   7.894   3.638   2.562  0.2808  0.7369  0.1883
 6766SOL    HW122166   7.902   3.731   2.543  1.4396  0.6367  0.1257
 6766SOL    HW222167   7.857   3.600   2.482 -0.6680  1.2022  0.3952
 6767SOL     OW22168   0.980   8.637   7.128 -0.9118 -0.4056  0.1332
 6767SOL    HW122169   1.004   8.696   7.056 -0.2389 -0.9734 -0.1235
 6767SOL    HW222170   0.891   8.609   7.108 -0.9060 -0.1728 -0.2185
 6768SOL     OW22171   5.278   7.141   4.329 -0.6459 -0.3313 -0.3962
 6768SOL    HW122172   5.324   7.209   4.281  0.3996  0.4243  1.5561
 6768SOL    HW222173   5.346   7.077   4.352 -1.4292 -1.5432 -1.3153
 6769SOL     OW22174   5.515   6.744   2.435 -0.4818  0.4949 -0.1032
 6769SOL    HW122175   5.566   6.663   2.437 -0.2526  0.6410  1.7626
 6769SOL    HW222176   5.460   6.736   2.357 -1.2700 -1.9635  0.5996
 6770SOL     OW22177   0.414   8.196   7.480 -0.1343 -0.0521 -0.0731
 6770SOL    HW122178   0.489   8.244   7.515 -1.2522 -0.6284  3.6458
 6770SOL    HW222179   0.452   8.118   7.440  1.3514  0.7124 -0.2015
 6771SOL     OW22180   2.411   4.934   2.549 -0.6350  0.1423  0.5442
 6771SOL    HW122181   2.461   5.005   2.589 -0.9156  0.9428 -0.4900
 6771SOL    HW222182   2.321   4.950   2.576 -1.0484  1.4910 -1.4579
 6772SOL     OW22183   1.833   6.415   6.869 -0.1907  0.2738  0.2127
 6772SOL    HW122184   1.817   6.327   6.836 -3.2511  0.4548  0.8719
 6772SOL    HW222185   1.837   6.470   6.791  1.1520 -0.3324 -0.1695
 6773SOL     OW22186   4.429   6.235   8.878 -0.1897  0.2689 -0.7183
 6773SOL    HW122187   4.389   6.315   8.912  0.2041  0.4932 -0.7788
 6773SOL    HW222188   4.521   6.258   8.866  0.0198 -0.3447 -0.2791
 6774SOL     OW22189   6.703   1.997   6.862 -0.4527 -0.1501 -0.1342
 6774SOL    HW122190   6.763   1.924   6.876 -2.0646 -1.6082 -0.4108
 6774SOL    HW222191   6.734   2.067   6.919 -0.0101 -1.7655  1.6676
 6775SOL     OW22192   4.887   5.538   8.031 -0.2554  0.2962 -0.0245
 6775SOL    HW122193   4.814   5.563   7.974 -0.6194  0.9325  0.7077
 6775SOL    HW222194   4.849   5.472   8.090 -0.9000  2.2340  1.8368
 6776SOL     OW22195   7.692   8.792   1.596  0.1048  0.1034  0.3620
 6776SOL    HW122196   7.606   8.778   1.558  0.5156 -0.9969 -0.2254
 6776SOL    HW222197   7.689   8.747   1.681 -0.2729  1.1085  0.8942
 6777SOL     OW22198   4.182   5.712   1.414 -0.1811  0.2799 -0.0992
 6777SOL    HW122199   4.256   5.714   1.354 -0.2829  1.4800 -0.2135
 6777SOL    HW222200   4.219   5.682   1.497  0.4988  1.1273 -0.0876
 6778SOL     OW22201   5.845   7.844   5.474 -0.6120  0.0460  0.2770
 6778SOL    HW122202   5.862   7.939   5.476 -1.7391  0.2640  0.0316
 6778SOL    HW222203   5.779   7.830   5.542  0.0485 -0.6887  0.7876
 6779SOL     OW22204   1.001   6.045   0.040  0.2451 -0.2023 -0.2113
 6779SOL    HW122205   1.090   6.056   0.006  0.5117  0.4579  0.6829
 6779SOL    HW222206   0.963   5.977  -0.015  1.4263 -0.7493 -0.3726
 6780SOL     OW22207   5.735   5.964   7.020  0.1922 -0.1564  0.9306
 6780SOL    HW122208   5.747   6.050   6.979  1.4012 -0.5664  0.3769
 6780SOL    HW222209   5.669   5.979   7.087 -0.9668  0.7988 -0.3673
 6781SOL     OW22210   7.334   0.750   2.872  0.2718  0.3164 -0.1146
 6781SOL    HW122211   7.268   0.788   2.929  1.6730  0.0349  1.7843
 6781SOL    HW222212   7.347   0.816   2.803 -1.9506  0.3534 -0.5906
 6782SOL     OW22213   0.030   3.640   6.909 -0.4107 -0.2373 -0.0238
 6782SOL    HW122214  -0.047   3.696   6.911 -0.7232 -0.6691  0.2251
 6782SOL    HW222215   0.059   3.642   6.818 -2.4060 -2.3121 -0.8064
 6783SOL     OW22216   8.954   0.317   4.807 -0.6213  0.3238 -0.0208
 6783SOL    HW122217   9.035   0.349   4.846 -0.4398  0.3083 -0.3811
 6783SOL    HW222218   8.892   0.390   4.816 -0.5972  0.2984  0.3456
 6784SOL     OW22219   8.462   4.856   6.398 -0.4332  0.0706 -0.0869
 6784SOL    HW122220   8.425   4.891   6.479  1.8238 -0.0103  1.0473
 6784SOL    HW222221   8.556   4.865   6.409 -0.0470 -0.0352 -2.6919
 6785SOL     OW22222   7.302   7.485   0.663  0.3227 -0.1099 -0.8034
 6785SOL    HW122223   7.263   7.397   0.663  1.5138 -0.6747  0.1936
 6785SOL    HW222224   7.234   7.541   0.625 -1.1458 -1.1744  0.1020
 6786SOL     OW22225   0.389   1.343   5.526  0.6550 -0.0989  0.2125
 6786SOL    HW122226   0.431   1.292   5.596 -1.9315 -3.5553 -0.4793
 6786SOL    HW222227   0.297   1.317   5.529 -0.3773  2.7591 -1.9469
 6787SOL     OW22228   7.516   0.535   7.482 -0.5299 -0.0817 -0.2810
 6787SOL    HW122229   7.488   0.444   7.475  0.4864 -0.4876  0.6310
 6787SOL    HW222230   7.509   0.555   7.575  1.9479 -0.1759  0.0002
 6788SOL     OW22231   8.292   8.991   1.885  0.2897  0.0669  0.1589
 6788SOL    HW122232   8.287   8.995   1.980  0.4953  1.6664  0.1286
 6788SOL    HW222233   8.284   9.082   1.856  2.8139 -0.0380 -1.2156
 6789SOL     OW22234   8.224   7.486   3.798  0.1355 -0.0679 -0.6250
 6789SOL    HW122235   8.293   7.540   3.760  0.2022 -1.1044 -2.0449
 6789SOL    HW222236   8.267   7.438   3.869  0.5504  0.2659 -0.6469
 6790SOL     OW22237   5.321   0.688   6.543  0.8978  0.6016  0.3363
 6790SOL    HW122238   5.341   0.766   6.491 -0.1925  0.6480 -0.0386
 6790SOL    HW222239   5.307   0.721   6.632 -0.1753  0.9363  0.0595
 6791SOL     OW22240   4.007   3.994   1.043 -0.2339  0.1088 -0.0400
 6791SOL    HW122241   4.039   4.063   0.985  1.2671 -0.2774  0.2894
 6791SOL    HW222242   4.000   3.917   0.986 -0.8519  0.2524 -0.1662
 6792SOL     OW22243   0.025   2.092   8.832  0.2169 -0.5825  0.0627
 6792SOL    HW122244   0.006   2.032   8.904  1.7230 -0.0334  0.9720
 6792SOL    HW222245  -0.029   2.169   8.851  0.8485 -0.3111  0.8074
 6793SOL     OW22246   3.464   0.944   3.583 -0.0909 -0.3081  0.4790
 6793SOL    HW122247   3.533   1.005   3.609 -0.8411  0.3822  0.8825
 6793SOL    HW222248   3.438   0.899   3.664  0.0217 -0.7186  0.2935
 6794SOL     OW22249   0.195   5.683   8.445 -0.1650  0.1854 -0.3297
 6794SOL    HW122250   0.117   5.659   8.395 -1.9886 -0.1881  2.4617
 6794SOL    HW222251   0.227   5.600   8.481  0.4553  0.5645  0.0064
 6795SOL     OW22252   3.459   2.261   6.741 -0.0904  0.8284  0.1100
 6795SOL    HW122253   3.501   2.178   6.723  0.1679  0.9303  0.2385
 6795SOL    HW222254   3.431   2.293   6.655 -0.9585  0.2075  0.1492
 6796SOL     OW22255   2.623   8.735   6.394 -0.1205  0.2798 -0.3214
 6796SOL    HW122256   2.655   8.724   6.484 -3.0203  1.0025  0.9421
 6796SOL    HW222257   2.680   8.680   6.341  0.4773 -1.8078  2.2561
 6797SOL     OW22258   7.589   1.166   4.318  0.6025  0.2333 -0.3088
 6797SOL    HW122259   7.555   1.253   4.338  0.1493 -0.1001  0.4258
 6797SOL    HW222260   7.664   1.182   4.261  0.2907  1.0794 -0.4975
 6798SOL     OW22261   7.903   2.214   1.528 -0.4206 -0.0077 -0.4869
 6798SOL    HW122262   7.862   2.183   1.609  0.0967 -1.4923 -0.7627
 6798SOL    HW222263   7.864   2.160   1.459 -0.5389  0.9468 -1.1824
 6799SOL     OW22264   8.337   0.513   3.781  0.1381  0.2755  0.1158
 6799SOL    HW122265   8.251   0.555   3.788 -0.4118 -0.8828  0.5351
 6799SOL    HW222266   8.326   0.450   3.710  0.6073  0.0263  0.2636
 6800SOL     OW22267   7.319   0.465   4.578 -0.3462  0.2156 -0.5199
 6800SOL    HW122268   7.315   0.401   4.507  0.6187 -1.2807  0.7071
 6800SOL    HW222269   7.412   0.488   4.584 -0.5639  1.0834 -0.3712
 6801SOL     OW22270   5.444   6.640   5.131  0.3094  0.0182 -0.5199
 6801SOL    HW122271   5.401   6.670   5.211  0.2900 -0.0921 -0.4892
 6801SOL    HW222272   5.447   6.718   5.075  0.1206  0.0390 -0.4999
 6802SOL     OW22273   7.681   4.015   0.896 -0.5260 -0.0600  0.6412
 6802SOL    HW122274   7.720   3.946   0.843  1.2911  0.7094  0.8762
 6802SOL    HW222275   7.701   4.096   0.849 -1.1614  0.4305  1.1888
 6803SOL     OW22276   2.660   8.555   3.593  0.0323 -0.1943  0.4332
 6803SOL    HW122277   2.727   8.493   3.564 -0.0301 -0.1694  0.2355
 6803SOL    HW222278   2.590   8.500   3.629  0.0826 -0.2283  0.4786
 6804SOL     OW22279   5.711   8.262   2.094  0.0905 -0.2208  0.0524
 6804SOL    HW122280   5.793   8.258   2.046  0.2951 -0.1485  0.3935
 6804SOL    HW222281   5.679   8.351   2.081  0.2645 -0.1292  0.2435
 6805SOL     OW22282   2.584   0.513   3.182 -0.5147  0.1242  0.5468
 6805SOL    HW122283   2.588   0.542   3.091  0.4644  1.8291  1.0897
 6805SOL    HW222284   2.590   0.418   3.177  0.7709  0.2463 -1.1136
 6806SOL     OW22285   5.030   1.220   7.117 -0.0627  0.2706  0.1536
 6806SOL    HW122286   5.058   1.128   7.114  1.2379  0.6669 -2.0243
 6806SOL    HW222287   5.108   1.268   7.146 -0.4354  0.7869  0.3170
 6807SOL     OW22288   1.110   1.404   6.109  0.5772  0.3370 -0.0836
 6807SOL    HW122289   1.200   1.405   6.076  1.4958 -1.3811  2.0855
 6807SOL    HW222290   1.080   1.315   6.094  0.5395 -0.1071  2.2142
 6808SOL     OW22291   7.969   1.882   8.874 -0.0365  0.2565  0.1031
 6808SOL    HW122292   7.897   1.858   8.932  0.7655  0.0277  1.0217
 6808SOL    HW222293   8.036   1.816   8.889  0.6297  0.8343 -0.2447
 6809SOL     OW22294   7.973   8.550   7.961 -0.4393 -0.1535  0.3816
 6809SOL    HW122295   8.061   8.586   7.947  0.0139 -1.7921 -1.4209
 6809SOL    HW222296   7.934   8.608   8.026  1.7586  0.9747  0.8110
 6810SOL     OW22297   3.868   6.185   1.303 -0.4682 -0.1099 -0.1223
 6810SOL    HW122298   3.852   6.251   1.236 -2.6150 -0.4638 -0.0190
 6810SOL    HW222299   3.916   6.116   1.257 -0.9780  0.1242 -1.0291
 6811SOL     OW22300   6.849   7.321   0.994  0.0722  0.1269 -0.0173
 6811SOL    HW122301   6.786   7.319   0.922 -0.3720 -0.0888  0.3714
 6811SOL    HW222302   6.906   7.246   0.978 -0.8892 -0.7750  0.6029
 6812SOL     OW22303   6.210   0.825   4.976 -0.0148 -0.4680 -0.2196
 6812SOL    HW122304   6.286   0.871   5.013  0.9434 -2.1889  0.0433
 6812SOL    HW222305   6.233   0.812   4.883 -1.1907  1.3546 -0.8131
 6813SOL     OW22306   1.386   4.596   1.885 -0.4677 -0.1991  0.7004
 6813SOL    HW122307   1.332   4.653   1.941  1.0004  1.8076  0.1841
 6813SOL    HW222308   1.389   4.641   1.801  1.1899 -0.7722  0.4228
 6814SOL     OW22309   7.470   5.776   3.164  0.8574  0.4215  0.0453
 6814SOL    HW122310   7.442   5.803   3.252  1.9446 -2.0361  1.2289
 6814SOL    HW222311   7.536   5.841   3.139 -1.5610  2.9494 -0.3856
 6815SOL     OW22312   0.960   6.316   8.994 -0.2850 -0.4154 -0.8881
 6815SOL    HW122313   0.924   6.361   9.071  0.3957  0.8303 -1.2645
 6815SOL    HW222314   0.976   6.227   9.024  2.4805  0.6558  1.3370
 6816SOL     OW22315   5.196   1.989   8.782  0.1144 -0.0960  0.1017
 6816SOL    HW122316   5.218   2.045   8.707 -1.2675  0.3450  0.0070
 6816SOL    HW222317   5.190   2.050   8.856  2.4667 -0.6490  0.8378
 6817SOL     OW22318   1.357   6.471   6.132  0.5615 -0.3261  0.8697
 6817SOL    HW122319   1.297   6.400   6.110  0.3617 -0.0597  0.5502
 6817SOL    HW222320   1.363   6.523   6.052  2.1116 -0.9761  0.5320
 6818SOL     OW22321   8.016   1.995   6.915  0.2670 -0.2749  0.5404
 6818SOL    HW122322   8.103   1.960   6.935  0.0197 -1.7087 -0.6972
 6818SOL    HW222323   8.013   2.000   6.819 -1.1311 -0.6041  0.5399
 6819SOL     OW22324   3.018   0.128   8.571 -0.2937  0.7373 -0.1912
 6819SOL    HW122325   3.103   0.149   8.531 -0.4073 -0.3683 -1.0727
 6819SOL    HW222326   3.015   0.181   8.650  1.8084 -0.1263  0.5574
 6820SOL     OW22327   6.103   5.451   4.346  0.1221  0.2417 -0.0527
 6820SOL    HW122328   6.120   5.435   4.439  0.4436  1.2450  0.0687
 6820SOL    HW222329   6.087   5.545   4.340  1.2093  0.3732 -1.1866
 6821SOL     OW22330   8.494   0.575   4.158  0.2288 -0.4498 -0.2049
 6821SOL    HW122331   8.518   0.639   4.091  2.7300 -1.1526 -0.0884
 6821SOL    HW222332   8.411   0.607   4.194  0.1314  1.3175 -1.8673
 6822SOL     OW22333   1.348   7.970   5.420 -0.5150 -0.0115 -0.3284
 6822SOL    HW122334   1.282   7.972   5.351  0.2201 -1.1740 -1.1020
 6822SOL    HW222335   1.299   7.953   5.501 -1.1704 -0.9562 -0.9033
 6823SOL     OW22336   3.774   1.158   0.295 -0.0055 -0.0751 -0.0503
 6823SOL    HW122337   3.794   1.243   0.255  1.0373 -1.4036 -2.5702
 6823SOL    HW222338   3.773   1.096   0.222  2.4332 -2.7883  1.9723
 6824SOL     OW22339   7.727   8.077   7.454 -0.0171 -0.6237  0.4576
 6824SOL    HW122340   7.815   8.040   7.466  0.1973  0.0284  0.9467
 6824SOL    HW222341   7.733   8.165   7.489 -0.4825 -0.0641 -0.7957
 6825SOL     OW22342   1.123   4.625   1.305  0.3638 -0.5597 -0.1078
 6825SOL    HW122343   1.156   4.619   1.394 -0.8650 -0.1257  0.4145
 6825SOL    HW222344   1.201   4.634   1.250  1.1372 -0.8589  0.9166
 6826SOL     OW22345   2.224   3.722   5.638 -0.3988 -0.3054  0.0089
 6826SOL    HW122346   2.167   3.683   5.705  0.9667 -2.7181 -0.1243
 6826SOL    HW222347   2.298   3.757   5.688 -1.3658  1.8024  0.0740
 6827SOL     OW22348   3.374   0.130   3.668  0.8534  0.5468  0.3095
 6827SOL    HW122349   3.439   0.060   3.676  0.1744 -0.1257  0.0615
 6827SOL    HW222350   3.363   0.162   3.757  1.1594  0.3207  0.4318
 6828SOL     OW22351   5.906   3.059   5.714  0.3117 -0.1971  0.0356
 6828SOL    HW122352   5.918   2.964   5.722  0.8302 -0.1417 -0.0779
 6828SOL    HW222353   5.962   3.096   5.782 -0.2483  0.0136  0.3896
 6829SOL     OW22354   6.776   3.533   5.748  0.1879 -0.0664 -0.0947
 6829SOL    HW122355   6.705   3.597   5.756 -0.6837 -0.9702 -0.3929
 6829SOL    HW222356   6.855   3.583   5.766 -0.5154  0.9831  0.1884
 6830SOL     OW22357   3.119   3.730   5.506 -0.0912  0.1978 -0.1751
 6830SOL    HW122358   3.074   3.645   5.513 -1.1269  0.6936 -0.5768
 6830SOL    HW222359   3.212   3.709   5.516 -0.2707 -1.0675 -0.9483
 6831SOL     OW22360   3.956   5.824   1.598  0.7659  0.2915  1.0197
 6831SOL    HW122361   3.910   5.906   1.585 -0.1633 -0.4507 -0.6518
 6831SOL    HW222362   3.989   5.801   1.511  1.4342 -0.8550  1.5533
 6832SOL     OW22363   1.344   1.213   7.944 -0.4414  0.3114 -0.4646
 6832SOL    HW122364   1.404   1.254   8.007  0.3598 -0.6730 -0.5669
 6832SOL    HW222365   1.372   1.247   7.859  0.3757 -0.6146 -0.5728
 6833SOL     OW22366   4.604   0.089   1.857  0.0469 -0.2577  0.0835
 6833SOL    HW122367   4.562   0.174   1.840  0.0356 -0.0027  1.3328
 6833SOL    HW222368   4.696   0.104   1.836 -0.4495 -0.9407 -3.1008
 6834SOL     OW22369   2.420   5.811   3.403  0.3564 -0.1270 -0.5377
 6834SOL    HW122370   2.424   5.906   3.390 -0.2200 -0.1538 -0.9439
 6834SOL    HW222371   2.352   5.782   3.343  0.1839 -0.7367 -0.0515
 6835SOL     OW22372   5.772   8.135   3.728  0.4351 -0.4588 -0.3328
 6835SOL    HW122373   5.792   8.211   3.783  0.8581 -1.3390  0.7687
 6835SOL    HW222374   5.712   8.082   3.781 -3.1279  0.9308 -2.6027
 6836SOL     OW22375   7.858   5.085   3.173  0.5095 -0.4228  0.1323
 6836SOL    HW122376   7.778   5.136   3.157  1.3943  0.7781 -0.5929
 6836SOL    HW222377   7.830   4.994   3.164 -0.6741 -0.0099 -0.5935
 6837SOL     OW22378   1.041   2.706   3.790 -0.1292  0.5738 -0.1441
 6837SOL    HW122379   1.095   2.627   3.779 -0.4823  0.5954 -2.3535
 6837SOL    HW222380   1.100   2.778   3.767 -0.1565  0.8924  0.7323
 6838SOL     OW22381   2.769   2.795   2.732  0.4982  0.2692  0.4442
 6838SOL    HW122382   2.862   2.782   2.745  0.3264 -0.2263  1.2499
 6838SOL    HW222383   2.761   2.884   2.696  1.2334  0.5167  0.8852
 6839SOL     OW22384   6.457   6.728   8.638  0.0240 -0.1023 -0.2432
 6839SOL    HW122385   6.538   6.695   8.602  0.3002  0.9250 -0.6136
 6839SOL    HW222386   6.395   6.725   8.565 -0.4701 -1.4575  0.1954
 6840SOL     OW22387   5.047   1.952   5.385  0.2389 -0.0321  0.1727
 6840SOL    HW122388   5.003   1.869   5.368  1.6753 -0.9964  0.9277
 6840SOL    HW222389   5.038   1.966   5.480 -0.2562  0.8406  0.0071
 6841SOL     OW22390   5.470   7.643   6.617 -0.4255 -0.2601  0.9601
 6841SOL    HW122391   5.438   7.560   6.583  1.0296 -0.3440 -0.3145
 6841SOL    HW222392   5.407   7.667   6.685 -2.2827 -1.1529 -0.3347
 6842SOL     OW22393   5.878   6.742   1.623 -0.3710 -0.5884 -0.1238
 6842SOL    HW122394   5.923   6.807   1.677 -0.6901 -0.3416 -0.1506
 6842SOL    HW222395   5.887   6.774   1.533 -0.1303 -0.8226 -0.1832
 6843SOL     OW22396   4.127   0.045   4.852 -0.4138 -0.1838 -0.5520
 6843SOL    HW122397   4.108  -0.012   4.927  1.9544  0.0292  0.2725
 6843SOL    HW222398   4.216   0.076   4.867 -0.3619  0.9343 -2.8086
 6844SOL     OW22399   0.273   7.269   8.420 -0.1859 -0.7718 -0.1314
 6844SOL    HW122400   0.273   7.323   8.499  0.4125 -1.7800  0.5800
 6844SOL    HW222401   0.361   7.232   8.417 -0.0287 -0.3174 -1.5883
 6845SOL     OW22402   6.295   3.732   6.096  0.0104  0.1720  0.5723
 6845SOL    HW122403   6.335   3.812   6.063  0.9784 -0.0322  1.2339
 6845SOL    HW222404   6.295   3.673   6.020  3.3787 -0.7372  1.0972
 6846SOL     OW22405   2.059   4.453   5.108 -0.5427 -0.3950 -0.3373
 6846SOL    HW122406   2.054   4.547   5.094 -1.6923 -0.7574 -2.7280
 6846SOL    HW222407   2.151   4.431   5.093 -0.6836  0.0652 -2.0750
 6847SOL     OW22408   1.328   5.651   4.898  0.3520  0.1956  0.0781
 6847SOL    HW122409   1.282   5.576   4.937 -0.9135  0.2732 -1.1846
 6847SOL    HW222410   1.283   5.728   4.933  1.8744  0.4239  1.6465
 6848SOL     OW22411   6.158   6.069   7.997 -0.1158 -0.4162 -0.0892
 6848SOL    HW122412   6.229   6.006   7.998  0.1430 -0.1755  2.2136
 6848SOL    HW222413   6.078   6.016   8.002  0.0328 -0.6245  0.0930
 6849SOL     OW22414   6.928   4.682   6.170  0.1343  0.1859  0.5362
 6849SOL    HW122415   6.992   4.752   6.164  0.8822 -0.5331 -0.2978
 6849SOL    HW222416   6.865   4.701   6.100  0.3391  0.0397  0.3077
 6850SOL     OW22417   3.601   5.835   6.118 -0.5619  0.2433  0.5245
 6850SOL    HW122418   3.633   5.882   6.041 -3.4095  0.9889 -0.3429
 6850SOL    HW222419   3.583   5.747   6.086 -0.2216  0.0913  0.7538
 6851SOL     OW22420   1.977   6.615   0.243 -0.3586 -0.4303  0.3775
 6851SOL    HW122421   2.053   6.578   0.198 -1.0438  0.0311 -1.2495
 6851SOL    HW222422   1.955   6.550   0.310  1.1119 -0.8310  0.5088
 6852SOL     OW22423   4.259   5.215   1.703  0.0427 -0.3167 -0.4559
 6852SOL    HW122424   4.218   5.276   1.765 -1.2329 -0.5426 -1.0413
 6852SOL    HW222425   4.323   5.167   1.756 -1.2837 -0.7773  0.8103
 6853SOL     OW22426   4.916   7.480   8.466 -0.1019  0.2228  0.2824
 6853SOL    HW122427   4.904   7.504   8.374  0.7233 -1.5184 -0.3050
 6853SOL    HW222428   4.835   7.435   8.490  0.4398 -1.0624 -0.2041
 6854SOL     OW22429   3.125   7.671   3.535  0.0824  0.2441 -0.2183
 6854SOL    HW122430   3.141   7.711   3.449  0.0937  2.0365  0.5823
 6854SOL    HW222431   3.212   7.660   3.573  0.1442 -1.3565 -0.7410
 6855SOL     OW22432   6.738   6.736   7.192  0.0579  0.0109 -0.1582
 6855SOL    HW122433   6.687   6.762   7.269 -0.3533 -0.8582 -0.1351
 6855SOL    HW222434   6.753   6.642   7.203  1.5676  0.2152 -0.2259
 6856SOL     OW22435   1.094   1.375   8.798  0.5126  0.2023  0.3933
 6856SOL    HW122436   1.042   1.445   8.837 -2.2712 -0.3233 -2.0201
 6856SOL    HW222437   1.085   1.302   8.858 -0.0288  0.6779  0.8974
 6857SOL     OW22438   3.092   3.542   3.917  0.0224  0.5805  0.1267
 6857SOL    HW122439   3.102   3.451   3.892 -0.8735  0.4812  0.0983
 6857SOL    HW222440   3.177   3.582   3.895  0.5422 -0.3029  0.4547
 6858SOL     OW22441   6.581   6.214   1.031 -0.0389  0.2649 -0.2106
 6858SOL    HW122442   6.516   6.190   1.097 -0.3788 -1.0403 -0.9731
 6858SOL    HW222443   6.529   6.245   0.957  0.3362  1.6735  0.0822
 6859SOL     OW22444   1.106   8.381   7.424  0.1059 -0.2575  0.2282
 6859SOL    HW122445   1.031   8.324   7.406 -0.5081  0.6123 -0.0541
 6859SOL    HW222446   1.070   8.452   7.476  0.2685  1.2523 -1.5872
 6860SOL     OW22447   6.782   2.548   4.359  0.1226  0.5592 -0.2075
 6860SOL    HW122448   6.777   2.468   4.411 -1.4783 -2.4573 -4.3858
 6860SOL    HW222449   6.692   2.582   4.360 -0.1089  0.0585 -1.3614
 6861SOL     OW22450   3.481   5.237   4.478  0.0571  0.0742  0.2699
 6861SOL    HW122451   3.397   5.255   4.521 -0.1500 -2.6333  1.1765
 6861SOL    HW222452   3.458   5.188   4.399  0.7615 -1.0334  0.7274
 6862SOL     OW22453   2.845   3.909   6.768 -0.4787  0.1076 -0.3193
 6862SOL    HW122454   2.888   3.895   6.853 -0.6629  0.4730 -0.1633
 6862SOL    HW222455   2.917   3.922   6.707 -0.3640  0.5681 -0.0863
 6863SOL     OW22456   6.776   6.808   8.015  0.1179 -0.1005  0.2602
 6863SOL    HW122457   6.801   6.886   8.066  1.6736 -0.1710 -0.3390
 6863SOL    HW222458   6.813   6.735   8.063 -0.0023 -0.3355 -0.0036
 6864SOL     OW22459   1.321   7.799   1.437 -0.4474 -0.4296 -0.0747
 6864SOL    HW122460   1.287   7.821   1.524 -0.7489 -0.0557 -0.2846
 6864SOL    HW222461   1.243   7.801   1.381  0.0522  1.2887 -0.7382
 6865SOL     OW22462   5.896   7.223   3.392 -0.1387  0.1357 -0.7710
 6865SOL    HW122463   5.964   7.274   3.348 -1.9159  0.9726 -2.6722
 6865SOL    HW222464   5.931   7.208   3.480  0.8774  3.8736 -0.3888
 6866SOL     OW22465   7.617   5.281   7.350  0.1170  0.3338 -0.1178
 6866SOL    HW122466   7.691   5.310   7.403  1.9088  0.7289 -2.6676
 6866SOL    HW222467   7.599   5.354   7.291  1.5544 -1.7493 -3.4057
 6867SOL     OW22468   4.398   5.018   2.563 -0.1855 -0.2139  0.1339
 6867SOL    HW122469   4.400   5.095   2.619  1.4794 -0.7911  0.9365
 6867SOL    HW222470   4.305   5.002   2.548 -0.6189  0.8964  1.4072
 6868SOL     OW22471   8.486   7.186   6.149  0.2895  0.2537  0.4005
 6868SOL    HW122472   8.448   7.268   6.116 -0.1290 -0.6094 -1.3853
 6868SOL    HW222473   8.437   7.167   6.229  0.0239  1.4432  0.5456
 6869SOL     OW22474   5.852   6.273   4.204 -0.7074 -0.0460 -0.5565
 6869SOL    HW122475   5.809   6.192   4.232  0.8564 -0.3660  1.1485
 6869SOL    HW222476   5.793   6.343   4.230  0.3837 -0.3519  3.3946
 6870SOL     OW22477   2.516   4.950   0.833  0.0270  0.3056  0.3015
 6870SOL    HW122478   2.576   4.999   0.890 -0.7299  0.0910  1.3093
 6870SOL    HW222479   2.554   4.863   0.826  0.1620  0.3543  0.4295
 6871SOL     OW22480   3.362   0.373   4.736 -0.2277 -0.4278 -0.3734
 6871SOL    HW122481   3.320   0.426   4.667  0.5342 -0.0095 -0.5201
 6871SOL    HW222482   3.420   0.434   4.781  0.2788 -1.0257 -0.2169
 6872SOL     OW22483   3.412   1.154   5.978  0.0638  0.0852  0.0505
 6872SOL    HW122484   3.477   1.166   6.048  2.0947  3.1883 -2.1058
 6872SOL    HW222485   3.460   1.110   5.908 -0.6486  0.8870 -0.9696
 6873SOL     OW22486   1.959   4.264   8.252  0.0240  0.1874 -0.8654
 6873SOL    HW122487   2.001   4.265   8.338 -2.2722 -0.2344  0.3398
 6873SOL    HW222488   1.904   4.342   8.251 -0.0357  0.1429 -1.9123
 6874SOL     OW22489   7.727   7.671   4.616 -0.1801 -0.1450 -0.4189
 6874SOL    HW122490   7.817   7.694   4.591 -0.6298  1.2674 -0.8180
 6874SOL    HW222491   7.689   7.634   4.536  0.0881 -0.9415 -0.1918
 6875SOL     OW22492   8.685   1.909   3.902  0.1007  0.6024 -0.3151
 6875SOL    HW122493   8.688   1.813   3.904 -0.7819  0.5132 -1.8862
 6875SOL    HW222494   8.745   1.936   3.972 -0.3986 -1.0870  0.8432
 6876SOL     OW22495   4.938   4.362   8.272  0.5532  0.8077 -0.0138
 6876SOL    HW122496   4.885   4.437   8.246 -1.2955 -0.2138  0.6147
 6876SOL    HW222497   4.914   4.347   8.364  0.0480 -1.1717 -0.4187
 6877SOL     OW22498   3.415   8.696   3.903  0.1608  0.7030  0.1488
 6877SOL    HW122499   3.390   8.753   3.976  1.3384 -0.2814  1.3671
 6877SOL    HW222500   3.332   8.672   3.862 -0.5984  0.7495  1.5899
 6878SOL     OW22501   8.504   0.339   0.549 -0.0118 -0.2647 -0.5016
 6878SOL    HW122502   8.498   0.280   0.624  0.3103 -0.1009 -0.3507
 6878SOL    HW222503   8.588   0.317   0.508 -0.7111 -1.2050 -1.5183
 6879SOL     OW22504   7.218   5.320   5.653  0.4290 -0.3087  0.0357
 6879SOL    HW122505   7.222   5.280   5.566  0.1152  0.5558 -0.3858
 6879SOL    HW222506   7.270   5.261   5.709 -0.5677 -1.6509 -0.4127
 6880SOL     OW22507   3.349   0.174   7.753 -0.2173  0.0990 -0.0724
 6880SOL    HW122508   3.414   0.219   7.806 -0.2461 -0.2320  0.2498
 6880SOL    HW222509   3.265   0.194   7.794 -0.4974  1.7865 -1.3763
 6881SOL     OW22510   5.523   7.381   2.720  0.5115  0.0417  0.5472
 6881SOL    HW122511   5.559   7.469   2.716 -0.7383  0.5878  0.6919
 6881SOL    HW222512   5.539   7.352   2.810 -0.2449  0.6581  0.8914
 6882SOL     OW22513   1.065   2.897   6.803  0.2507 -0.3064  0.2106
 6882SOL    HW122514   1.096   2.938   6.723  0.2126 -1.2653 -0.3132
 6882SOL    HW222515   1.117   2.817   6.810 -0.5099 -0.7793  0.5526
 6883SOL     OW22516   8.991   3.044   1.437 -0.6491 -0.1457  0.7737
 6883SOL    HW122517   9.013   2.991   1.513  2.7709  0.9557  0.7266
 6883SOL    HW222518   9.073   3.090   1.415 -1.9743  0.9733 -2.4544
 6884SOL     OW22519   1.784   8.238   0.294  0.2919  0.0409  0.1557
 6884SOL    HW122520   1.803   8.159   0.244  1.0678 -0.7823  1.6794
 6884SOL    HW222521   1.694   8.259   0.272  0.5776 -0.3469 -1.4820
 6885SOL     OW22522   0.125   5.166   2.924 -0.8903  0.4067  0.0857
 6885SOL    HW122523   0.143   5.216   2.845 -0.5885 -1.5485 -1.1579
 6885SOL    HW222524   0.034   5.138   2.914  0.3645 -3.8069 -2.1015
 6886SOL     OW22525   2.405   0.901   4.296  0.3788  0.2962  0.0285
 6886SOL    HW122526   2.436   0.811   4.285 -4.5993 -1.6901  0.0686
 6886SOL    HW222527   2.408   0.916   4.391 -0.1766 -0.3874  0.1515
 6887SOL     OW22528   3.031   3.833   6.563  0.1566  0.1232 -0.4481
 6887SOL    HW122529   3.086   3.755   6.554  0.7748  0.4177  0.5160
 6887SOL    HW222530   3.033   3.874   6.477  0.9299 -0.2181 -0.6050
 6888SOL     OW22531   0.249   4.808   5.659 -0.5037 -0.2620 -0.3140
 6888SOL    HW122532   0.251   4.874   5.729  0.1677  0.4624 -0.9911
 6888SOL    HW222533   0.340   4.780   5.651 -0.9970 -2.5961  1.1343
 6889SOL     OW22534   1.880   2.704   1.510 -0.3055 -0.5885  0.0300
 6889SOL    HW122535   1.856   2.764   1.440 -2.6573  0.0581  1.2795
 6889SOL    HW222536   1.846   2.619   1.481 -1.8962 -0.1932  0.5957
 6890SOL     OW22537   5.134   2.857   4.422  0.2171  0.1586  0.0327
 6890SOL    HW122538   5.092   2.808   4.351 -2.2545  1.9992  0.0846
 6890SOL    HW222539   5.138   2.795   4.495 -4.0491  0.1754  0.5397
 6891SOL     OW22540   4.243   6.365   2.916  0.1035 -0.1466  0.3441
 6891SOL    HW122541   4.208   6.436   2.862  0.9149  0.3447  0.4572
 6891SOL    HW222542   4.189   6.289   2.892  0.2884  0.1171 -0.9780
 6892SOL     OW22543   8.285   5.082   4.337  0.1891 -0.5426 -0.1006
 6892SOL    HW122544   8.351   5.111   4.273 -0.1106  1.2916  0.3635
 6892SOL    HW222545   8.336   5.065   4.416  0.3357 -1.0991 -0.3058
 6893SOL     OW22546   8.905   8.253   8.369  0.0383 -0.1932 -0.0216
 6893SOL    HW122547   8.867   8.334   8.335 -1.0979 -0.7078 -0.0065
 6893SOL    HW222548   8.845   8.225   8.437  0.7206 -0.7701  0.3590
 6894SOL     OW22549   5.634   8.144   6.323  0.2963  0.4540  0.7504
 6894SOL    HW122550   5.564   8.124   6.385  1.2578  0.5346  1.8930
 6894SOL    HW222551   5.612   8.093   6.245 -1.2096  0.7459  0.9419
 6895SOL     OW22552   1.461   4.947   8.923 -0.4150 -0.3344 -0.0295
 6895SOL    HW122553   1.496   4.866   8.886  1.3295 -0.4388  1.7210
 6895SOL    HW222554   1.529   4.978   8.982 -0.4236  3.1775 -1.6117
 6896SOL     OW22555   0.261   7.187   2.125 -0.2253  0.5351  0.3695
 6896SOL    HW122556   0.318   7.236   2.184  1.1215  0.2514 -0.6316
 6896SOL    HW222557   0.310   7.107   2.105 -1.7994 -0.6039  0.9203
 6897SOL     OW22558   0.118   2.831   4.226  0.4116 -0.2367 -0.2100
 6897SOL    HW122559   0.153   2.868   4.307  1.8546  0.0000 -0.9055
 6897SOL    HW222560   0.196   2.817   4.171 -0.5133 -0.6155 -1.4569
 6898SOL     OW22561   2.425   8.614   5.737  0.0554 -0.0043  0.7600
 6898SOL    HW122562   2.409   8.531   5.782  0.1012  0.1273  1.0207
 6898SOL    HW222563   2.378   8.606   5.654 -1.5348  0.4287  1.5766
 6899SOL     OW22564   7.798   6.792   4.344 -0.2497 -0.2542 -0.2252
 6899SOL    HW122565   7.873   6.734   4.330 -0.6361 -0.8192  0.0253
 6899SOL    HW222566   7.805   6.818   4.436 -0.1110  0.0497 -0.3210
 6900SOL     OW22567   8.538   0.776   6.774 -0.2745  0.3987 -0.3434
 6900SOL    HW122568   8.574   0.841   6.835  1.0594  0.1332 -0.8068
 6900SOL    HW222569   8.477   0.725   6.826  0.6491  0.3399  0.7286
 6901SOL     OW22570   3.075   1.861   0.839  0.2710  0.0402  0.2326
 6901SOL    HW122571   3.036   1.844   0.753  1.8025  0.5557 -0.6076
 6901SOL    HW222572   3.083   1.957   0.842 -1.6764  0.2328  1.8722
 6902SOL     OW22573   0.998   5.506   8.578 -0.8834  0.3362 -0.2182
 6902SOL    HW122574   1.000   5.551   8.493  0.4387  0.7953  0.0346
 6902SOL    HW222575   0.925   5.546   8.625 -2.1144 -0.4327 -1.3844
 6903SOL     OW22576   8.315   2.529   7.846  0.3313 -0.1239 -0.3866
 6903SOL    HW122577   8.283   2.613   7.814  1.9287  0.5671 -0.2743
 6903SOL    HW222578   8.342   2.482   7.768 -1.0975 -0.8005 -0.5021
 6904SOL     OW22579   8.876   2.761   0.937 -0.1652  0.6425 -0.3130
 6904SOL    HW122580   8.922   2.837   0.971  0.7179 -0.3754  0.8683
 6904SOL    HW222581   8.847   2.713   1.015 -1.9468  0.4753 -1.0215
 6905SOL     OW22582   3.917   6.843   3.853 -0.1235  0.1595  0.3714
 6905SOL    HW122583   3.830   6.855   3.816 -0.1414  0.6302  0.5628
 6905SOL    HW222584   3.966   6.920   3.825  0.9304 -1.1529 -1.6748
 6906SOL     OW22585   1.806   8.115   3.322  0.5659 -0.4488 -0.5576
 6906SOL    HW122586   1.871   8.154   3.380  1.9397 -0.4994 -1.9986
 6906SOL    HW222587   1.842   8.029   3.299 -0.7545 -1.1320 -0.1902
 6907SOL     OW22588   1.015   4.499   3.870  0.1224  0.3926  0.8162
 6907SOL    HW122589   1.105   4.527   3.853  0.1019  0.3854  0.6916
 6907SOL    HW222590   0.965   4.534   3.796 -0.0692  0.8512  1.1583
 6908SOL     OW22591   6.240   7.301   7.433  0.4294  0.4710 -0.1684
 6908SOL    HW122592   6.211   7.269   7.518  1.2212  1.2220  0.3957
 6908SOL    HW222593   6.162   7.342   7.395  0.8754  3.4129  1.7652
 6909SOL     OW22594   5.461   0.002   8.933  0.0522 -0.0362 -0.3966
 6909SOL    HW122595   5.523   0.067   8.900  3.0040 -1.4075  1.9461
 6909SOL    HW222596   5.483  -0.078   8.886 -0.9535 -0.2406 -0.5403
 6910SOL     OW22597   0.822   0.399   5.472 -0.3186 -0.3955 -0.7609
 6910SOL    HW122598   0.752   0.337   5.453 -1.3446  0.1191  1.0365
 6910SOL    HW222599   0.815   0.466   5.404  0.0532 -1.6118 -2.0318
 6911SOL     OW22600   6.481   3.104   1.697  0.1385  0.1321 -0.0648
 6911SOL    HW122601   6.478   3.147   1.782 -1.6286  1.6669 -0.8237
 6911SOL    HW222602   6.548   3.153   1.648  3.6481 -2.7816  1.2950
 6912SOL     OW22603   7.951   7.365   3.841  0.1647  0.5216  0.7114
 6912SOL    HW122604   7.997   7.445   3.816 -0.0695  0.3028 -0.5193
 6912SOL    HW222605   7.860   7.382   3.818  0.2903 -0.4883 -0.6527
 6913SOL     OW22606   8.815   3.606   1.198 -0.4719 -0.0264  0.0237
 6913SOL    HW122607   8.720   3.611   1.197 -0.4045  1.8305 -0.3663
 6913SOL    HW222608   8.842   3.644   1.114  0.6217 -0.3481  0.2106
 6914SOL     OW22609   0.821   6.908   4.492 -0.4690  0.1863 -0.0864
 6914SOL    HW122610   0.847   6.993   4.526  0.2685 -0.3961  0.8561
 6914SOL    HW222611   0.778   6.865   4.565  0.1733 -0.6741 -0.1995
 6915SOL     OW22612   7.946   1.542   2.202  0.7657 -0.0377 -0.2434
 6915SOL    HW122613   8.034   1.524   2.169  0.6376 -0.9301 -0.1199
 6915SOL    HW222614   7.949   1.517   2.294  0.4172  0.0480 -0.2077
 6916SOL     OW22615   0.446   4.921   5.303  0.6556 -0.0814 -0.2067
 6916SOL    HW122616   0.433   4.837   5.348  0.5582  0.2578  0.4051
 6916SOL    HW222617   0.379   4.978   5.339  0.9939  0.3867 -0.3074
 6917SOL     OW22618   2.809   8.787   3.861  0.6500  0.0949  0.0471
 6917SOL    HW122619   2.739   8.799   3.797  0.5409  1.2064  0.3531
 6917SOL    HW222620   2.869   8.724   3.820  0.1178  0.0920 -0.7445
 6918SOL     OW22621   8.651   3.815   7.082  0.5477  0.2467 -0.0429
 6918SOL    HW122622   8.723   3.814   7.019 -0.6803 -2.5505 -1.5982
 6918SOL    HW222623   8.656   3.729   7.125 -1.3507  0.3179  0.4009
 6919SOL     OW22624   2.553   7.271   7.506  0.0023 -0.2565  0.1349
 6919SOL    HW122625   2.625   7.300   7.563 -0.9025 -1.6886  2.1340
 6919SOL    HW222626   2.597   7.234   7.429  1.3316  0.4669  0.5194
 6920SOL     OW22627   2.476   2.805   2.115  0.0299 -0.3495  0.4937
 6920SOL    HW122628   2.501   2.835   2.027 -0.1090  2.1370  1.2036
 6920SOL    HW222629   2.549   2.750   2.144  0.4550 -0.5357 -0.8608
 6921SOL     OW22630   8.565   5.283   5.431 -0.2153  0.0762  0.0165
 6921SOL    HW122631   8.600   5.271   5.343  2.3432 -2.2071  1.1759
 6921SOL    HW222632   8.491   5.223   5.436 -0.6852  0.5927 -0.7346
 6922SOL     OW22633   2.510   3.838   2.573  0.1745  0.4439  0.2983
 6922SOL    HW122634   2.420   3.869   2.582  0.6822  2.4556 -0.7370
 6922SOL    HW222635   2.503   3.743   2.566 -2.0442  0.6430 -1.3052
 6923SOL     OW22636   8.970   8.358   8.706  0.2633 -0.4878  0.2791
 6923SOL    HW122637   9.012   8.443   8.695 -0.7420  0.1066  0.9310
 6923SOL    HW222638   9.010   8.322   8.785 -0.9717  0.4288  1.3644
 6924SOL     OW22639   5.239   2.760   6.406 -0.0261  0.1153  0.2956
 6924SOL    HW122640   5.297   2.730   6.475 -1.0356  0.2270  1.2276
 6924SOL    HW222641   5.181   2.686   6.390 -1.4577  0.9266  1.4324
 6925SOL     OW22642   7.336   0.617   0.518  0.1816  0.4166 -0.5172
 6925SOL    HW122643   7.344   0.712   0.519  1.7916  0.3119 -0.7319
 6925SOL    HW222644   7.357   0.590   0.608 -2.1734  0.3480  0.0709
 6926SOL     OW22645   6.205   0.499   0.459  0.0814 -0.0565 -0.2823
 6926SOL    HW122646   6.274   0.540   0.407  0.6585  0.4039  0.8251
 6926SOL    HW222647   6.215   0.405   0.443  0.3686  0.0662 -0.8442
 6927SOL     OW22648   3.025   6.029   1.513  0.1651 -0.5700  0.5249
 6927SOL    HW122649   3.044   6.008   1.422 -1.2836  0.3139 -0.0142
 6927SOL    HW222650   2.993   5.946   1.551  2.0215 -1.2825  0.6390
 6928SOL     OW22651   5.573   1.176   8.580  0.1768  0.3878 -0.2028
 6928SOL    HW122652   5.565   1.268   8.555  0.1264  0.0755 -1.3752
 6928SOL    HW222653   5.484   1.141   8.573  0.0586  0.4109  0.9598
 6929SOL     OW22654   4.920   8.788   6.751  0.3569  0.0008  0.1479
 6929SOL    HW122655   4.897   8.798   6.659 -0.0051  0.8185  0.3239
 6929SOL    HW222656   5.012   8.813   6.756  0.5171 -0.5259 -0.0697
 6930SOL     OW22657   6.843   1.062   1.231 -0.3662 -0.2631  0.0729
 6930SOL    HW122658   6.810   1.009   1.303  1.2261  0.0358  1.0768
 6930SOL    HW222659   6.765   1.084   1.180 -1.1255 -3.4061 -0.3336
 6931SOL     OW22660   7.623   6.175   4.065  0.0078 -0.0972 -0.0284
 6931SOL    HW122661   7.633   6.258   4.110  0.3378 -0.1786  0.0486
 6931SOL    HW222662   7.530   6.154   4.074 -0.1882  0.5235 -0.5127
 6932SOL     OW22663   1.047   1.475   4.983  0.2351 -0.3611 -0.5463
 6932SOL    HW122664   0.965   1.521   5.002 -0.5779 -2.1656  0.6548
 6932SOL    HW222665   1.083   1.520   4.907 -0.7940  1.8146  0.1462
 6933SOL     OW22666   2.765   5.451   1.168 -0.1743  0.1725  0.0670
 6933SOL    HW122667   2.768   5.546   1.167 -0.7749  0.1909 -0.2042
 6933SOL    HW222668   2.761   5.426   1.076  0.7510 -0.1499  0.0963
 6934SOL     OW22669   4.718   8.862   5.015 -0.5343 -0.0044  0.8362
 6934SOL    HW122670   4.738   8.908   4.933 -2.6152  2.6927  1.6606
 6934SOL    HW222671   4.799   8.865   5.065  0.3998 -0.5453 -0.5923
 6935SOL     OW22672   1.090   8.163   5.759  0.8147 -0.0761 -0.2484
 6935SOL    HW122673   1.149   8.183   5.832  1.6665 -0.5422 -0.7843
 6935SOL    HW222674   1.108   8.231   5.695  1.3580 -0.6661 -0.7380
 6936SOL     OW22675   6.935   7.250   2.231  0.0095 -0.1303  0.0210
 6936SOL    HW122676   7.015   7.242   2.282 -1.6597  2.7089  3.5241
 6936SOL    HW222677   6.868   7.206   2.284 -1.5414  1.5303 -0.4634
 6937SOL     OW22678   3.981   6.604   1.612  0.7248 -0.0871  0.0704
 6937SOL    HW122679   3.971   6.529   1.553  0.8052  1.5465 -2.1226
 6937SOL    HW222680   4.069   6.637   1.595  0.8415  0.2950  1.3004
 6938SOL     OW22681   7.283   0.774   2.093 -0.4175 -0.0620  0.1749
 6938SOL    HW122682   7.232   0.752   2.171  0.2112 -0.2296  0.5471
 6938SOL    HW222683   7.369   0.799   2.127 -0.6503  1.5682 -0.3329
 6939SOL     OW22684   0.085   2.181   6.319 -0.0809 -0.0890 -0.5338
 6939SOL    HW122685   0.135   2.164   6.399 -0.9228 -0.8231 -0.1574
 6939SOL    HW222686   0.092   2.100   6.268 -1.6727 -0.5594 -0.0430
 6940SOL     OW22687   0.825   4.665   7.827  0.4252  0.8719 -0.1649
 6940SOL    HW122688   0.823   4.672   7.731  0.4249  1.7344 -0.1088
 6940SOL    HW222689   0.743   4.705   7.856 -0.5574 -1.2385  0.1181
 6941SOL     OW22690   8.954   1.940   5.068 -0.2700 -0.4045 -0.5962
 6941SOL    HW122691   8.864   1.949   5.038 -0.1032  0.2214 -0.9232
 6941SOL    HW222692   8.997   2.021   5.040  0.0572 -0.0869  0.7733
 6942SOL     OW22693   1.513   8.485   6.773 -0.2900 -0.0594 -0.4557
 6942SOL    HW122694   1.510   8.393   6.799 -0.3514  0.1253  0.2096
 6942SOL    HW222695   1.539   8.532   6.852 -1.4356  0.6235 -0.4558
 6943SOL     OW22696   3.646   5.308   1.143 -0.1451 -0.2344 -0.4152
 6943SOL    HW122697   3.620   5.222   1.176 -2.0866 -0.2616 -1.8356
 6943SOL    HW222698   3.673   5.291   1.052 -1.4721  0.7462 -1.0259
 6944SOL     OW22699   3.672   3.042   5.522 -0.0674  0.4098 -0.1261
 6944SOL    HW122700   3.603   3.079   5.576  0.0978 -0.8811  1.0276
 6944SOL    HW222701   3.737   3.113   5.514 -0.5728  0.9583  0.5093
 6945SOL     OW22702   0.451   3.763   4.597 -0.5267 -0.0691 -0.1322
 6945SOL    HW122703   0.489   3.784   4.512 -1.4181  0.3584 -0.4300
 6945SOL    HW222704   0.527   3.752   4.655  0.0853 -0.3944 -0.9794
 6946SOL     OW22705   3.072   6.108   0.686  0.3255 -0.2257  0.9912
 6946SOL    HW122706   3.034   6.050   0.621  0.9476  0.0444  0.3751
 6946SOL    HW222707   2.997   6.154   0.724 -0.0264 -0.2901  0.3751
 6947SOL     OW22708   5.587   5.065   4.421  0.4053 -0.1220  0.0528
 6947SOL    HW122709   5.588   5.160   4.410  2.4741  0.0994  1.4083
 6947SOL    HW222710   5.542   5.052   4.505  1.4150 -0.1594  0.6171
 6948SOL     OW22711   6.257   3.800   8.123 -0.7584 -0.4344  0.6410
 6948SOL    HW122712   6.261   3.867   8.192  0.2422 -2.6594  2.9115
 6948SOL    HW222713   6.164   3.789   8.105 -0.9748  0.9382  0.8361
 6949SOL     OW22714   0.930   5.896   6.674 -0.4141  0.2133 -0.4125
 6949SOL    HW122715   0.891   5.858   6.754  1.5831  0.8052  0.9284
 6949SOL    HW222716   0.865   5.958   6.643 -1.3867 -0.2736  0.5571
 6950SOL     OW22717   6.944   0.332   7.543  0.4588 -0.4384  0.0876
 6950SOL    HW122718   7.012   0.363   7.602  0.2622 -0.7250  0.4742
 6950SOL    HW222719   6.898   0.264   7.593 -1.4997  1.2192  0.6747
 6951SOL     OW22720   1.183   7.327   6.510 -0.4694  0.1269  0.1380
 6951SOL    HW122721   1.244   7.397   6.484 -2.7946  1.3691 -2.4684
 6951SOL    HW222722   1.160   7.284   6.428 -3.9662  0.4919  0.7921
 6952SOL     OW22723   4.081   5.316   8.675  0.1780  0.8458  0.3625
 6952SOL    HW122724   4.051   5.311   8.584 -0.5127  2.4931  0.4722
 6952SOL    HW222725   4.174   5.297   8.671 -0.1568 -0.8167 -0.4562
 6953SOL     OW22726   3.055   8.293   7.793  0.1551  0.3452  0.7489
 6953SOL    HW122727   3.086   8.290   7.883  2.5939  2.3813  0.0917
 6953SOL    HW222728   3.002   8.372   7.788  0.8224  0.7760  0.2228
 6954SOL     OW22729   6.879   2.198   4.910 -0.9974 -1.3069  0.4156
 6954SOL    HW122730   6.899   2.105   4.919 -1.2457 -1.3476  0.5670
 6954SOL    HW222731   6.884   2.215   4.816  1.9033 -0.8216  0.5740
 6955SOL     OW22732   1.764   3.469   3.631  0.6226  0.6793  0.5467
 6955SOL    HW122733   1.722   3.528   3.693  1.0340  0.8887  0.6291
 6955SOL    HW222734   1.854   3.460   3.663  0.8483  0.8164 -0.0376
 6956SOL     OW22735   1.790   2.726   6.611 -0.4504  0.2006  0.4297
 6956SOL    HW122736   1.797   2.781   6.689 -0.1250 -0.9297  1.2231
 6956SOL    HW222737   1.880   2.720   6.578 -0.5487  0.4679  0.1067
 6957SOL     OW22738   0.394   1.735   2.242  0.2490  0.4815  0.4632
 6957SOL    HW122739   0.451   1.809   2.223 -0.2634  0.7291 -0.1129
 6957SOL    HW222740   0.345   1.720   2.161 -1.1676  0.8545  1.2156
 6958SOL     OW22741   7.855   3.587   0.295  0.3470 -0.2086  0.0219
 6958SOL    HW122742   7.780   3.548   0.339 -0.4357  0.8761 -0.3109
 6958SOL    HW222743   7.872   3.530   0.220  0.4157 -0.9334  0.5755
 6959SOL     OW22744   0.766   2.800   2.353 -0.2167 -0.2222  0.4058
 6959SOL    HW122745   0.702   2.729   2.362 -1.7908  0.8448 -1.6481
 6959SOL    HW222746   0.777   2.810   2.258  0.8910  1.4960  0.6782
 6960SOL     OW22747   5.961   3.914   8.372 -0.2401  0.4061  1.1225
 6960SOL    HW122748   6.022   3.854   8.415  0.2609  1.3646  1.8119
 6960SOL    HW222749   5.893   3.858   8.336  1.1695 -0.7271  0.1082
 6961SOL     OW22750   7.742   5.286   3.486 -0.1733  0.2329  0.1709
 6961SOL    HW122751   7.736   5.192   3.502  0.3695  0.4158  1.6097
 6961SOL    HW222752   7.671   5.305   3.424 -0.9833 -0.9408  0.7157
 6962SOL     OW22753   6.236   1.047   8.093  0.6177 -0.1365 -0.1577
 6962SOL    HW122754   6.304   1.034   8.027  2.4054  0.2296  1.4926
 6962SOL    HW222755   6.284   1.050   8.176 -1.4662 -0.0755  1.1203
 6963SOL     OW22756   4.635   8.522   1.094  0.3756  0.2456  0.4137
 6963SOL    HW122757   4.718   8.564   1.069 -0.3963 -0.2806 -3.8390
 6963SOL    HW222758   4.659   8.432   1.114  1.0165  0.5458  1.0446
 6964SOL     OW22759   2.270   7.315   7.464  0.2931 -0.3954 -0.0412
 6964SOL    HW122760   2.249   7.406   7.447  0.5062 -0.5802 -1.4446
 6964SOL    HW222761   2.366   7.312   7.465  0.3168 -0.3232  1.8227
 6965SOL     OW22762   4.153   0.786   5.585  0.2559  0.7846 -0.1899
 6965SOL    HW122763   4.199   0.743   5.657  0.3091  1.6501  0.2969
 6965SOL    HW222764   4.123   0.869   5.621 -1.1568  0.5200 -0.6782
 6966SOL     OW22765   0.207   2.827   7.112 -0.0767 -0.5477 -0.5989
 6966SOL    HW122766   0.171   2.880   7.041  0.4001  0.4542 -0.1203
 6966SOL    HW222767   0.137   2.824   7.177  0.2967  0.5499 -0.1064
 6967SOL     OW22768   0.724   5.510   0.049  0.1831 -0.1333  0.7778
 6967SOL    HW122769   0.801   5.456   0.068 -0.9588 -2.1064  0.0583
 6967SOL    HW222770   0.757   5.600   0.052  2.1773 -0.8364  1.9586
 6968SOL     OW22771   5.181   6.015   3.580 -0.2393 -0.5140  0.4605
 6968SOL    HW122772   5.256   5.982   3.532 -0.6141  1.1733 -1.4158
 6968SOL    HW222773   5.178   6.108   3.560 -0.6631  0.2631  3.5243
 6969SOL     OW22774   2.923   4.154   7.990  0.3934  0.4800 -0.0677
 6969SOL    HW122775   2.972   4.159   8.072 -0.2288  0.9941  0.2875
 6969SOL    HW222776   2.894   4.063   7.983  1.5136  0.1375 -0.3600
 6970SOL     OW22777   4.376   4.066   8.281 -0.2622  0.0360 -0.1657
 6970SOL    HW122778   4.469   4.042   8.280  0.0613  1.2165 -0.1408
 6970SOL    HW222779   4.349   4.053   8.372  0.4588  1.6767  0.3295
 6971SOL     OW22780   5.361   2.336   6.448  0.3503 -0.4789  0.4539
 6971SOL    HW122781   5.360   2.241   6.437  0.8531 -0.6662  1.8895
 6971SOL    HW222782   5.273   2.364   6.421 -0.2837 -1.5282  1.3506
 6972SOL     OW22783   7.545   3.651   2.588  0.1489 -0.5395  0.6334
 6972SOL    HW122784   7.477   3.651   2.520 -0.3200  0.4182  1.0743
 6972SOL    HW222785   7.623   3.616   2.545  0.2757  1.4008 -0.8475
 6973SOL     OW22786   6.119   3.851   7.446  0.0857 -0.8631  0.0123
 6973SOL    HW122787   6.113   3.863   7.540  0.6817 -4.4187  0.6717
 6973SOL    HW222788   6.032   3.819   7.420  0.7153 -2.6441 -0.0390
 6974SOL     OW22789   3.926   3.545   1.742 -0.0890 -0.5778  0.3861
 6974SOL    HW122790   3.994   3.519   1.804 -0.1843 -1.4926  0.1102
 6974SOL    HW222791   3.864   3.595   1.795  1.0375  0.7184  0.5442
 6975SOL     OW22792   1.676   4.017   0.751 -0.1430 -0.2883  0.3417
 6975SOL    HW122793   1.644   3.928   0.769  0.4621 -0.3171  1.3056
 6975SOL    HW222794   1.596   4.069   0.741 -0.5289 -1.0955 -1.1896
 6976SOL     OW22795   8.608   1.702   8.715  0.2943  0.0960 -0.5520
 6976SOL    HW122796   8.598   1.639   8.644 -1.2740 -0.5285  0.1854
 6976SOL    HW222797   8.594   1.651   8.795  1.3524  0.9194  0.2027
 6977SOL     OW22798   8.735   2.824   5.157 -0.0998 -0.0528 -0.3741
 6977SOL    HW122799   8.656   2.822   5.103  0.4811  0.6462 -1.2869
 6977SOL    HW222800   8.703   2.817   5.247 -1.1611 -0.2446 -0.7489
 6978SOL     OW22801   0.446   8.803   7.578 -0.4461  0.0817 -0.5317
 6978SOL    HW122802   0.366   8.817   7.526  0.0820  0.5064 -1.2511
 6978SOL    HW222803   0.468   8.890   7.612 -1.2782 -0.3316  1.1809
 6979SOL     OW22804   5.895   5.905   5.050 -0.0946 -0.2204 -1.0434
 6979SOL    HW122805   5.922   5.816   5.073  1.2091  0.3085 -0.4282
 6979SOL    HW222806   5.859   5.941   5.131 -2.3967 -0.7755 -1.7481
 6980SOL     OW22807   6.137   4.494   7.123  0.0896 -0.9507 -0.3553
 6980SOL    HW122808   6.151   4.407   7.086  1.0960 -0.9598 -0.0059
 6980SOL    HW222809   6.149   4.554   7.050  1.3913 -1.0089 -0.2218
 6981SOL     OW22810   1.436   1.303   6.823 -0.3101 -0.0922 -0.7377
 6981SOL    HW122811   1.466   1.219   6.859  0.0930  0.3293 -0.0500
 6981SOL    HW222812   1.467   1.304   6.733  1.5017  0.1770 -0.1570
 6982SOL     OW22813   6.330   4.127   8.544 -0.2006  0.1139 -0.3548
 6982SOL    HW122814   6.288   4.178   8.613 -0.7623 -0.3130 -0.3755
 6982SOL    HW222815   6.369   4.052   8.589 -0.1291  0.0997 -0.4398
 6983SOL     OW22816   5.123   6.596   3.409  0.0067  0.2303 -0.2080
 6983SOL    HW122817   5.140   6.598   3.315 -1.1151 -1.2642 -0.4799
 6983SOL    HW222818   5.086   6.681   3.429  0.0944  0.5001 -1.1508
 6984SOL     OW22819   4.406   5.117   4.375 -0.0240  0.1366  0.1122
 6984SOL    HW122820   4.477   5.174   4.405  1.6305 -1.5549 -0.3940
 6984SOL    HW222821   4.429   5.030   4.410 -0.6918 -0.8741 -1.8269
 6985SOL     OW22822   1.340   4.187   2.306  0.5050  0.5332  0.0476
 6985SOL    HW122823   1.334   4.251   2.235 -0.1753  0.5787  0.1327
 6985SOL    HW222824   1.371   4.237   2.382  0.3765  0.6744  0.0077
 6986SOL     OW22825   3.468   7.892   5.340  0.1861  0.8927 -0.4963
 6986SOL    HW122826   3.441   7.874   5.249 -0.3128 -0.3917 -0.1212
 6986SOL    HW222827   3.421   7.972   5.363 -1.6272 -0.0809 -0.5976
 6987SOL     OW22828   8.923   3.610   5.614  0.4366 -0.2262 -0.6280
 6987SOL    HW122829   8.937   3.550   5.540  0.8980 -0.0857 -0.6578
 6987SOL    HW222830   8.891   3.690   5.573  0.1613 -0.3320 -0.6220
 6988SOL     OW22831   2.464   6.825   8.781  0.1625 -0.1046  0.0240
 6988SOL    HW122832   2.493   6.754   8.839 -0.4146 -0.2443  0.1469
 6988SOL    HW222833   2.537   6.886   8.779 -0.3735  0.6696  2.1281
 6989SOL     OW22834   7.269   0.538   6.995 -0.0234  0.1772 -0.5746
 6989SOL    HW122835   7.291   0.553   6.903  2.0594  2.5086  0.1939
 6989SOL    HW222836   7.348   0.564   7.042 -1.7205  0.9960  1.9950
 6990SOL     OW22837   6.350   4.359   0.934 -0.1642  0.2991 -0.2671
 6990SOL    HW122838   6.441   4.384   0.919  0.3644 -2.2694 -1.7314
 6990SOL    HW222839   6.345   4.343   1.028  1.8305 -2.5606 -0.5196
 6991SOL     OW22840   8.026   8.591   8.671  0.3819  0.2081  0.0515
 6991SOL    HW122841   8.087   8.568   8.601 -1.3156 -1.1114 -1.0659
 6991SOL    HW222842   7.958   8.523   8.667 -2.1756  2.6094  0.0056
 6992SOL     OW22843   4.708   2.683   1.365 -0.5399 -0.5594 -0.3224
 6992SOL    HW122844   4.668   2.744   1.303 -0.1134  0.3579  0.2816
 6992SOL    HW222845   4.652   2.688   1.443  1.0095  1.1568  0.7360
 6993SOL     OW22846   1.244   4.438   2.157  0.0271  0.3422  0.1617
 6993SOL    HW122847   1.179   4.503   2.187  0.9834  1.5039 -0.2248
 6993SOL    HW222848   1.325   4.487   2.148  1.0589 -1.1440  0.8832
 6994SOL     OW22849   7.915   2.475   0.784  0.3185 -0.2947 -0.6523
 6994SOL    HW122850   7.888   2.518   0.703  0.3454  0.3755 -0.3078
 6994SOL    HW222851   7.912   2.543   0.850  1.5157 -0.5368 -0.3245
 6995SOL     OW22852   8.680   0.324   8.896 -0.3009  0.2732  0.2501
 6995SOL    HW122853   8.588   0.329   8.922 -0.4050 -0.7390  0.1035
 6995SOL    HW222854   8.687   0.241   8.849  1.3737 -1.3547  3.0902
 6996SOL     OW22855   5.235   5.812   8.115  0.6365 -0.0816  0.7220
 6996SOL    HW122856   5.189   5.885   8.074 -2.4438 -1.1246  2.0701
 6996SOL    HW222857   5.206   5.735   8.066  0.2957 -0.8643  2.1175
 6997SOL     OW22858   8.196   0.638   0.442  0.5670 -0.6140  0.1686
 6997SOL    HW122859   8.160   0.562   0.397  0.4427 -1.3585  1.4613
 6997SOL    HW222860   8.288   0.616   0.458  1.0522  0.3400 -1.1397
 6998SOL     OW22861   8.596   8.679   0.291 -1.1490  0.1669 -0.3492
 6998SOL    HW122862   8.617   8.747   0.228 -1.0945  0.5304  0.0576
 6998SOL    HW222863   8.575   8.726   0.371 -0.3687 -0.3152  0.1585
 6999SOL     OW22864   2.465   7.370   2.415 -0.2972 -0.7985 -0.1029
 6999SOL    HW122865   2.497   7.389   2.327  0.6224  1.2797  0.6208
 6999SOL    HW222866   2.502   7.439   2.470 -0.9776 -1.9322  1.9052
 7000SOL     OW22867   1.088   2.749   5.721 -0.5022  0.5913 -0.1550
 7000SOL    HW122868   1.156   2.794   5.671 -0.0549  2.1067  1.7347
 7000SOL    HW222869   1.093   2.658   5.691 -0.3731  1.4212 -2.9288
 7001SOL     OW22870   7.896   3.525   5.609  0.0459  0.2824  0.1468
 7001SOL    HW122871   7.887   3.578   5.689  0.4904  0.9238 -0.2208
 7001SOL    HW222872   7.807   3.522   5.573  0.2081  1.7722 -0.4444
 7002SOL     OW22873   0.420   5.693   0.311  1.0002  0.2813  0.6480
 7002SOL    HW122874   0.380   5.676   0.396  1.1935  0.6992  0.8254
 7002SOL    HW222875   0.448   5.784   0.316 -0.0577  0.6806 -0.2967
 7003SOL     OW22876   3.586   8.580   1.308 -0.5664 -0.1300 -0.3179
 7003SOL    HW122877   3.534   8.652   1.342  1.8373  1.8588 -0.5107
 7003SOL    HW222878   3.605   8.604   1.217 -0.1413 -1.2881 -0.5625
 7004SOL     OW22879   4.883   4.926   8.956  0.6040 -0.1642 -0.4534
 7004SOL    HW122880   4.883   4.839   8.996 -1.2428 -0.1162 -0.2780
 7004SOL    HW222881   4.927   4.913   8.872 -1.2447 -1.7221 -1.2687
 7005SOL     OW22882   2.058   0.592   4.354  0.1317 -0.1523 -0.6622
 7005SOL    HW122883   2.110   0.603   4.433  0.9275 -4.3315 -0.3415
 7005SOL    HW222884   2.001   0.668   4.351 -1.1054 -0.4738  4.8649
 7006SOL     OW22885   6.291   1.064   7.029 -0.0896  0.0423  0.0342
 7006SOL    HW122886   6.342   1.020   7.097  0.8888 -0.2705 -0.8787
 7006SOL    HW222887   6.304   1.157   7.045  1.3914 -0.0302 -0.6240
 7007SOL     OW22888   8.705   4.084   8.257  0.4102 -0.1502  0.0604
 7007SOL    HW122889   8.663   3.999   8.243  0.3061 -0.1289  0.2406
 7007SOL    HW222890   8.657   4.122   8.331  0.4818  0.0485  0.0037
 7008SOL     OW22891   3.331   3.543   7.528  0.6893 -0.2866 -0.4122
 7008SOL    HW122892   3.421   3.570   7.512  0.5697  0.2678 -0.1909
 7008SOL    HW222893   3.303   3.503   7.446  1.1909 -0.6222 -0.4235
 7009SOL     OW22894   7.120   8.058   4.524 -0.6438 -0.2197  0.0095
 7009SOL    HW122895   7.127   8.035   4.617 -0.2968  0.5507  0.1840
 7009SOL    HW222896   7.180   8.132   4.513  0.2867 -1.0852 -1.1087
 7010SOL     OW22897   6.323   1.771   3.205  0.3103  0.2672  0.2254
 7010SOL    HW122898   6.282   1.698   3.159  1.4007 -0.3888  0.2782
 7010SOL    HW222899   6.279   1.773   3.290 -0.7883  0.6559 -0.3306
 7011SOL     OW22900   4.249   4.389   8.464  0.0121  0.0884  0.0181
 7011SOL    HW122901   4.205   4.465   8.427 -0.8534 -0.6347 -0.4630
 7011SOL    HW222902   4.257   4.408   8.558  2.5636  2.1132 -0.5025
 7012SOL     OW22903   1.300   8.270   0.095 -0.4665  0.2420 -0.0407
 7012SOL    HW122904   1.207   8.267   0.070 -0.5521  0.1634  0.2833
 7012SOL    HW222905   1.321   8.363   0.098 -0.7827  0.2967  0.7761
 7013SOL     OW22906   0.488   8.479   7.243 -0.1420  0.2375 -0.1044
 7013SOL    HW122907   0.460   8.546   7.181  0.4176  0.4801 -0.0977
 7013SOL    HW222908   0.520   8.528   7.319 -0.7040 -0.0551  0.3252
 7014SOL     OW22909   1.130   8.201   8.370 -0.3545 -0.0984  0.1434
 7014SOL    HW122910   1.137   8.289   8.408  2.2550  0.0079 -0.3910
 7014SOL    HW222911   1.141   8.142   8.445 -0.3739  0.0533  0.2662
 7015SOL     OW22912   6.985   0.292   8.696  0.0768 -0.3285 -0.1449
 7015SOL    HW122913   6.935   0.253   8.624 -0.1317 -3.0959  1.3379
 7015SOL    HW222914   7.065   0.240   8.700  0.4950  0.3725  1.0349
 7016SOL     OW22915   5.779   8.393   1.627 -0.0152 -0.0375 -0.4047
 7016SOL    HW122916   5.712   8.357   1.685 -0.5668  1.5812  0.0137
 7016SOL    HW222917   5.730   8.435   1.556  0.6534 -1.9363 -2.0872
 7017SOL     OW22918   2.879   7.151   4.491  0.3305  0.2773 -0.5212
 7017SOL    HW122919   2.878   7.163   4.396 -0.7196 -0.1328 -0.5784
 7017SOL    HW222920   2.964   7.113   4.510  0.3908 -0.0157 -1.3460
 7018SOL     OW22921   4.914   0.457   0.733 -0.5071  0.1851  0.4002
 7018SOL    HW122922   4.924   0.366   0.760  0.6702  0.9146  2.8108
 7018SOL    HW222923   4.915   0.455   0.638 -0.5354 -2.3087  0.3965
 7019SOL     OW22924   3.174   4.772   5.632 -0.1465 -0.2107 -0.1806
 7019SOL    HW122925   3.251   4.764   5.688 -0.2249  0.7912  0.0838
 7019SOL    HW222926   3.138   4.683   5.629  1.6749 -0.9560 -1.2794
 7020SOL     OW22927   4.925   0.064   6.897 -0.0390  0.3571 -0.0483
 7020SOL    HW122928   5.006   0.106   6.870 -0.9633  2.7135  0.5603
 7020SOL    HW222929   4.878   0.047   6.816  0.2882  0.6650 -0.3050
 7021SOL     OW22930   8.582   5.443   3.439  0.2564  0.3662  0.0001
 7021SOL    HW122931   8.661   5.496   3.433 -2.1493  4.3133 -0.4649
 7021SOL    HW222932   8.564   5.439   3.533 -0.7735  2.6889 -0.0156
 7022SOL     OW22933   5.732   8.626   6.148 -0.2666  0.2495  0.0311
 7022SOL    HW122934   5.818   8.668   6.146  0.0103 -0.2737  0.7710
 7022SOL    HW222935   5.750   8.534   6.167 -0.9005 -0.1450 -1.1106
 7023SOL     OW22936   7.303   0.524   6.718 -0.4862  0.1454  0.2848
 7023SOL    HW122937   7.219   0.547   6.679  0.0747  0.6072 -0.6947
 7023SOL    HW222938   7.365   0.585   6.679  0.3108 -0.1948  0.9828
 7024SOL     OW22939   2.792   5.561   8.545 -0.3020  0.3612  0.1539
 7024SOL    HW122940   2.707   5.558   8.501  0.1974 -0.2049 -0.8285
 7024SOL    HW222941   2.773   5.587   8.635 -1.3948  1.3464 -0.3390
 7025SOL     OW22942   4.698   2.581   3.158 -0.5803  0.4011 -1.3255
 7025SOL    HW122943   4.626   2.644   3.157 -0.3088  0.7624  0.0386
 7025SOL    HW222944   4.667   2.508   3.104 -2.8638 -0.3908  0.8852
 7026SOL     OW22945   3.594   1.849   4.280 -0.1396  0.2632  0.1115
 7026SOL    HW122946   3.609   1.831   4.373  0.1503  1.3316  0.2923
 7026SOL    HW222947   3.668   1.905   4.256  0.8269 -1.4872 -1.2509
 7027SOL     OW22948   4.486   7.983   6.485  0.0549 -0.2158 -0.2032
 7027SOL    HW122949   4.434   8.063   6.499  0.7364 -0.0264  1.5211
 7027SOL    HW222950   4.537   8.002   6.406  0.4321  1.2051  0.3378
 7028SOL     OW22951   3.134   0.317   4.008  0.4987 -0.4472 -1.1276
 7028SOL    HW122952   3.124   0.243   4.068  1.0653 -0.6279 -1.2495
 7028SOL    HW222953   3.107   0.283   3.923  2.7082 -1.1600 -1.6098
 7029SOL     OW22954   5.092   5.862   2.694  0.0778  0.3876  0.3083
 7029SOL    HW122955   5.165   5.886   2.637  0.4588  0.0359  0.6457
 7029SOL    HW222956   5.132   5.814   2.766 -0.5275 -0.1069  0.3224
 7030SOL     OW22957   5.676   4.442   0.137 -0.4296  0.3810 -0.1433
 7030SOL    HW122958   5.718   4.424   0.053 -0.2055  0.2287 -0.0019
 7030SOL    HW222959   5.705   4.370   0.193  0.6036  1.2371  0.4758
 7031SOL     OW22960   3.933   0.693   2.819 -0.4087  0.1281 -0.7588
 7031SOL    HW122961   3.846   0.724   2.794 -1.1734 -0.9218  0.4415
 7031SOL    HW222962   3.928   0.681   2.914  1.2421  0.6051 -0.5729
 7032SOL     OW22963   1.771   2.157   7.974 -0.0958 -0.1682 -0.6400
 7032SOL    HW122964   1.847   2.118   8.019  0.3849  1.1173 -0.2959
 7032SOL    HW222965   1.698   2.142   8.033 -0.4371 -2.5622 -1.5346
 7033SOL     OW22966   8.868   4.802   5.546  0.5644  0.1789 -1.0579
 7033SOL    HW122967   8.855   4.860   5.621  1.5003  0.6967 -1.2740
 7033SOL    HW222968   8.864   4.861   5.470  0.6052 -0.1844 -1.3437
 7034SOL     OW22969   3.528   5.527   6.215 -0.0495 -0.4398 -0.1728
 7034SOL    HW122970   3.608   5.510   6.166 -0.0822 -3.3841  0.6191
 7034SOL    HW222971   3.458   5.520   6.150 -0.0223 -3.4364 -0.0080
 7035SOL     OW22972   7.289   5.351   5.272 -0.1233  0.2043 -0.6163
 7035SOL    HW122973   7.228   5.277   5.271 -0.2978  0.3418 -0.3232
 7035SOL    HW222974   7.324   5.354   5.183 -1.3021  0.7510 -1.0832
 7036SOL     OW22975   0.761   8.050   0.942  0.0743 -0.1396  0.6892
 7036SOL    HW122976   0.786   7.962   0.969  1.3611  0.1268  0.4584
 7036SOL    HW222977   0.676   8.065   0.984 -0.1360 -1.4535  0.7724
 7037SOL     OW22978   1.508   7.143   1.192 -0.1326 -0.4380 -0.3303
 7037SOL    HW122979   1.478   7.221   1.147 -0.8367 -1.8466 -2.4364
 7037SOL    HW222980   1.451   7.073   1.160  0.3881 -1.8134  1.5766
 7038SOL     OW22981   8.973   5.303   1.037  0.4267 -0.3573 -0.1501
 7038SOL    HW122982   8.981   5.338   0.948  1.0108 -0.2860 -0.0725
 7038SOL    HW222983   9.060   5.316   1.076  0.5690 -1.6115 -0.0070
 7039SOL     OW22984   0.399   5.996   0.354  0.0221 -0.6382 -0.3816
 7039SOL    HW122985   0.430   5.998   0.263  0.7131 -0.4266 -0.1520
 7039SOL    HW222986   0.350   6.077   0.364  0.7585 -0.1902 -0.3015
 7040SOL     OW22987   7.146   0.318   4.002  0.3123  0.4029  0.1999
 7040SOL    HW122988   7.074   0.376   3.978  0.8789  1.1952  0.3471
 7040SOL    HW222989   7.104   0.238   4.033 -0.4936 -0.3054 -2.4470
 7041SOL     OW22990   4.714   4.529   6.311  0.2260  0.1145  0.1493
 7041SOL    HW122991   4.637   4.553   6.260  0.5220 -0.9870 -0.8663
 7041SOL    HW222992   4.787   4.567   6.263  0.4347 -0.1670  0.2390
 7042SOL     OW22993   8.560   1.835   4.741  0.6246  0.3409  0.0512
 7042SOL    HW122994   8.579   1.880   4.823  0.0244  1.5717 -0.4680
 7042SOL    HW222995   8.527   1.903   4.683 -0.6531 -0.8198 -0.6442
 7043SOL     OW22996   8.839   1.685   3.265 -0.0514  0.5095 -0.5982
 7043SOL    HW122997   8.858   1.713   3.176  0.7222 -0.3444 -0.7125
 7043SOL    HW222998   8.880   1.599   3.273 -0.7912  0.2154  0.3275
 7044SOL     OW22999   0.651   1.070   8.501  0.9107 -0.0043 -0.6662
 7044SOL    HW123000   0.726   1.025   8.463  2.2853  2.4103 -0.9742
 7044SOL    HW223001   0.637   1.146   8.446 -1.1388  0.1748 -0.0011
 7045SOL     OW23002   3.597   7.431   1.379 -0.1686 -0.1263  0.1895
 7045SOL    HW123003   3.535   7.503   1.390 -0.2970 -0.4626  1.8150
 7045SOL    HW223004   3.542   7.353   1.367 -0.0296 -0.1141 -0.6342
 7046SOL     OW23005   2.352   5.716   0.679 -0.3475 -0.1324 -0.0986
 7046SOL    HW123006   2.369   5.624   0.701  0.9430 -0.1406 -1.0301
 7046SOL    HW223007   2.427   5.764   0.716 -0.1909  0.3314 -0.9844
 7047SOL     OW23008   3.545   7.681   2.659  0.1405  0.0171 -0.1860
 7047SOL    HW123009   3.607   7.650   2.592 -0.7922 -0.1993 -0.9595
 7047SOL    HW223010   3.527   7.604   2.713  1.6227  0.4017  0.9469
 7048SOL     OW23011   0.137   4.485   1.761  0.5044 -0.3164  0.3825
 7048SOL    HW123012   0.122   4.411   1.819  1.2028  0.1929  1.2310
 7048SOL    HW223013   0.229   4.507   1.772  0.3956  0.4491 -0.1316
 7049SOL     OW23014   2.898   2.268   8.933  0.0249 -0.1522  0.2140
 7049SOL    HW123015   2.974   2.310   8.973 -0.4792  1.8037 -0.7748
 7049SOL    HW223016   2.871   2.328   8.864 -3.4624  0.1053  1.6252
 7050SOL     OW23017   4.729   5.887   4.380  0.7373  0.7391 -0.8374
 7050SOL    HW123018   4.822   5.869   4.394  0.5991  0.8792  0.3326
 7050SOL    HW223019   4.713   5.969   4.427 -0.1888  0.1936 -0.1695
 7051SOL     OW23020   8.431   7.441   3.207  0.0142  0.0489 -0.1554
 7051SOL    HW123021   8.428   7.396   3.122 -1.4733 -0.7953  0.3093
 7051SOL    HW223022   8.345   7.425   3.246  0.3658  1.1580  1.1515
 7052SOL     OW23023   5.100   7.176   6.784 -0.0150 -0.3571 -0.7420
 7052SOL    HW123024   5.063   7.098   6.742 -0.7688  0.9600 -2.6700
 7052SOL    HW223025   5.184   7.148   6.819 -0.4348 -2.1073 -1.0664
 7053SOL     OW23026   0.914   1.948   3.012 -0.4551  0.5264  0.0908
 7053SOL    HW123027   0.946   1.884   3.075 -0.8466  1.5078  1.3185
 7053SOL    HW223028   0.976   1.942   2.939  0.9211  0.4357  1.2119
 7054SOL     OW23029   6.755   4.855   6.049 -0.4844 -0.2879  0.1846
 7054SOL    HW123030   6.776   4.848   5.956 -0.3595  2.0084 -0.0349
 7054SOL    HW223031   6.666   4.890   6.050 -0.1230  0.6526  0.8885
 7055SOL     OW23032   8.757   3.561   7.618  0.1603  0.1869 -0.5079
 7055SOL    HW123033   8.840   3.573   7.665 -0.5060  0.8533  0.5433
 7055SOL    HW223034   8.783   3.529   7.532  1.4572 -0.6152  0.1414
 7056SOL     OW23035   7.198   4.429   3.209  0.0710 -0.0512  0.3297
 7056SOL    HW123036   7.248   4.460   3.284  0.2479 -3.0242  1.5742
 7056SOL    HW223037   7.261   4.380   3.156 -0.5113  0.2501 -0.6768
 7057SOL     OW23038   8.625   5.200   2.105  0.5003  0.1485  0.2723
 7057SOL    HW123039   8.558   5.163   2.047  0.6872  0.4009 -0.1046
 7057SOL    HW223040   8.581   5.272   2.150  0.3060 -0.1567  0.5775
 7058SOL     OW23041   8.321   1.015   5.372 -0.0237  0.8079 -0.3274
 7058SOL    HW123042   8.317   1.091   5.430  3.2494  0.2322  0.9164
 7058SOL    HW223043   8.309   1.050   5.284  0.7871  2.7021  0.2694
 7059SOL     OW23044   6.298   3.316   8.163 -0.1600  0.0180  0.3576
 7059SOL    HW123045   6.382   3.272   8.163 -0.4412 -0.5929 -1.3561
 7059SOL    HW223046   6.309   3.389   8.102 -0.1620  1.4694  2.0004
 7060SOL     OW23047   0.484   5.126   2.940  0.5183 -0.2610  0.2520
 7060SOL    HW123048   0.411   5.065   2.933 -0.5395  0.9484  0.2412
 7060SOL    HW223049   0.505   5.148   2.849 -1.5101  2.0578  0.2321
 7061SOL     OW23050   3.313   6.881   3.743  0.0183  0.0477  0.5915
 7061SOL    HW123051   3.356   6.885   3.829  1.3189 -1.9538  0.1075
 7061SOL    HW223052   3.313   6.971   3.712 -0.2212  0.7773  2.5530
 7062SOL     OW23053   0.529   3.943   5.385  0.6931  0.8184 -0.1268
 7062SOL    HW123054   0.436   3.922   5.385  0.9329 -0.3029 -0.4407
 7062SOL    HW223055   0.543   3.989   5.302  0.8270 -1.0722 -1.2198
 7063SOL     OW23056   0.154   1.736   6.259 -0.0687  0.1526 -0.3113
 7063SOL    HW123057   0.237   1.782   6.264 -0.1390  0.1323  1.6905
 7063SOL    HW223058   0.161   1.665   6.322 -1.0768 -0.7634 -1.1739
 7064SOL     OW23059   5.021   2.793   3.259  0.1874 -0.2341 -0.0704
 7064SOL    HW123060   5.023   2.843   3.341  0.3076  0.5685 -0.5550
 7064SOL    HW223061   5.113   2.784   3.235  0.0809  1.4230 -1.2358
 7065SOL     OW23062   4.006   4.564   0.863 -0.1523  0.6034  0.0261
 7065SOL    HW123063   4.084   4.555   0.808 -0.1760  1.1645 -0.1014
 7065SOL    HW223064   3.933   4.571   0.801 -0.4687 -1.1472  0.1398
 7066SOL     OW23065   3.291   6.200   6.214  0.2982 -0.0842  0.0902
 7066SOL    HW123066   3.376   6.184   6.255 -0.4166 -0.5761  1.4460
 7066SOL    HW223067   3.249   6.265   6.270  0.4833  1.5596 -1.6012
 7067SOL     OW23068   4.048   5.327   6.609  0.5808 -0.1183  0.0077
 7067SOL    HW123069   3.955   5.344   6.619  0.5298 -0.8028  0.7494
 7067SOL    HW223070   4.081   5.402   6.559 -0.8461 -1.1820 -2.7379
 7068SOL     OW23071   6.080   0.829   7.315 -0.0910 -0.4204  0.1407
 7068SOL    HW123072   6.058   0.920   7.338  2.6854  0.3788 -0.0651
 7068SOL    HW223073   6.087   0.830   7.219 -2.0021 -1.3963 -0.0593
 7069SOL     OW23074   3.784   1.482   6.767  0.5667  0.2480 -0.8812
 7069SOL    HW123075   3.713   1.506   6.708  0.3777 -0.4051 -0.9265
 7069SOL    HW223076   3.807   1.564   6.812  0.1883  0.5841 -1.2897
 7070SOL     OW23077   2.128   1.617   0.340  1.1719  0.2592 -0.5243
 7070SOL    HW123078   2.131   1.612   0.244 -0.0456 -1.0890 -0.5267
 7070SOL    HW223079   2.037   1.639   0.360  1.0758 -0.8512  0.3479
 7071SOL     OW23080   7.730   8.179   6.403  0.2647  0.1130  0.3344
 7071SOL    HW123081   7.761   8.093   6.372 -0.5760  0.5282 -1.8248
 7071SOL    HW223082   7.636   8.179   6.384  0.5571  2.1748 -1.4563
 7072SOL     OW23083   6.379   6.027   6.699  0.3563 -0.2439 -0.3873
 7072SOL    HW123084   6.295   6.069   6.678 -0.4848 -1.8702 -0.3868
 7072SOL    HW223085   6.384   5.952   6.641  0.6391 -1.5868  1.3071
 7073SOL     OW23086   2.452   8.847   5.926 -0.6919  0.7047  0.6033
 7073SOL    HW123087   2.424   8.812   5.841 -0.7830  1.6471  0.2353
 7073SOL    HW223088   2.372   8.877   5.968 -0.8226 -0.8847  1.5863
 7074SOL     OW23089   2.192   1.497   1.437  0.1395  0.1763 -0.0224
 7074SOL    HW123090   2.182   1.402   1.433 -0.7690  0.1857  1.4224
 7074SOL    HW223091   2.115   1.528   1.485  1.3174  1.4630  1.1570
 7075SOL     OW23092   7.353   4.454   0.694 -0.5155  0.5514 -0.5735
 7075SOL    HW123093   7.365   4.365   0.663 -0.2485  0.6420 -0.7340
 7075SOL    HW223094   7.339   4.445   0.788  0.6633  0.4264 -0.3982
 7076SOL     OW23095   5.873   5.169   8.492  0.6096  0.2018 -0.0362
 7076SOL    HW123096   5.903   5.161   8.583  0.2596 -1.5252 -0.0409
 7076SOL    HW223097   5.940   5.122   8.441  0.1696  0.0997 -0.5253
 7077SOL     OW23098   2.824   2.860   8.637 -0.2096  0.4555 -1.1100
 7077SOL    HW123099   2.911   2.826   8.616 -0.3042  0.6940 -1.9372
 7077SOL    HW223100   2.765   2.815   8.576 -0.8596 -0.6197  0.2471
 7078SOL     OW23101   1.434   5.621   8.817  0.3584  0.0848  0.3313
 7078SOL    HW123102   1.472   5.647   8.732 -0.4107 -1.7346 -0.6204
 7078SOL    HW223103   1.340   5.636   8.806  0.0124 -1.9814  0.1058
 7079SOL     OW23104   7.289   0.959   5.179  0.3602  0.5809 -0.3522
 7079SOL    HW123105   7.383   0.958   5.162  0.5865 -0.9397  0.7177
 7079SOL    HW223106   7.251   0.907   5.109  0.5167 -0.0658  0.0277
 7080SOL     OW23107   3.081   7.735   2.503 -0.3577 -0.2438 -0.2004
 7080SOL    HW123108   3.044   7.726   2.591 -0.1262 -1.4444 -0.1973
 7080SOL    HW223109   3.171   7.763   2.518 -0.0849 -1.1801  0.0092
 7081SOL     OW23110   1.500   3.303   8.546 -0.2318  0.1946 -0.0127
 7081SOL    HW123111   1.470   3.217   8.574 -0.9555  0.5490  0.3376
 7081SOL    HW223112   1.575   3.285   8.489  0.0309 -0.6278  0.5772
 7082SOL     OW23113   6.569   5.624   5.007  0.6235 -0.1088 -0.1212
 7082SOL    HW123114   6.561   5.564   5.081  0.7692  2.0596  1.7775
 7082SOL    HW223115   6.480   5.652   4.988  0.6856  0.1494 -0.0388
 7083SOL     OW23116   8.468   4.604   5.564 -0.4555  0.1855  0.2083
 7083SOL    HW123117   8.539   4.569   5.620 -0.2993  1.6090  0.9459
 7083SOL    HW223118   8.503   4.686   5.530 -0.6107 -0.5841 -1.9229
 7084SOL     OW23119   1.102   1.916   0.464  0.0212  0.4265 -0.6321
 7084SOL    HW123120   1.195   1.939   0.465  0.1088  0.2948 -2.4341
 7084SOL    HW223121   1.067   1.957   0.543  1.3049  1.8132 -0.7237
 7085SOL     OW23122   6.433   8.764   8.591  0.5150 -0.0937 -0.3181
 7085SOL    HW123123   6.490   8.694   8.622 -0.1305 -0.1082  0.9119
 7085SOL    HW223124   6.362   8.719   8.545  0.8382 -0.1546 -0.7588
 7086SOL     OW23125   5.716   0.355   2.596 -0.1660 -0.1390 -0.1104
 7086SOL    HW123126   5.743   0.275   2.551 -1.2634 -0.3856 -0.3632
 7086SOL    HW223127   5.742   0.426   2.538  1.2381 -0.2684  0.3287
 7087SOL     OW23128   6.242   2.167   5.699  0.1305 -0.0802  0.2275
 7087SOL    HW123129   6.311   2.110   5.732 -2.1822 -1.9068  2.2552
 7087SOL    HW223130   6.186   2.110   5.647 -0.0071  1.3137 -1.2167
 7088SOL     OW23131   4.877   4.293   1.832 -0.4924 -0.8532 -0.2650
 7088SOL    HW123132   4.936   4.235   1.784 -0.3863 -0.9694  0.0055
 7088SOL    HW223133   4.866   4.369   1.775 -0.4941 -1.0607 -0.5446
 7089SOL     OW23134   2.420   5.679   5.695  0.2121 -0.4690  0.1379
 7089SOL    HW123135   2.437   5.638   5.610  1.0424 -0.3628  0.2442
 7089SOL    HW223136   2.506   5.710   5.724 -0.5276  2.5217 -0.5248
 7090SOL     OW23137   7.480   7.730   4.278 -0.4014  1.0383  0.0876
 7090SOL    HW123138   7.546   7.799   4.271  1.6889 -0.9072 -0.6642
 7090SOL    HW223139   7.491   7.695   4.366 -0.5399  0.8019  0.0129
 7091SOL     OW23140   5.421   3.264   5.260 -0.2301 -0.4084 -0.1068
 7091SOL    HW123141   5.446   3.251   5.168 -1.6213 -0.1761 -0.5409
 7091SOL    HW223142   5.332   3.230   5.266 -1.0807  1.7529  0.5539
 7092SOL     OW23143   2.849   0.581   5.078 -0.0991 -0.0940 -0.2742
 7092SOL    HW123144   2.851   0.525   5.156 -2.3570  0.8239  0.5316
 7092SOL    HW223145   2.813   0.526   5.009 -2.2059  0.2328  0.4878
 7093SOL     OW23146   0.717   2.819   1.830 -0.0261  0.1579  0.0843
 7093SOL    HW123147   0.802   2.830   1.788  0.0117  1.7750  0.5116
 7093SOL    HW223148   0.666   2.895   1.802 -0.9483 -0.1931  0.7430
 7094SOL     OW23149   8.294   3.143   6.067  0.5441 -0.3287  0.3450
 7094SOL    HW123150   8.207   3.118   6.098  0.2994 -2.3327 -1.6523
 7094SOL    HW223151   8.355   3.103   6.129  0.0808  0.2322  1.1784
 7095SOL     OW23152   4.354   3.240   0.552  0.0079  0.6325 -0.1205
 7095SOL    HW123153   4.407   3.187   0.611 -1.0169  1.2492  1.4426
 7095SOL    HW223154   4.282   3.182   0.526 -0.2572  0.7471  0.3313
 7096SOL     OW23155   1.687   4.388   2.778 -0.6712 -0.1101 -0.1918
 7096SOL    HW123156   1.637   4.460   2.740 -1.2337 -0.4166 -0.0449
 7096SOL    HW223157   1.770   4.388   2.730 -0.5769  0.7730 -0.0356
 7097SOL     OW23158   3.818   4.121   4.983 -0.3539  0.6820 -0.2953
 7097SOL    HW123159   3.889   4.185   4.983  1.8460 -1.6337 -0.0429
 7097SOL    HW223160   3.794   4.112   4.891 -0.4123  1.5286 -0.3718
 7098SOL     OW23161   3.922   1.886   8.411  0.6437  0.1483  0.8170
 7098SOL    HW123162   3.855   1.818   8.408  1.4122 -0.6849 -2.8192
 7098SOL    HW223163   3.890   1.954   8.351  3.1720 -0.5429 -1.4864
 7099SOL     OW23164   3.612   5.761   8.325 -0.5270  0.4256 -0.2998
 7099SOL    HW123165   3.523   5.792   8.340  0.1273  1.9917  0.7381
 7099SOL    HW223166   3.609   5.717   8.240 -2.4377 -0.2999  0.0914
 7100SOL     OW23167   3.643   3.898   5.946 -0.4907  0.1734  0.1091
 7100SOL    HW123168   3.576   3.933   5.888 -0.3644 -0.5757 -0.4986
 7100SOL    HW223169   3.642   3.957   6.022 -0.6678  1.1665 -0.6354
 7101SOL     OW23170   7.086   2.547   7.366  0.0914 -0.0108  0.1900
 7101SOL    HW123171   7.008   2.527   7.418 -0.3933  0.4833 -0.3352
 7101SOL    HW223172   7.072   2.636   7.335  0.0472 -0.5384 -1.3764
 7102SOL     OW23173   0.366   4.779   1.959 -0.2941  0.3752 -0.3161
 7102SOL    HW123174   0.274   4.766   1.982 -0.3514  1.2965  0.0133
 7102SOL    HW223175   0.409   4.697   1.985 -1.3191 -0.8632 -2.2501
 7103SOL     OW23176   8.759   3.089   1.666 -0.0833  0.5351 -0.0423
 7103SOL    HW123177   8.772   3.016   1.605 -0.7979 -0.1343  0.5892
 7103SOL    HW223178   8.767   3.050   1.753  3.3172  1.8923  0.4260
 7104SOL     OW23179   3.820   7.536   1.996  0.0616  0.2714 -0.3995
 7104SOL    HW123180   3.735   7.526   2.037  0.3591 -1.9422 -0.2209
 7104SOL    HW223181   3.878   7.565   2.067 -0.0102 -0.8077  0.1119
 7105SOL     OW23182   3.630   4.856   8.202 -0.5017 -0.1959 -0.1770
 7105SOL    HW123183   3.724   4.873   8.197 -0.4543 -0.0197  0.9490
 7105SOL    HW223184   3.623   4.761   8.208 -0.5242 -0.3594 -2.1216
 7106SOL     OW23185   4.808   0.750   4.663 -0.1423  0.2161  0.0834
 7106SOL    HW123186   4.802   0.798   4.746  1.7685  0.0895  0.3535
 7106SOL    HW223187   4.752   0.673   4.676 -0.6742  0.7168  0.8642
 7107SOL     OW23188   6.184   6.494   2.246 -0.3345  0.1322  0.7287
 7107SOL    HW123189   6.236   6.505   2.326 -0.3689  0.2906  0.7276
 7107SOL    HW223190   6.182   6.581   2.206 -1.8686  0.4671  1.4927
 7108SOL     OW23191   4.302   1.571   6.525  0.4910 -0.1547 -0.2560
 7108SOL    HW123192   4.295   1.533   6.613 -0.7134  0.6229  0.0115
 7108SOL    HW223193   4.303   1.666   6.540  1.9296 -0.0288 -1.0010
 7109SOL     OW23194   2.251   0.361   4.559  0.2049 -0.3580 -0.4290
 7109SOL    HW123195   2.301   0.436   4.589  1.1887 -1.5764  1.1063
 7109SOL    HW223196   2.293   0.335   4.477  0.0854  0.5001 -0.7766
 7110SOL     OW23197   4.592   2.109   1.977 -1.2690 -0.2256 -0.8572
 7110SOL    HW123198   4.681   2.118   1.943 -0.4539  1.3314  1.4358
 7110SOL    HW223199   4.550   2.192   1.955 -1.0171  0.4269  0.9656
 7111SOL     OW23200   3.643   2.314   2.365 -0.5073  0.0042 -0.3664
 7111SOL    HW123201   3.561   2.311   2.413 -0.2944 -1.1137 -0.0467
 7111SOL    HW223202   3.641   2.236   2.308  0.3722 -0.1103 -0.2638
 7112SOL     OW23203   6.949   0.546   0.200  0.6030 -0.2856  0.2077
 7112SOL    HW123204   7.015   0.561   0.132  2.0952  0.1472  1.6912
 7112SOL    HW223205   6.983   0.473   0.251 -0.2225 -0.2644  0.8164
 7113SOL     OW23206   8.301   2.108   8.388  0.4873 -0.1990 -0.5422
 7113SOL    HW123207   8.318   2.141   8.300  0.9133 -2.1049 -1.2348
 7113SOL    HW223208   8.387   2.084   8.422  0.1142 -2.0229 -0.7386
 7114SOL     OW23209   5.788   5.379   3.792 -0.3834 -0.2943 -0.1643
 7114SOL    HW123210   5.880   5.401   3.773 -0.7441  1.2426 -0.2781
 7114SOL    HW223211   5.792   5.293   3.834  1.2515  0.4186  1.2525
 7115SOL     OW23212   1.724   2.261   1.947  0.4320 -0.4788  0.7749
 7115SOL    HW123213   1.806   2.213   1.931  0.5471  0.0249 -0.1884
 7115SOL    HW223214   1.752   2.344   1.985  0.6062  0.7924 -1.9168
 7116SOL     OW23215   0.798   7.364   5.980 -0.0270 -0.6528 -0.2587
 7116SOL    HW123216   0.882   7.336   6.018 -1.0937 -1.8676  1.3805
 7116SOL    HW223217   0.820   7.394   5.892  2.1874 -0.4895  0.2849
 7117SOL     OW23218   6.076   4.266   1.002 -0.6834 -0.1529 -1.3128
 7117SOL    HW123219   6.093   4.302   0.915 -0.0979 -0.6908 -1.4266
 7117SOL    HW223220   6.161   4.260   1.043 -1.1282  1.7264 -0.0163
 7118SOL     OW23221   6.035   1.022   7.609 -0.1236 -0.1269 -0.1242
 7118SOL    HW123222   6.037   1.045   7.516 -0.4922  0.0909 -0.0770
 7118SOL    HW223223   5.949   0.982   7.623 -0.3135  0.4017  0.2547
 7119SOL     OW23224   5.010   3.794   0.865 -0.6887 -0.1147  0.2370
 7119SOL    HW123225   4.992   3.825   0.954 -0.8183 -2.6431  1.1870
 7119SOL    HW223226   4.940   3.832   0.812 -1.6316  0.0666  1.5613
 7120SOL     OW23227   1.746   5.023   0.340  0.5004 -0.1273 -0.3963
 7120SOL    HW123228   1.799   5.049   0.416 -1.0739 -0.3325  0.8259
 7120SOL    HW223229   1.734   5.104   0.291  0.5105  0.2740  0.2496
 7121SOL     OW23230   3.716   4.892   0.844 -0.0734  0.2463  0.4289
 7121SOL    HW123231   3.657   4.862   0.774 -0.2965  1.2680  0.1669
 7121SOL    HW223232   3.792   4.834   0.836 -0.8432 -0.8122  0.4981
 7122SOL     OW23233   3.862   7.247   4.599 -0.2569 -0.0665  0.0852
 7122SOL    HW123234   3.831   7.213   4.683  0.9534  0.2053  0.6803
 7122SOL    HW223235   3.934   7.189   4.575  0.7457  1.0493  0.2911
 7123SOL     OW23236   0.862   1.191   4.428  0.5893  1.0449  0.1411
 7123SOL    HW123237   0.957   1.202   4.417  0.5567  1.6862  0.4643
 7123SOL    HW223238   0.823   1.262   4.376  0.2259 -0.1231 -1.2421
 7124SOL     OW23239   0.009   4.375   1.986  0.1883  0.5456  0.2272
 7124SOL    HW123240  -0.081   4.388   1.957  0.2322  1.0294  0.3014
 7124SOL    HW223241   0.015   4.281   2.003  0.0631  0.3001 -0.9775
 7125SOL     OW23242   6.739   8.413   4.359  0.0310 -0.7377 -0.0587
 7125SOL    HW123243   6.680   8.487   4.370  0.6289 -0.5759  2.6572
 7125SOL    HW223244   6.688   8.337   4.387  0.4572 -0.8785  0.3573
 7126SOL     OW23245   3.187   7.898   5.671  0.6982  0.0875 -0.0189
 7126SOL    HW123246   3.155   7.812   5.696  0.1847 -0.0563 -1.1322
 7126SOL    HW223247   3.166   7.906   5.579  1.3404  1.1438 -0.0940
 7127SOL     OW23248   7.176   2.613   0.110  0.9490  0.7219  0.0291
 7127SOL    HW123249   7.213   2.541   0.059  0.3981 -1.4921  2.5054
 7127SOL    HW223250   7.237   2.626   0.182 -0.0740  1.1905  0.8423
 7128SOL     OW23251   4.239   5.802   8.390 -0.0887  0.3210  0.3588
 7128SOL    HW123252   4.154   5.769   8.360 -0.5431  2.5348 -1.0786
 7128SOL    HW223253   4.299   5.778   8.320  0.6230 -1.5497  1.5358
 7129SOL     OW23254   6.794   8.960   6.196 -0.4366 -0.3785  0.3124
 7129SOL    HW123255   6.755   9.043   6.168  1.2527 -0.4456 -2.6783
 7129SOL    HW223256   6.728   8.894   6.174 -0.1886 -0.1483 -1.2921
 7130SOL     OW23257   5.059   0.096   7.739 -0.1129 -0.5383  0.0645
 7130SOL    HW123258   4.968   0.112   7.765 -0.0289  1.4814 -0.7089
 7130SOL    HW223259   5.061   0.116   7.646  1.2527  0.0238  0.1940
 7131SOL     OW23260   2.889   2.042   8.217  0.4922 -0.1291 -0.2877
 7131SOL    HW123261   2.861   2.082   8.135  0.6182  2.9083  1.0011
 7131SOL    HW223262   2.958   2.100   8.250 -0.7739 -0.1544  2.7701
 7132SOL     OW23263   4.490   0.332   2.626 -0.1345 -0.3538  0.1451
 7132SOL    HW123264   4.403   0.296   2.640 -0.1034  0.2780  2.3254
 7132SOL    HW223265   4.475   0.423   2.600 -0.1348 -0.2490  0.5071
 7133SOL     OW23266   2.213   8.104   3.241 -0.0473 -0.1206 -0.2940
 7133SOL    HW123267   2.292   8.109   3.186 -0.1667 -1.2164 -0.5822
 7133SOL    HW223268   2.152   8.051   3.190 -0.0035 -1.5545  1.0639
 7134SOL     OW23269   4.494   7.518   5.667 -0.2139  0.0352  0.3818
 7134SOL    HW123270   4.516   7.522   5.760  1.3337 -1.3087  0.1172
 7134SOL    HW223271   4.480   7.610   5.641 -1.3883  0.3726  2.0622
 7135SOL     OW23272   1.524   8.178   5.362  0.0213  0.5797  0.0321
 7135SOL    HW123273   1.570   8.163   5.445 -1.1131  0.9749  0.7464
 7135SOL    HW223274   1.454   8.113   5.360  0.0519  0.5563 -0.6368
 7136SOL     OW23275   2.727   7.387   2.545 -0.1670  0.1044  0.0808
 7136SOL    HW123276   2.800   7.329   2.567  1.5694  2.0804 -0.1857
 7136SOL    HW223277   2.700   7.425   2.629  1.4464  1.9483 -0.1779
 7137SOL     OW23278   0.414   8.214   8.210 -0.0328  0.1604  0.2998
 7137SOL    HW123279   0.377   8.154   8.275 -1.7550  0.7365 -0.1197
 7137SOL    HW223280   0.345   8.225   8.144  0.9250  1.1841 -0.5790
 7138SOL     OW23281   4.698   0.365   1.302  0.1733  0.1606 -0.1560
 7138SOL    HW123282   4.744   0.292   1.259  0.4660 -0.0249  0.4593
 7138SOL    HW223283   4.640   0.322   1.365  0.5009  0.4565  0.3584
 7139SOL     OW23284   6.097   6.086   2.628  0.1236 -0.6025 -0.3213
 7139SOL    HW123285   6.148   6.139   2.689 -0.7456  1.6821 -1.4582
 7139SOL    HW223286   6.161   6.056   2.563  0.5321 -0.4277  0.0007
 7140SOL     OW23287   0.042   6.435   6.513 -0.7202  0.5694  0.7892
 7140SOL    HW123288  -0.006   6.502   6.464  0.3696  0.2530 -0.7455
 7140SOL    HW223289   0.128   6.473   6.528 -0.2337 -0.3098  0.2750
 7141SOL     OW23290   3.934   2.595   5.176  0.1883 -0.3030  0.6829
 7141SOL    HW123291   3.944   2.564   5.266  0.7263  0.2176  0.8154
 7141SOL    HW223292   3.924   2.690   5.185 -2.1693 -0.4706  0.3420
 7142SOL     OW23293   7.113   7.168   3.057  0.0801 -0.5478  0.4734
 7142SOL    HW123294   7.089   7.244   3.111 -0.3742 -0.7193  0.5211
 7142SOL    HW223295   7.130   7.098   3.120  1.9822 -0.1037  0.5087
 7143SOL     OW23296   3.680   5.631   4.712  0.4119 -0.4055 -0.5860
 7143SOL    HW123297   3.688   5.559   4.650  0.6978 -0.0903 -0.9173
 7143SOL    HW223298   3.734   5.701   4.675 -0.2195  0.1358 -0.4940
 7144SOL     OW23299   4.466   4.248   4.824 -0.3083 -0.1569  0.2826
 7144SOL    HW123300   4.444   4.181   4.887  0.2092  1.4831  2.3067
 7144SOL    HW223301   4.421   4.327   4.855  1.8295  1.2735 -0.0088
 7145SOL     OW23302   3.228   8.803   8.454 -0.2485 -0.2169 -0.2516
 7145SOL    HW123303   3.150   8.785   8.402 -0.9168 -1.1480  1.0175
 7145SOL    HW223304   3.195   8.845   8.533  0.7512  1.1940 -0.5385
 7146SOL     OW23305   7.560   2.340   6.299 -0.3773 -0.3626  0.1538
 7146SOL    HW123306   7.642   2.354   6.347 -0.4652  0.1616  0.1554
 7146SOL    HW223307   7.579   2.266   6.240  0.3455  0.2555 -0.4104
 7147SOL     OW23308   8.625   5.643   5.296  0.1694  0.0677 -0.0319
 7147SOL    HW123309   8.598   5.701   5.367  2.1449  1.2665 -0.1952
 7147SOL    HW223310   8.710   5.676   5.268  0.0347 -1.1482 -2.1245
 7148SOL     OW23311   3.157   2.420   7.134 -0.3006 -0.0734 -0.1837
 7148SOL    HW123312   3.084   2.360   7.143  0.0292 -0.3926  0.4004
 7148SOL    HW223313   3.230   2.365   7.107 -0.2354  0.2188 -0.6086
 7149SOL     OW23314   0.286   6.104   7.724  0.4209 -0.2460 -0.2826
 7149SOL    HW123315   0.338   6.024   7.720  2.6099  1.1437 -1.2666
 7149SOL    HW223316   0.232   6.103   7.645 -0.8604 -1.5380  0.5742
 7150SOL     OW23317   0.463   4.327   5.976  0.3615  0.1077 -0.2090
 7150SOL    HW123318   0.458   4.370   5.891  1.2808 -1.6330 -1.1854
 7150SOL    HW223319   0.372   4.326   6.008  0.1232  1.4777 -0.7737
 7151SOL     OW23320   5.183   2.920   0.917 -0.0813  0.5366  0.5166
 7151SOL    HW123321   5.208   3.005   0.953 -0.9012  0.2137  1.8764
 7151SOL    HW223322   5.204   2.857   0.985  0.3893 -0.3586 -0.4240
 7152SOL     OW23323   0.097   3.259   5.798  0.0238 -0.4298 -0.1211
 7152SOL    HW123324   0.157   3.188   5.822  1.3535  1.1439  1.4967
 7152SOL    HW223325   0.133   3.295   5.718  0.8312 -0.0032  0.4158
 7153SOL     OW23326   2.612   6.413   4.863 -0.4227 -0.0327 -0.3328
 7153SOL    HW123327   2.616   6.348   4.792 -0.4292 -0.1323 -0.2432
 7153SOL    HW223328   2.606   6.497   4.818  0.8952  0.0084 -0.4634
 7154SOL     OW23329   0.448   8.024   6.400  0.5609  0.0148  0.7349
 7154SOL    HW123330   0.542   8.036   6.388  0.3940 -0.3499 -1.4202
 7154SOL    HW223331   0.408   8.096   6.350 -0.2883 -0.8611  0.1026
 7155SOL     OW23332   0.312   1.380   5.982  0.4451  0.6957  0.3526
 7155SOL    HW123333   0.256   1.457   5.993  0.6620  1.2236 -1.7894
 7155SOL    HW223334   0.375   1.406   5.914  0.4407 -1.4101 -0.5175
 7156SOL     OW23335   1.070   5.238   3.042 -0.0700  0.2325  0.1211
 7156SOL    HW123336   1.003   5.179   3.006  0.2401 -0.1666  0.1952
 7156SOL    HW223337   1.131   5.251   2.969  0.4331 -0.3874  0.4347
 7157SOL     OW23338   0.897   7.248   8.040 -0.2491  0.0547 -0.2624
 7157SOL    HW123339   0.928   7.236   7.950 -1.5331 -1.6659 -0.5266
 7157SOL    HW223340   0.806   7.217   8.039 -1.0822  2.1990  1.1316
 7158SOL     OW23341   5.531   3.635   8.137  0.1409 -0.1580  0.0717
 7158SOL    HW123342   5.459   3.649   8.077  0.7990  0.6348 -0.5498
 7158SOL    HW223343   5.493   3.583   8.208 -1.3523  1.2611  0.3714
 7159SOL     OW23344   0.347   5.475   2.569 -0.1665  0.0775  0.0204
 7159SOL    HW123345   0.302   5.537   2.625  0.0718  1.3656 -1.1624
 7159SOL    HW223346   0.437   5.474   2.602 -0.4198 -0.4935  0.7231
 7160SOL     OW23347   5.861   6.383   7.498  0.0081 -0.5899 -0.2362
 7160SOL    HW123348   5.835   6.404   7.587 -0.8160  0.7172 -0.7522
 7160SOL    HW223349   5.806   6.309   7.473 -1.0169  0.1527 -0.2382
 7161SOL     OW23350   0.119   1.098   7.747  0.2836 -0.8587  0.2055
 7161SOL    HW123351   0.111   1.147   7.829  0.5692 -0.2526 -0.1150
 7161SOL    HW223352   0.055   1.138   7.689  2.1284  0.8173 -0.8375
 7162SOL     OW23353   6.505   6.426   7.451 -0.2558  0.3443 -0.2537
 7162SOL    HW123354   6.426   6.374   7.461 -0.2173  0.4794  0.9195
 7162SOL    HW223355   6.500   6.462   7.363 -0.9382 -0.5625 -0.5889
 7163SOL     OW23356   1.023   7.999   0.180  0.1883  0.5024  0.1804
 7163SOL    HW123357   1.073   7.960   0.108  2.6143 -0.5000  2.2599
 7163SOL    HW223358   0.939   7.953   0.178 -0.2909  1.3165 -2.6365
 7164SOL     OW23359   2.590   7.904   5.544 -0.7351  0.5501  0.3212
 7164SOL    HW123360   2.666   7.917   5.601 -0.3078  0.7629 -0.2930
 7164SOL    HW223361   2.616   7.939   5.459 -1.9728  1.8483  0.4286
 7165SOL     OW23362   5.916   3.484   7.687 -0.5666 -0.3721 -0.3003
 7165SOL    HW123363   5.889   3.441   7.768 -0.6102  0.9668  0.4304
 7165SOL    HW223364   6.009   3.503   7.699 -0.2357 -1.3738 -1.1427
 7166SOL     OW23365   6.245   0.674   2.582 -0.1112 -0.2711  0.2754
 7166SOL    HW123366   6.203   0.725   2.651 -0.1229 -1.6722  1.3381
 7166SOL    HW223367   6.239   0.583   2.612 -0.5008 -0.9650 -1.7829
 7167SOL     OW23368   5.438   7.898   0.169 -0.0476 -0.4559 -0.3494
 7167SOL    HW123369   5.405   7.947   0.094 -0.5838  0.5598  0.5335
 7167SOL    HW223370   5.512   7.847   0.134  1.7151  2.3241 -0.9397
 7168SOL     OW23371   8.262   1.300   0.912 -0.5383  0.3174  0.2042
 7168SOL    HW123372   8.212   1.267   0.987 -1.7826 -0.9575 -1.1216
 7168SOL    HW223373   8.233   1.246   0.839  0.6154  1.5560 -1.2199
 7169SOL     OW23374   4.286   1.037   7.959  0.4791  0.2515 -0.6437
 7169SOL    HW123375   4.266   0.980   7.884  0.0097  1.3807 -1.4136
 7169SOL    HW223376   4.302   1.123   7.920  0.7572  0.7479  0.5212
 7170SOL     OW23377   3.982   7.427   2.899 -0.3478  0.5577 -0.0579
 7170SOL    HW123378   3.991   7.388   2.812  0.4415  0.5142  0.0406
 7170SOL    HW223379   4.051   7.386   2.951 -1.7645 -0.5669  1.0144
 7171SOL     OW23380   0.670   3.271   8.252 -0.4305 -0.1510  0.3400
 7171SOL    HW123381   0.593   3.328   8.244 -1.0349 -1.1941 -2.9945
 7171SOL    HW223382   0.636   3.191   8.292 -1.1533 -0.5526 -0.9886
 7172SOL     OW23383   1.505   4.303   3.386 -0.1553 -0.0882 -0.6594
 7172SOL    HW123384   1.524   4.380   3.333  1.8572  1.0235  1.4876
 7172SOL    HW223385   1.589   4.257   3.392  0.3485  1.0052  3.1624
 7173SOL     OW23386   2.153   5.298   5.751  0.3012  0.1241 -0.1033
 7173SOL    HW123387   2.135   5.390   5.769  1.4359  0.2587  0.3964
 7173SOL    HW223388   2.244   5.285   5.778  0.4209 -0.9431 -0.9521
 7174SOL     OW23389   5.360   3.759   1.081 -0.9896 -0.3956  0.1029
 7174SOL    HW123390   5.316   3.699   1.022 -1.7358  1.2702 -1.1156
 7174SOL    HW223391   5.321   3.845   1.063  0.6037  0.6291  1.1608
 7175SOL     OW23392   7.847   5.233   8.403  0.4202  0.0166 -0.3895
 7175SOL    HW123393   7.852   5.247   8.498  1.4867  1.0860 -0.5841
 7175SOL    HW223394   7.758   5.258   8.380  0.0314 -0.6156  0.3759
 7176SOL     OW23395   8.446   3.077   1.461 -0.1068  0.2750  0.1314
 7176SOL    HW123396   8.408   2.993   1.485 -0.1341 -0.2108 -1.4509
 7176SOL    HW223397   8.377   3.120   1.410  0.0397  1.1117  0.6244
 7177SOL     OW23398   2.339   5.267   8.219  0.0871  0.1066 -0.1927
 7177SOL    HW123399   2.358   5.208   8.145 -0.1580  0.5572 -0.6222
 7177SOL    HW223400   2.425   5.289   8.254  0.1358 -2.0528  1.2289
 7178SOL     OW23401   3.247   3.103   0.752 -0.3151 -0.9187  0.0566
 7178SOL    HW123402   3.275   3.182   0.706  0.5904 -1.1067  0.2733
 7178SOL    HW223403   3.176   3.068   0.697  1.0912 -1.4328 -1.5365
 7179SOL     OW23404   3.065   7.285   0.943 -0.3666  0.1542  0.1291
 7179SOL    HW123405   3.018   7.267   1.024 -2.2696  0.2619 -0.8824
 7179SOL    HW223406   3.157   7.292   0.969 -1.0139  1.1403  2.4104
 7180SOL     OW23407   3.687   0.400   7.785  0.2799 -0.0166 -0.6414
 7180SOL    HW123408   3.654   0.479   7.742  0.8570  2.3188  2.8417
 7180SOL    HW223409   3.779   0.395   7.758  0.2184  0.4265 -0.9490
 7181SOL     OW23410   3.743   3.971   7.221  0.2769 -0.4419  0.2269
 7181SOL    HW123411   3.674   4.037   7.209  0.4850 -0.1300  0.7217
 7181SOL    HW223412   3.752   3.963   7.316 -1.1813 -2.6860  0.2501
 7182SOL     OW23413   2.277   2.752   8.321 -0.0921  0.1307 -0.3958
 7182SOL    HW123414   2.281   2.719   8.411  1.3725 -1.0842 -0.8557
 7182SOL    HW223415   2.330   2.831   8.322 -0.6258  0.4858 -0.0538
 7183SOL     OW23416   6.021   8.816   0.382  0.6471  0.0104  0.0901
 7183SOL    HW123417   5.996   8.730   0.349 -0.0155  0.0934  0.3655
 7183SOL    HW223418   5.993   8.816   0.473  1.8013  0.0520  0.4656
 7184SOL     OW23419   7.624   4.034   3.063  0.0484  0.0726  0.0088
 7184SOL    HW123420   7.613   3.940   3.079 -1.0571  0.3462  1.1263
 7184SOL    HW223421   7.701   4.041   3.008  0.5226 -1.4545  0.4323
 7185SOL     OW23422   6.992   5.282   6.388 -0.4168  0.0934 -0.0037
 7185SOL    HW123423   7.056   5.249   6.451  0.5257  0.3934 -0.7727
 7185SOL    HW223424   7.045   5.317   6.317 -1.4393  0.9018 -0.3907
 7186SOL     OW23425   1.724   7.118   6.145 -0.5151  0.1304 -0.3320
 7186SOL    HW123426   1.763   7.153   6.225 -1.5640  0.2449  0.1330
 7186SOL    HW223427   1.691   7.032   6.170 -1.1839  0.3235 -0.5496
 7187SOL     OW23428   3.475   6.543   7.627  0.2235 -0.3931 -0.0232
 7187SOL    HW123429   3.402   6.605   7.628  0.2700 -0.3401  0.8491
 7187SOL    HW223430   3.547   6.591   7.588  0.2104  0.0470  0.4908
 7188SOL     OW23431   7.854   0.411   8.287 -0.0340  0.1271 -0.5139
 7188SOL    HW123432   7.867   0.408   8.192 -1.1366 -0.3670 -0.6703
 7188SOL    HW223433   7.844   0.504   8.308 -0.9149  0.1674 -1.0647
 7189SOL     OW23434   4.774   6.917   1.685  0.4457 -0.1358  0.6282
 7189SOL    HW123435   4.856   6.924   1.637  0.4198  0.1381  0.6206
 7189SOL    HW223436   4.773   6.995   1.741  0.2489 -0.2011  0.7157
 7190SOL     OW23437   8.172   6.370   7.525 -0.2536 -0.7138  0.1964
 7190SOL    HW123438   8.187   6.436   7.592 -1.2833 -0.3835  0.1164
 7190SOL    HW223439   8.210   6.408   7.445 -0.9863 -0.1457  0.1140
 7191SOL     OW23440   0.860   3.865   7.584 -0.1521  0.1699 -0.6846
 7191SOL    HW123441   0.861   3.784   7.635  0.5847 -0.0588 -1.0505
 7191SOL    HW223442   0.951   3.895   7.585  0.3377 -0.9428 -3.5683
 7192SOL     OW23443   1.405   2.952   4.997 -0.2542  0.2956 -0.2865
 7192SOL    HW123444   1.328   2.982   4.950 -0.6966  0.7018  0.6760
 7192SOL    HW223445   1.479   2.990   4.949 -0.5089 -1.6320 -2.3497
 7193SOL     OW23446   3.803   0.888   2.188 -0.6214  0.1960 -0.0887
 7193SOL    HW123447   3.722   0.912   2.233 -0.3342 -0.9782  1.1161
 7193SOL    HW223448   3.817   0.958   2.124 -2.3099  0.6684  0.0237
 7194SOL     OW23449   1.125   4.935   1.370 -0.0051  0.4801 -0.1824
 7194SOL    HW123450   1.197   4.913   1.429 -0.9186 -1.2729  0.3808
 7194SOL    HW223451   1.052   4.882   1.402 -0.5695 -0.5196 -2.8606
 7195SOL     OW23452   0.552   4.894   6.338 -0.4804 -1.5107  0.4136
 7195SOL    HW123453   0.502   4.879   6.419 -2.6023  0.3711 -0.4363
 7195SOL    HW223454   0.513   4.834   6.274 -2.3089  0.4718 -0.4472
 7196SOL     OW23455   6.048   3.447   5.845  0.3926 -0.3245  0.0526
 7196SOL    HW123456   5.997   3.503   5.904 -0.9460 -0.0076 -1.3560
 7196SOL    HW223457   6.031   3.358   5.876  0.1456 -0.1332  0.4759
 7197SOL     OW23458   5.779   0.671   8.416  0.1821 -0.1767  0.7642
 7197SOL    HW123459   5.772   0.627   8.500  1.2487 -0.8543  0.5077
 7197SOL    HW223460   5.761   0.763   8.436  1.6028 -0.1305  1.9410
 7198SOL     OW23461   1.986   7.574   7.818  0.1107  0.3901  0.6593
 7198SOL    HW123462   2.032   7.521   7.883  1.4405 -0.4978 -0.9466
 7198SOL    HW223463   1.977   7.517   7.741 -0.4413  1.7559 -0.3360
 7199SOL     OW23464   2.821   7.571   7.935 -0.2024 -0.0524  0.1339
 7199SOL    HW123465   2.913   7.597   7.939  0.2816 -1.4608 -0.9689
 7199SOL    HW223466   2.808   7.518   8.014  0.2338 -0.7147 -0.2295
 7200SOL     OW23467   6.557   3.870   1.846 -0.1496 -0.0476  0.5742
 7200SOL    HW123468   6.543   3.951   1.796 -0.0676  0.6123  1.6001
 7200SOL    HW223469   6.483   3.815   1.823 -0.3760  0.4384  0.1115
 7201SOL     OW23470   6.977   7.884   1.595 -0.3248 -0.2234  0.5729
 7201SOL    HW123471   6.988   7.979   1.593 -0.3021 -0.2006 -2.1376
 7201SOL    HW223472   6.882   7.871   1.593 -0.4452 -0.0797 -3.7783
 7202SOL     OW23473   7.245   7.424   4.648 -0.5982  0.3187 -0.3444
 7202SOL    HW123474   7.282   7.466   4.725  0.5377  0.9179 -1.1813
 7202SOL    HW223475   7.208   7.496   4.597  0.1032  0.1485 -1.1190
 7203SOL     OW23476   4.004   3.387   8.756 -0.0389 -0.8678 -0.5039
 7203SOL    HW123477   3.956   3.390   8.839  1.9023 -2.8747  0.8014
 7203SOL    HW223478   4.084   3.436   8.774  0.5349 -1.5797 -1.0776
 7204SOL     OW23479   5.922   2.668   1.396 -0.4240 -0.0391  0.3083
 7204SOL    HW123480   5.854   2.608   1.429 -0.0634 -1.3484 -1.2130
 7204SOL    HW223481   5.968   2.618   1.329 -0.3442  2.0754 -1.3261
 7205SOL     OW23482   6.621   4.330   8.290  0.2849  0.0688 -0.5529
 7205SOL    HW123483   6.630   4.383   8.211  0.4050  1.0169  0.0824
 7205SOL    HW223484   6.710   4.324   8.325  0.3890 -1.1202 -0.9544
 7206SOL     OW23485   5.371   7.406   4.746  0.0713  0.3149 -0.4747
 7206SOL    HW123486   5.287   7.441   4.717  0.7538  1.9702 -0.5588
 7206SOL    HW223487   5.419   7.388   4.666 -0.0830 -0.3796 -0.4213
 7207SOL     OW23488   2.801   0.833   6.611  0.4602 -0.0998 -0.0085
 7207SOL    HW123489   2.884   0.877   6.597 -0.2391  1.5612  0.7415
 7207SOL    HW223490   2.736   0.891   6.572 -0.4821 -0.5227  0.8663
 7208SOL     OW23491   5.781   6.124   7.320 -0.0281  0.4689  0.1787
 7208SOL    HW123492   5.691   6.138   7.349 -0.0267 -0.1361  0.4837
 7208SOL    HW223493   5.816   6.057   7.379 -0.2562 -1.3352 -1.6323
 7209SOL     OW23494   4.701   7.939   0.956 -0.1087 -0.4588 -0.3424
 7209SOL    HW123495   4.762   7.910   1.024 -1.0410  2.2547  1.8078
 7209SOL    HW223496   4.753   7.995   0.899  0.1420 -0.8743 -0.5310
 7210SOL     OW23497   7.611   2.672   6.770 -0.5129  0.1205 -0.3946
 7210SOL    HW123498   7.703   2.654   6.755 -0.1348  1.7538 -0.2664
 7210SOL    HW223499   7.581   2.713   6.689 -1.1307 -0.4073 -0.4396
 7211SOL     OW23500   0.593   0.293   6.773 -0.3081 -0.2530 -0.1786
 7211SOL    HW123501   0.511   0.302   6.823 -0.8631 -1.1934 -0.8844
 7211SOL    HW223502   0.565   0.271   6.684  0.7050 -0.2631 -0.5110
 7212SOL     OW23503   6.602   7.703   6.800  0.3649  0.0295  0.1797
 7212SOL    HW123504   6.544   7.776   6.778 -0.3719 -0.9158 -1.1646
 7212SOL    HW223505   6.675   7.710   6.740 -0.2658 -0.9471 -0.7472
 7213SOL     OW23506   7.080   2.634   5.172 -0.6304  0.0160  0.5961
 7213SOL    HW123507   7.153   2.629   5.234  0.8535  1.9359 -0.8585
 7213SOL    HW223508   7.078   2.547   5.131  2.3608  0.5112 -0.8580
 7214SOL     OW23509   1.113   7.632   8.058  0.3717  0.4125  0.4718
 7214SOL    HW123510   1.109   7.674   7.972  1.3310  2.3808  1.3221
 7214SOL    HW223511   1.029   7.652   8.099 -1.0612 -2.4984 -0.7704
 7215SOL     OW23512   1.102   2.197   3.082  0.1928  0.2429  0.8138
 7215SOL    HW123513   1.110   2.202   3.177 -0.4347  0.3373  0.8664
 7215SOL    HW223514   1.036   2.129   3.067  0.5759 -0.0459  0.4327
 7216SOL     OW23515   1.288   3.343   2.734 -0.3574  0.5411  0.4667
 7216SOL    HW123516   1.348   3.315   2.804  1.5601  0.2181 -1.2184
 7216SOL    HW223517   1.282   3.438   2.744  2.1032  0.8709 -0.4949
 7217SOL     OW23518   7.098   6.853   3.631 -0.0208 -0.5045  0.2666
 7217SOL    HW123519   7.170   6.801   3.666  0.4549 -0.6942 -0.9415
 7217SOL    HW223520   7.125   6.944   3.644  0.6063 -0.5729 -0.4653
 7218SOL     OW23521   6.605   3.128   0.763  0.5242 -0.2889 -0.4955
 7218SOL    HW123522   6.589   3.172   0.847  0.7484  0.4700 -0.8444
 7218SOL    HW223523   6.613   3.199   0.700 -0.8439 -0.8843 -1.3839
 7219SOL     OW23524   7.855   7.489   7.780  0.0637 -0.0424  0.4839
 7219SOL    HW123525   7.769   7.531   7.774  0.3454  0.6090  0.9615
 7219SOL    HW223526   7.856   7.449   7.866  0.2406 -0.0474  0.4789
 7220SOL     OW23527   0.782   8.847   1.959 -0.2425 -0.0546  0.3403
 7220SOL    HW123528   0.688   8.862   1.961 -0.1065  0.8211  0.2208
 7220SOL    HW223529   0.819   8.927   1.922  0.4174 -1.0451 -1.2628
 7221SOL     OW23530   1.489   4.054   1.074 -0.3599 -0.2316 -0.0454
 7221SOL    HW123531   1.468   3.989   1.007  0.1644 -1.6719  1.1421
 7221SOL    HW223532   1.412   4.112   1.076 -2.2463 -2.6172  0.9743
 7222SOL     OW23533   5.682   7.710   2.081 -0.7349 -0.0682  0.1875
 7222SOL    HW123534   5.645   7.690   2.167 -2.1505  0.3902 -0.2862
 7222SOL    HW223535   5.728   7.793   2.094 -0.3887 -0.3203  0.6324
 7223SOL     OW23536   3.698   8.084   7.362 -0.2553 -0.1189 -0.3595
 7223SOL    HW123537   3.639   8.085   7.437  0.2150  1.3274  0.0191
 7223SOL    HW223538   3.784   8.063   7.399 -0.1542 -0.1508 -0.6055
 7224SOL     OW23539   7.189   3.764   6.670  0.1805  0.1761  0.4797
 7224SOL    HW123540   7.212   3.680   6.631 -1.5543  0.0013 -0.2482
 7224SOL    HW223541   7.180   3.823   6.595 -1.9897  0.1397  0.6743
 7225SOL     OW23542   3.688   2.248   7.450  0.0486 -0.2421 -0.1423
 7225SOL    HW123543   3.657   2.164   7.485  0.4793 -0.4396 -0.2373
 7225SOL    HW223544   3.761   2.272   7.506 -1.1659  0.9533  1.0117
 7226SOL     OW23545   4.222   4.208   1.888  0.8341 -0.0621 -0.0080
 7226SOL    HW123546   4.263   4.203   1.802 -0.1057  0.7581 -0.5320
 7226SOL    HW223547   4.263   4.283   1.930  0.7811 -0.0170 -0.0355
 7227SOL     OW23548   6.399   4.339   7.374  0.0234 -0.5888  0.0770
 7227SOL    HW123549   6.313   4.307   7.399 -0.4394  0.4224 -0.1970
 7227SOL    HW223550   6.456   4.263   7.384 -0.9382 -1.3383  0.0243
 7228SOL     OW23551   6.242   3.876   6.663  0.1944  0.5626 -0.4481
 7228SOL    HW123552   6.253   3.960   6.619 -1.3210  0.2291 -1.5507
 7228SOL    HW223553   6.266   3.811   6.596  0.7156  0.1002  0.1796
 7229SOL     OW23554   8.452   0.003   1.466  0.1233 -0.2148 -0.1785
 7229SOL    HW123555   8.380  -0.059   1.470  0.4449 -0.6772 -1.1276
 7229SOL    HW223556   8.468   0.028   1.557 -0.1623 -1.3539  0.2058
 7230SOL     OW23557   2.202   6.997   5.111  0.1900  0.4267  0.1843
 7230SOL    HW123558   2.123   7.037   5.075  1.0073  0.5066 -1.6625
 7230SOL    HW223559   2.271   7.020   5.047  1.2888 -1.3307  0.6777
 7231SOL     OW23560   4.712   5.871   8.690  0.2118  0.8233 -0.6280
 7231SOL    HW123561   4.710   5.854   8.596 -0.6214  0.2777 -0.5217
 7231SOL    HW223562   4.628   5.839   8.722  0.5851  0.7765  0.3416
 7232SOL     OW23563   3.993   3.501   6.602 -0.4975 -0.2701  0.2371
 7232SOL    HW123564   4.058   3.517   6.670 -0.3547 -0.5907  0.1801
 7232SOL    HW223565   4.018   3.417   6.565  1.2470  1.2750 -2.3351
 7233SOL     OW23566   2.483   7.034   3.848  0.1339 -0.8824 -0.3022
 7233SOL    HW123567   2.559   7.073   3.892  0.3275 -0.7143 -0.7829
 7233SOL    HW223568   2.513   6.949   3.818  0.3428 -0.5421 -1.0834
 7234SOL     OW23569   4.624   3.625   8.606  0.1166 -0.3626  0.2476
 7234SOL    HW123570   4.678   3.703   8.597  0.8826 -0.8676  0.3447
 7234SOL    HW223571   4.674   3.556   8.562 -0.3481 -0.8892  0.5302
 7235SOL     OW23572   2.937   3.442   5.240  0.8036 -0.1085  0.1246
 7235SOL    HW123573   2.844   3.448   5.218  0.7793  0.4612  0.3529
 7235SOL    HW223574   2.942   3.375   5.308  0.6758 -0.7595 -0.5011
 7236SOL     OW23575   1.597   2.033   3.372 -0.0087 -0.0240 -0.3073
 7236SOL    HW123576   1.585   2.016   3.279  0.2641  1.2693 -0.5990
 7236SOL    HW223577   1.687   2.062   3.380 -0.5018  1.4911  0.0896
 7237SOL     OW23578   7.463   1.329   6.325  0.1518  0.2428  0.4449
 7237SOL    HW123579   7.483   1.249   6.372  1.3242  1.1890  1.6104
 7237SOL    HW223580   7.455   1.396   6.393 -0.6741  1.1541 -0.5106
 7238SOL     OW23581   6.815   1.374   0.411  0.2907 -0.6366  0.1157
 7238SOL    HW123582   6.881   1.356   0.478 -0.7903  1.2616  1.7920
 7238SOL    HW223583   6.832   1.309   0.343  3.1524 -0.9365  0.9748
 7239SOL     OW23584   6.219   1.142   8.457  0.1475  0.2547 -0.0614
 7239SOL    HW123585   6.265   1.064   8.425  2.0004  0.6132  1.5503
 7239SOL    HW223586   6.281   1.214   8.441 -0.1492  0.8773  1.4947
 7240SOL     OW23587   8.391   2.522   4.956 -0.9357 -0.8841 -0.5500
 7240SOL    HW123588   8.319   2.519   4.893 -0.2718 -2.1990 -1.2825
 7240SOL    HW223589   8.410   2.431   4.976  1.5688 -0.6850 -1.5930
 7241SOL     OW23590   2.189   8.302   1.187  0.2518  0.6071  0.1689
 7241SOL    HW123591   2.243   8.258   1.253  1.0872 -1.1454 -1.5983
 7241SOL    HW223592   2.108   8.251   1.184 -0.2855  1.3961  0.6194
 7242SOL     OW23593   5.598   7.841   1.483  0.0616 -0.2339 -0.1851
 7242SOL    HW123594   5.645   7.903   1.539 -1.3001 -1.2238  2.2481
 7242SOL    HW223595   5.657   7.766   1.476 -0.1133 -0.4752  0.7701
 7243SOL     OW23596   6.023   8.134   4.303 -0.2326 -0.2428 -0.3293
 7243SOL    HW123597   5.986   8.055   4.342 -2.1700  1.4594  1.6285
 7243SOL    HW223598   6.087   8.165   4.367 -1.1811  0.9365  0.1103
 7244SOL     OW23599   1.424   8.510   4.842  0.2562  0.7232 -0.0474
 7244SOL    HW123600   1.360   8.464   4.788  0.2050  1.5463 -0.7013
 7244SOL    HW223601   1.378   8.588   4.873  0.3660  0.3950  0.9974
 7245SOL     OW23602   6.885   6.143   0.240  0.0130  0.6250 -0.2039
 7245SOL    HW123603   6.886   6.218   0.300 -0.5430  0.8040 -0.4166
 7245SOL    HW223604   6.977   6.134   0.213  0.6431 -0.5705  2.0313
 7246SOL     OW23605   8.091   6.061   8.422  0.2685  0.1225  0.3456
 7246SOL    HW123606   8.073   6.155   8.419  0.4243  0.1776  1.0469
 7246SOL    HW223607   8.005   6.021   8.439  0.3394  0.1928  0.8657
 7247SOL     OW23608   2.985   7.886   8.048 -0.4285 -0.1990 -0.6686
 7247SOL    HW123609   3.023   7.800   8.067 -0.8518 -0.3243 -0.3733
 7247SOL    HW223610   3.001   7.900   7.955  0.8241 -0.0097 -0.4536
 7248SOL     OW23611   4.665   3.020   4.253  0.2297 -0.3545 -0.7709
 7248SOL    HW123612   4.743   3.022   4.308  0.4618 -0.2302 -1.1013
 7248SOL    HW223613   4.596   2.987   4.311  0.4165 -0.0062 -0.3428
 7249SOL     OW23614   8.166   7.668   2.611 -0.0695  0.1357 -0.3388
 7249SOL    HW123615   8.140   7.710   2.693 -2.0176 -1.7443  0.1162
 7249SOL    HW223616   8.182   7.740   2.550  0.3903  1.5427  1.3825
 7250SOL     OW23617   6.097   5.461   8.820 -0.2644 -0.4401 -0.0369
 7250SOL    HW123618   6.107   5.370   8.847 -1.0180 -0.1678  1.2995
 7250SOL    HW223619   6.002   5.472   8.808 -0.3042  0.4264  0.9010
 7251SOL     OW23620   6.893   6.181   1.740  0.2776  0.6030 -0.7061
 7251SOL    HW123621   6.889   6.266   1.785  0.7921  0.5085 -0.4714
 7251SOL    HW223622   6.962   6.191   1.675  1.0249  0.0713 -0.0248
 7252SOL     OW23623   4.101   8.195   1.318 -0.2880 -0.1028 -0.6809
 7252SOL    HW123624   4.175   8.186   1.258  0.2408 -0.4349  0.0057
 7252SOL    HW223625   4.140   8.191   1.406 -1.3823 -3.4826 -0.1897
 7253SOL     OW23626   2.304   6.650   6.174  0.5675  0.5424 -0.1052
 7253SOL    HW123627   2.265   6.620   6.091 -0.2081  0.0394  0.4238
 7253SOL    HW223628   2.260   6.597   6.241  1.2498  0.8821  0.6212
 7254SOL     OW23629   2.453   2.933   0.922  0.3805 -0.0930 -0.6462
 7254SOL    HW123630   2.439   2.858   0.980  0.8221  0.1794 -0.1730
 7254SOL    HW223631   2.367   2.952   0.885  0.3834 -1.2354 -1.2767
 7255SOL     OW23632   7.865   3.669   8.153  0.1421  0.0505 -0.1534
 7255SOL    HW123633   7.794   3.609   8.132  0.5935 -0.3043 -0.7030
 7255SOL    HW223634   7.842   3.704   8.239 -0.6633 -0.0985 -0.2993
 7256SOL     OW23635   1.055   6.412   8.215  0.1541 -0.2131 -0.3566
 7256SOL    HW123636   1.007   6.436   8.294  2.2526 -1.3842  1.3779
 7256SOL    HW223637   0.988   6.404   8.147 -2.0729 -1.6289  1.8786
 7257SOL     OW23638   2.431   2.908   1.643  0.4308 -0.1391 -0.3017
 7257SOL    HW123639   2.342   2.873   1.655 -0.0881  1.8440  2.9404
 7257SOL    HW223640   2.422   2.970   1.571 -0.7968 -0.1921 -0.2250
 7258SOL     OW23641   0.582   5.141   3.518  0.3333  0.3124 -0.0467
 7258SOL    HW123642   0.526   5.192   3.459 -1.0145  2.4824  2.8571
 7258SOL    HW223643   0.667   5.139   3.474 -0.8329  0.8209 -2.5225
 7259SOL     OW23644   7.093   3.422   4.755  0.2282 -0.0013 -0.0763
 7259SOL    HW123645   7.019   3.482   4.766  0.8568  0.2593  4.3473
 7259SOL    HW223646   7.170   3.476   4.767  1.0562 -0.9026 -1.0842
 7260SOL     OW23647   5.093   8.581   0.244  0.0649  0.0579 -0.7203
 7260SOL    HW123648   5.069   8.616   0.329 -0.4672  1.0658 -1.2689
 7260SOL    HW223649   5.155   8.510   0.263 -0.3540  0.0098  0.5073
 7261SOL     OW23650   7.933   4.430   4.120 -0.5670 -0.0375 -0.1722
 7261SOL    HW123651   7.965   4.395   4.203  0.4648 -0.4181 -0.7195
 7261SOL    HW223652   7.974   4.516   4.112  1.5526 -1.0772 -1.5276
 7262SOL     OW23653   0.874   2.573   4.586  0.1151 -0.2833 -0.3696
 7262SOL    HW123654   0.862   2.603   4.676  0.1077 -0.7691 -0.2085
 7262SOL    HW223655   0.912   2.486   4.594  1.5080  0.2571 -0.8502
 7263SOL     OW23656   7.878   6.781   7.789  0.7730 -0.4317  0.2914
 7263SOL    HW123657   7.949   6.834   7.752 -1.3906  2.6843  0.2669
 7263SOL    HW223658   7.911   6.752   7.874  2.4614 -0.1096 -0.2109
 7264SOL     OW23659   1.356   1.378   0.968  0.3001  0.3884 -0.1521
 7264SOL    HW123660   1.271   1.372   0.926 -0.3652  1.2083  1.0024
 7264SOL    HW223661   1.353   1.312   1.037  0.8705 -0.0513 -0.5423
 7265SOL     OW23662   2.181   3.860   2.343 -0.5496  0.3882  0.3425
 7265SOL    HW123663   2.210   3.951   2.343 -0.2998  0.3230  1.5730
 7265SOL    HW223664   2.160   3.842   2.251 -0.8182  1.7430  0.1140
 7266SOL     OW23665   2.401   3.939   4.869 -0.1193  0.7225  0.2646
 7266SOL    HW123666   2.341   3.999   4.914 -1.6085 -0.8472  0.4509
 7266SOL    HW223667   2.435   3.883   4.939  0.0927  0.3627 -0.1261
 7267SOL     OW23668   2.620   1.256   0.555  0.0168  0.3209 -0.3821
 7267SOL    HW123669   2.642   1.288   0.467 -0.8744 -0.1589 -0.7986
 7267SOL    HW223670   2.664   1.316   0.615  2.1999 -0.4313 -1.1552
 7268SOL     OW23671   0.624   1.846   5.590  0.1052 -0.2376  0.1081
 7268SOL    HW123672   0.694   1.856   5.655  0.8464  0.4197 -0.7661
 7268SOL    HW223673   0.573   1.771   5.621 -0.8052  1.2671  2.5619
 7269SOL     OW23674   5.863   6.039   3.728  0.2553 -0.1528 -0.0502
 7269SOL    HW123675   5.877   6.093   3.805  2.2631  0.5484 -0.8399
 7269SOL    HW223676   5.948   5.999   3.711 -0.5870 -1.7026 -0.8964
 7270SOL     OW23677   8.756   1.232   7.898 -0.0185 -0.6768  0.4986
 7270SOL    HW123678   8.782   1.179   7.822  2.0222 -0.7069  1.1422
 7270SOL    HW223679   8.800   1.189   7.972  0.7870  1.2523  1.1958
 7271SOL     OW23680   8.057   0.745   8.823  0.2319 -0.3901 -0.3030
 7271SOL    HW123681   8.087   0.734   8.733  2.4734  0.3734  0.2660
 7271SOL    HW223682   8.016   0.832   8.825  3.7038  1.4194  0.1249
 7272SOL     OW23683   5.289   1.894   6.006  0.5882 -0.2187  0.4323
 7272SOL    HW123684   5.239   1.881   5.925  0.2563 -0.6375  0.6972
 7272SOL    HW223685   5.322   1.807   6.028  0.6364 -0.1147  0.7741
 7273SOL     OW23686   8.035   4.296   4.333  0.1737 -0.1187  0.2153
 7273SOL    HW123687   7.963   4.328   4.387 -0.0256  0.7756 -0.5635
 7273SOL    HW223688   8.108   4.287   4.394 -0.0644  0.8270  0.6635
 7274SOL     OW23689   6.893   3.333   8.060  0.4421 -0.6367 -0.1207
 7274SOL    HW123690   6.950   3.403   8.027  1.3067 -0.9057  0.7545
 7274SOL    HW223691   6.875   3.279   7.983  2.0384 -0.9874 -0.2822
 7275SOL     OW23692   5.266   5.900   5.832  0.4754 -0.8801  0.5606
 7275SOL    HW123693   5.251   5.817   5.787  1.4174 -0.8906  0.2310
 7275SOL    HW223694   5.323   5.949   5.772  0.4711 -0.2708  1.0523
 7276SOL     OW23695   7.750   6.536   3.789 -0.6886 -0.4440  0.2231
 7276SOL    HW123696   7.799   6.510   3.711  0.0345 -0.8626  0.8071
 7276SOL    HW223697   7.777   6.474   3.856 -0.0847  0.8939  1.2551
 7277SOL     OW23698   1.224   0.133   5.503  0.0341 -0.2370 -0.0394
 7277SOL    HW123699   1.248   0.100   5.416 -0.8208 -0.4186 -0.2178
 7277SOL    HW223700   1.155   0.073   5.533 -1.3867  1.2005 -0.2657
 7278SOL     OW23701   7.940   7.764   3.798 -0.0894 -0.8349  0.1007
 7278SOL    HW123702   7.974   7.823   3.865 -0.8243  0.4573 -0.6036
 7278SOL    HW223703   7.868   7.718   3.841  0.8356 -1.6603  0.8197
 7279SOL     OW23704   6.910   7.339   5.476 -0.0347  0.3367 -0.3011
 7279SOL    HW123705   6.951   7.264   5.432 -1.0375  0.1368 -0.9490
 7279SOL    HW223706   6.954   7.415   5.440  0.4055  0.0894 -0.2874
 7280SOL     OW23707   4.381   5.981   2.586 -0.1543  0.2222  0.3836
 7280SOL    HW123708   4.298   6.025   2.606 -0.2850 -0.2034  0.7883
 7280SOL    HW223709   4.448   6.048   2.599 -0.4531  0.6568 -0.2410
 7281SOL     OW23710   8.334   1.560   4.272 -0.0461 -0.2330 -0.2400
 7281SOL    HW123711   8.308   1.493   4.334  3.0000 -1.9388 -0.5884
 7281SOL    HW223712   8.361   1.634   4.326 -2.5232  0.4611  0.1749
 7282SOL     OW23713   7.168   1.418   8.122 -0.1607 -0.7980  0.2072
 7282SOL    HW123714   7.186   1.372   8.039  0.4643  2.0931 -1.3916
 7282SOL    HW223715   7.254   1.430   8.162 -0.2944 -0.7853  0.4935
 7283SOL     OW23716   3.244   8.088   2.743  0.7737 -0.1796  0.2251
 7283SOL    HW123717   3.189   8.142   2.685 -0.7235 -0.7450  1.0545
 7283SOL    HW223718   3.327   8.135   2.747  0.5055  0.5102 -1.3969
 7284SOL     OW23719   1.887   6.692   2.339 -0.3621  0.1541 -0.3226
 7284SOL    HW123720   1.961   6.634   2.354 -0.2544  0.4690  0.4209
 7284SOL    HW223721   1.925   6.779   2.332 -0.5476  0.1717 -1.1711
 7285SOL     OW23722   6.117   7.149   7.640 -0.1700  0.2532 -0.0495
 7285SOL    HW123723   6.058   7.162   7.714  1.3333 -0.7420  1.3772
 7285SOL    HW223724   6.070   7.087   7.583 -0.7485 -0.0613  0.7525
 7286SOL     OW23725   8.722   7.646   4.589 -0.0763 -0.5045 -0.2641
 7286SOL    HW123726   8.756   7.602   4.668 -0.6410 -0.1120  0.2088
 7286SOL    HW223727   8.641   7.688   4.619 -0.4742 -0.6385 -1.1433
 7287SOL     OW23728   5.716   2.821   2.060 -0.0486  0.0493  0.0535
 7287SOL    HW123729   5.649   2.768   2.016  0.7512 -2.2523  1.4699
 7287SOL    HW223730   5.767   2.859   1.988  0.0565 -2.0459 -1.0469
 7288SOL     OW23731   7.072   7.196   4.634 -0.2149  0.2634  0.3224
 7288SOL    HW123732   7.137   7.130   4.656 -0.8257 -0.3871  0.1995
 7288SOL    HW223733   7.122   7.278   4.633  0.3868 -0.0623  1.3029
 7289SOL     OW23734   0.238   0.778   5.222 -0.6728 -0.1800 -0.2161
 7289SOL    HW123735   0.263   0.799   5.132  0.3663 -1.3663 -0.2380
 7289SOL    HW223736   0.289   0.699   5.243 -0.8165  0.1318  1.4452
 7290SOL     OW23737   3.058   2.740   8.580 -0.5254  0.2185 -0.2734
 7290SOL    HW123738   3.084   2.657   8.540 -1.5071  0.4456 -1.4533
 7290SOL    HW223739   3.120   2.804   8.544 -0.5792  0.2035 -0.3941
 7291SOL     OW23740   7.837   0.660   6.228  0.3263 -0.6853 -0.2392
 7291SOL    HW123741   7.842   0.730   6.164 -1.7898 -0.2589 -0.0320
 7291SOL    HW223742   7.878   0.585   6.186  0.6392  0.0923 -1.3439
 7292SOL     OW23743   8.747   4.261   4.464 -0.0706 -0.4851 -0.3567
 7292SOL    HW123744   8.717   4.214   4.386  0.1905 -1.4876  0.1310
 7292SOL    HW223745   8.727   4.353   4.446 -2.6154 -0.9796 -0.4204
 7293SOL     OW23746   2.751   7.398   5.481  0.3378  0.4520  0.5307
 7293SOL    HW123747   2.712   7.425   5.398 -0.5914 -0.3777  0.6664
 7293SOL    HW223748   2.751   7.302   5.477  3.1773  0.3850  0.1964
 7294SOL     OW23749   4.762   6.837   3.605 -0.1433 -0.4036  0.1008
 7294SOL    HW123750   4.704   6.913   3.597  0.1243  0.2427  2.9851
 7294SOL    HW223751   4.705   6.761   3.599 -1.0501  0.1732  1.1553
 7295SOL     OW23752   7.486   4.777   2.120 -0.0185 -0.0466 -0.5920
 7295SOL    HW123753   7.465   4.756   2.211 -0.3866  1.3707 -0.3262
 7295SOL    HW223754   7.581   4.766   2.114 -0.1100 -1.0890 -0.3100
 7296SOL     OW23755   0.546   5.162   0.038 -0.9216  0.2601 -0.2732
 7296SOL    HW123756   0.469   5.198   0.082 -0.8947  0.8547 -0.6985
 7296SOL    HW223757   0.525   5.169  -0.055 -1.4487 -2.0021 -0.3758
 7297SOL     OW23758   2.391   6.195   1.634 -0.2013 -0.1147  0.1942
 7297SOL    HW123759   2.465   6.187   1.695  0.9497 -0.4159 -1.1746
 7297SOL    HW223760   2.371   6.289   1.633  0.0934 -0.0438  0.6653
 7298SOL     OW23761   7.066   0.948   7.598 -0.2653 -0.2994  0.3981
 7298SOL    HW123762   6.993   1.002   7.568 -0.8656 -1.0594  0.4575
 7298SOL    HW223763   7.142   1.005   7.592 -0.5196 -0.1201 -1.6262
 7299SOL     OW23764   4.083   5.009   4.435 -0.7786 -0.0786  0.1772
 7299SOL    HW123765   4.133   5.037   4.358  1.0172 -2.5807  0.3260
 7299SOL    HW223766   3.994   4.994   4.401 -0.5769  0.9212 -0.8830
 7300SOL     OW23767   6.817   8.167   4.093 -0.7071  0.0634  0.3078
 7300SOL    HW123768   6.782   8.119   4.168  0.0714  0.6821  1.0980
 7300SOL    HW223769   6.802   8.110   4.018 -1.5493 -0.5505  0.9294
 7301SOL     OW23770   7.495   8.396   1.057 -0.1218  0.0624  0.3991
 7301SOL    HW123771   7.554   8.471   1.052 -2.3856  1.8981 -3.0269
 7301SOL    HW223772   7.524   8.339   0.985 -1.2196 -0.0387  0.0273
 7302SOL     OW23773   4.682   0.522   4.654 -0.7060  0.4114  0.1486
 7302SOL    HW123774   4.645   0.482   4.733 -1.4493  0.3433 -0.2271
 7302SOL    HW223775   4.686   0.451   4.590  0.5369  0.3007  0.3184
 7303SOL     OW23776   3.653   6.498   3.456 -0.5086  0.2932  0.1177
 7303SOL    HW123777   3.620   6.582   3.425 -2.3659  0.2746  1.8126
 7303SOL    HW223778   3.576   6.440   3.455 -0.5274  0.0553  3.6452
 7304SOL     OW23779   5.325   5.433   1.682 -0.5943  0.0475  0.2596
 7304SOL    HW123780   5.379   5.383   1.621 -0.8721 -0.2230  0.2348
 7304SOL    HW223781   5.342   5.394   1.767  1.2175  1.6044  0.6660
 7305SOL     OW23782   0.029   3.543   0.619 -0.2112  0.5939  0.1882
 7305SOL    HW123783   0.091   3.605   0.581  0.0844  0.3709  0.3017
 7305SOL    HW223784   0.058   3.457   0.588 -1.1411  0.5707 -0.6993
 7306SOL     OW23785   1.143   5.916   3.005  0.0621  0.4709 -0.1840
 7306SOL    HW123786   1.067   5.858   3.004 -0.3471  0.8954  1.8504
 7306SOL    HW223787   1.218   5.856   3.014 -0.0125  0.0754 -1.8477
 7307SOL     OW23788   4.965   8.620   8.676  0.1879  0.1336  0.5042
 7307SOL    HW123789   4.878   8.627   8.637 -0.1613  2.2027  1.5384
 7307SOL    HW223790   4.952   8.568   8.755  0.1047 -0.4004  0.1496
 7308SOL     OW23791   0.254   4.015   3.908  0.0243 -0.6640 -0.2140
 7308SOL    HW123792   0.274   4.089   3.851  3.6776 -0.2148  1.3852
 7308SOL    HW223793   0.200   4.051   3.977 -1.4899 -0.4403 -1.4649
 7309SOL     OW23794   5.795   1.047   5.197 -0.2496  0.3270 -0.6003
 7309SOL    HW123795   5.817   0.968   5.146 -0.3939  0.0476 -0.2371
 7309SOL    HW223796   5.761   1.108   5.133 -0.8398 -0.1790 -0.7837
 7310SOL     OW23797   3.978   5.016   5.749 -0.3528  0.8427  0.0455
 7310SOL    HW123798   4.018   5.098   5.780 -1.9907  1.3308  0.9792
 7310SOL    HW223799   3.933   4.980   5.825 -0.0788 -0.6994 -0.4846
 7311SOL     OW23800   2.696   5.494   4.225  0.1735 -0.3266 -0.1728
 7311SOL    HW123801   2.723   5.488   4.316  2.2737  1.1711 -0.6297
 7311SOL    HW223802   2.740   5.421   4.182  1.3658  0.5256 -0.4336
 7312SOL     OW23803   2.022   3.157   2.868 -0.5084  0.2961  0.0197
 7312SOL    HW123804   2.019   3.221   2.938 -0.2066  0.7505 -0.3690
 7312SOL    HW223805   2.065   3.081   2.906 -1.1491  0.2129  0.5721
 7313SOL     OW23806   6.248   4.095   2.776 -0.0025 -0.6558 -0.2892
 7313SOL    HW123807   6.308   4.108   2.850  0.2272  0.5862 -0.6702
 7313SOL    HW223808   6.252   4.177   2.727 -0.4418 -1.3277 -1.4858
 7314SOL     OW23809   1.426   3.440   7.365  0.9038  0.3135  0.3690
 7314SOL    HW123810   1.461   3.388   7.292 -1.3173  1.0205 -1.3319
 7314SOL    HW223811   1.349   3.391   7.394  0.2403  1.3571  0.4265
 7315SOL     OW23812   6.855   4.057   8.329 -0.4556  0.7207 -0.3779
 7315SOL    HW123813   6.872   4.037   8.237  0.0412 -1.2759  0.0919
 7315SOL    HW223814   6.801   3.984   8.360  0.5555  0.6127  1.2469
 7316SOL     OW23815   5.475   3.338   0.122  0.6258  0.1923 -0.0761
 7316SOL    HW123816   5.563   3.301   0.115  0.4975  0.0092 -0.8031
 7316SOL    HW223817   5.448   3.353   0.032  0.3911  1.3963  0.1704
 7317SOL     OW23818   0.603   8.881   1.109  0.1397  0.2377 -0.0111
 7317SOL    HW123819   0.646   8.817   1.165 -0.3336  0.2831  0.4054
 7317SOL    HW223820   0.509   8.864   1.120  0.0012 -1.6368 -2.9058
 7318SOL     OW23821   7.124   6.275   1.471 -0.1118  0.5841  0.6692
 7318SOL    HW123822   7.087   6.363   1.474  2.7178  1.8817  2.4972
 7318SOL    HW223823   7.207   6.285   1.424 -0.6480 -1.5776 -0.8796
 7319SOL     OW23824   2.671   6.906   8.339  0.1341  0.0293 -0.5527
 7319SOL    HW123825   2.684   7.000   8.347 -1.9572  0.5044 -1.9034
 7319SOL    HW223826   2.643   6.894   8.248 -1.1951 -1.6839  0.0432
 7320SOL     OW23827   8.743   8.999   1.705  0.3901 -0.2011 -0.4979
 7320SOL    HW123828   8.654   8.965   1.695 -0.6566  2.2462 -0.1522
 7320SOL    HW223829   8.794   8.954   1.637 -0.9773 -1.9496 -0.4407
 7321SOL     OW23830   8.608   0.128   4.966  0.1681 -0.0374 -0.0425
 7321SOL    HW123831   8.552   0.095   5.035  0.2080  1.3059  0.6707
 7321SOL    HW223832   8.697   0.124   5.003  0.3166 -0.3459 -0.4300
 7322SOL     OW23833   5.939   1.393   8.450 -0.2795 -0.1799 -0.5120
 7322SOL    HW123834   6.021   1.437   8.470  0.2728 -1.8369  1.1832
 7322SOL    HW223835   5.876   1.429   8.513  0.0424 -1.3704  0.5214
 7323SOL     OW23836   7.043   0.849   5.532  0.4474 -0.2065  0.0422
 7323SOL    HW123837   7.123   0.796   5.534 -0.2949 -1.8198 -3.8617
 7323SOL    HW223838   6.975   0.791   5.566  0.1537 -0.7881 -1.4396
 7324SOL     OW23839   8.030   5.823   6.568 -0.2539 -0.2234  0.3245
 7324SOL    HW123840   7.964   5.755   6.585  1.5925 -2.3755 -0.5110
 7324SOL    HW223841   8.039   5.824   6.472  0.0440  0.9507  0.3492
 7325SOL     OW23842   2.243   2.666   2.071 -0.4514  0.0999 -0.1389
 7325SOL    HW123843   2.185   2.736   2.041 -1.0561 -0.4091 -0.1885
 7325SOL    HW223844   2.331   2.703   2.064 -0.8044  1.1298  0.6053
 7326SOL     OW23845   0.437   1.181   6.101  0.1528  0.2845 -0.3575
 7326SOL    HW123846   0.409   1.268   6.072  1.5257  0.6218 -0.7539
 7326SOL    HW223847   0.429   1.126   6.024 -0.4541  0.1158 -0.1788
 7327SOL     OW23848   4.385   0.757   6.515 -0.4901  0.0290  0.4728
 7327SOL    HW123849   4.360   0.782   6.426 -0.9666 -0.4685  0.4653
 7327SOL    HW223850   4.420   0.668   6.506  2.4044  1.0562  0.2860
 7328SOL     OW23851   5.848   6.696   3.418  0.6945  0.3800 -0.0151
 7328SOL    HW123852   5.882   6.784   3.404  1.3705 -0.0115 -0.9621
 7328SOL    HW223853   5.756   6.709   3.440  1.0655  1.3760  1.0308
 7329SOL     OW23854   0.279   2.192   3.060 -0.3349  0.5450  0.1635
 7329SOL    HW123855   0.252   2.278   3.028 -0.0718  0.8086  0.6448
 7329SOL    HW223856   0.368   2.204   3.092 -0.3801  0.1524  0.4521
 7330SOL     OW23857   1.486   7.418   7.637  0.2463  0.1675  0.0450
 7330SOL    HW123858   1.568   7.467   7.626  1.1987 -1.2788  0.4808
 7330SOL    HW223859   1.509   7.327   7.620 -1.2560 -0.2983  0.3157
 7331SOL     OW23860   4.005   3.623   2.745  0.5280  0.5103 -0.3198
 7331SOL    HW123861   4.084   3.671   2.719  0.6560 -0.1491 -1.1730
 7331SOL    HW223862   4.019   3.534   2.713 -0.3101  0.2373  0.0457
 7332SOL     OW23863   3.948   6.511   2.082 -0.1087 -0.3924  0.0080
 7332SOL    HW123864   3.964   6.570   2.009 -2.6287  0.3901 -0.0366
 7332SOL    HW223865   4.014   6.534   2.147  0.3475  0.9423 -0.8867
 7333SOL     OW23866   2.217   0.456   7.573  0.2307  1.0250 -0.0197
 7333SOL    HW123867   2.304   0.435   7.539 -1.0817 -0.9318 -2.5528
 7333SOL    HW223868   2.172   0.497   7.498 -1.4029  0.8389  0.8218
 7334SOL     OW23869   6.054   0.848   5.963  0.7144  0.4257  0.2109
 7334SOL    HW123870   6.066   0.910   5.891  0.1583 -0.8388 -1.0063
 7334SOL    HW223871   6.115   0.777   5.944 -0.9247 -0.9330 -0.1943
 7335SOL     OW23872   4.045   7.280   8.811  0.9149  0.2042  0.1765
 7335SOL    HW123873   4.079   7.256   8.897  0.7805 -0.4930  0.0463
 7335SOL    HW223874   3.968   7.223   8.800  1.7518 -0.7283 -0.9932
 7336SOL     OW23875   6.613   4.977   1.881  0.2804  0.6981  0.0860
 7336SOL    HW123876   6.602   4.885   1.905  0.4396  0.9095  1.0376
 7336SOL    HW223877   6.558   4.989   1.804  0.9230 -0.3989 -0.5773
 7337SOL     OW23878   4.229   4.314   4.659  0.0703 -0.0730  0.5010
 7337SOL    HW123879   4.218   4.313   4.564  1.5459  1.5695  0.2388
 7337SOL    HW223880   4.220   4.407   4.683 -0.9851 -0.5387  2.0811
 7338SOL     OW23881   0.896   0.971   5.286  0.0127  0.1132  0.1216
 7338SOL    HW123882   0.856   0.920   5.356 -0.8423 -1.5274 -1.4724
 7338SOL    HW223883   0.823   1.012   5.241  0.4659  0.4339 -0.3392
 7339SOL     OW23884   5.016   3.379   5.737  0.0286 -0.1891 -0.5848
 7339SOL    HW123885   5.003   3.292   5.774  0.1543  0.2176  0.4437
 7339SOL    HW223886   4.956   3.383   5.662 -2.4489  0.0069  1.2851
 7340SOL     OW23887   3.959   1.471   3.580 -0.2181 -0.7817  0.2438
 7340SOL    HW123888   3.912   1.424   3.512 -1.8859  1.7921 -0.5304
 7340SOL    HW223889   4.050   1.471   3.550 -0.6050 -1.3282 -1.0088
 7341SOL     OW23890   2.554   4.661   4.973 -0.1467  0.6438  0.1154
 7341SOL    HW123891   2.633   4.611   4.991 -0.1676  0.1185 -1.1337
 7341SOL    HW223892   2.574   4.708   4.892 -1.5176 -0.4605 -0.9144
 7342SOL     OW23893   6.592   7.588   5.831 -0.4839 -0.8375 -0.0902
 7342SOL    HW123894   6.648   7.515   5.858 -0.7079 -1.4751 -1.2858
 7342SOL    HW223895   6.514   7.545   5.796  0.0067 -0.0839 -2.2284
 7343SOL     OW23896   8.365   1.998   0.629 -0.0632 -0.0385  0.1096
 7343SOL    HW123897   8.272   2.019   0.631 -0.1066 -0.1559 -0.4036
 7343SOL    HW223898   8.405   2.059   0.691 -0.5510 -0.3732  0.7598
 7344SOL     OW23899   2.345   3.354   5.806 -0.2061  0.1219  0.3878
 7344SOL    HW123900   2.418   3.415   5.801 -0.9786  1.0748  0.5118
 7344SOL    HW223901   2.378   3.274   5.765  0.3284  1.1097 -1.1932
 7345SOL     OW23902   5.297   6.608   7.434 -0.2610 -0.1593 -0.4858
 7345SOL    HW123903   5.381   6.565   7.421 -0.0902 -0.2810  0.8443
 7345SOL    HW223904   5.272   6.585   7.523 -1.9532 -0.5280 -1.0179
 7346SOL     OW23905   5.494   5.924   1.175 -0.3422  0.5113  0.4275
 7346SOL    HW123906   5.531   5.855   1.120  1.4240  1.4338  0.3914
 7346SOL    HW223907   5.416   5.884   1.215 -1.3493 -0.3827 -2.2263
 7347SOL     OW23908   8.664   3.052   8.980 -0.0006  0.4314  0.2278
 7347SOL    HW123909   8.645   3.083   8.891  1.1778  2.4463  0.6313
 7347SOL    HW223910   8.709   3.125   9.022  0.3472 -0.8440  2.1892
 7348SOL     OW23911   5.913   5.247   0.715 -0.3622  0.5443 -0.2794
 7348SOL    HW123912   5.966   5.167   0.709 -1.9760 -0.6644  0.8644
 7348SOL    HW223913   5.848   5.238   0.646  0.2642  1.5524 -1.0310
 7349SOL     OW23914   4.548   7.700   6.426 -0.7405  0.5422 -0.4740
 7349SOL    HW123915   4.559   7.795   6.435  0.6142  0.3877 -0.3096
 7349SOL    HW223916   4.632   7.664   6.454 -2.0481 -0.8564  2.0849
 7350SOL     OW23917   5.093   3.723   2.479  0.0333 -0.0992 -0.2401
 7350SOL    HW123918   5.043   3.659   2.530  1.3545 -1.4572 -0.5703
 7350SOL    HW223919   5.026   3.774   2.433 -1.0977 -0.4250  0.9765
 7351SOL     OW23920   6.926   7.029   7.463 -0.4354 -0.0604 -0.0283
 7351SOL    HW123921   6.940   7.061   7.553  4.1183  0.8567 -0.8146
 7351SOL    HW223922   6.954   7.101   7.407 -3.2478 -0.5717 -2.3521
 7352SOL     OW23923   2.387   2.247   4.729  0.0236  0.2425 -0.3486
 7352SOL    HW123924   2.459   2.186   4.713  1.1249  1.8418 -1.7848
 7352SOL    HW223925   2.319   2.193   4.771  1.5014 -1.6101 -0.1968
 7353SOL     OW23926   6.665   8.759   4.167  0.6437 -0.3301  0.5170
 7353SOL    HW123927   6.581   8.718   4.148 -0.1571  1.5911 -0.3573
 7353SOL    HW223928   6.729   8.703   4.123 -0.2023 -1.5657  0.7930
 7354SOL     OW23929   7.944   2.423   5.813  0.4307  0.2514  0.3042
 7354SOL    HW123930   7.867   2.477   5.796  0.0516 -0.3280  0.1447
 7354SOL    HW223931   7.987   2.415   5.728 -1.4468 -2.6164 -0.5147
 7355SOL     OW23932   4.697   0.792   3.216  0.3389  0.1267 -0.2334
 7355SOL    HW123933   4.783   0.752   3.230 -1.1928 -2.2761  4.8051
 7355SOL    HW223934   4.648   0.727   3.166  0.4956 -0.0905 -0.1102
 7356SOL     OW23935   4.711   7.960   6.891 -0.4498  0.4501  0.5434
 7356SOL    HW123936   4.700   7.912   6.973 -0.0853  0.4146  0.5726
 7356SOL    HW223937   4.634   8.016   6.886 -0.9517 -0.2235  0.4474
 7357SOL     OW23938   1.768   5.810   1.578  0.9835 -0.2415 -0.1922
 7357SOL    HW123939   1.755   5.715   1.581 -0.6675 -0.0679 -0.6493
 7357SOL    HW223940   1.701   5.845   1.637  0.2747  0.7162 -1.5166
 7358SOL     OW23941   4.157   0.840   2.423  0.4543  0.1093 -0.3167
 7358SOL    HW123942   4.111   0.880   2.496  1.9378 -2.7164  2.3689
 7358SOL    HW223943   4.241   0.886   2.419  1.1849 -1.0122  1.1824
 7359SOL     OW23944   8.320   1.233   4.887 -0.1766  0.3311  0.2662
 7359SOL    HW123945   8.384   1.296   4.854  0.9587 -0.4653  0.8775
 7359SOL    HW223946   8.302   1.175   4.813 -1.1348  1.2887 -0.2628
 7360SOL     OW23947   4.341   0.206   7.774  0.3922 -0.2913 -0.1446
 7360SOL    HW123948   4.403   0.279   7.772  0.0451  0.1605  2.2736
 7360SOL    HW223949   4.334   0.184   7.867 -3.3700 -0.0185 -0.2205
 7361SOL     OW23950   8.620   0.262   1.936 -0.0097 -0.1960  0.1009
 7361SOL    HW123951   8.608   0.234   1.845 -1.1876 -1.0050  0.4810
 7361SOL    HW223952   8.660   0.187   1.980 -0.2246 -0.1169  0.4335
 7362SOL     OW23953   7.735   7.820   2.300  0.3103  0.0313  0.5767
 7362SOL    HW123954   7.759   7.911   2.315  0.3966  0.3594 -1.2548
 7362SOL    HW223955   7.641   7.823   2.282  0.9216  0.4915 -3.6629
 7363SOL     OW23956   4.130   3.968   2.545  0.3481  0.1842 -0.0817
 7363SOL    HW123957   4.174   3.885   2.564  0.6532  0.1727 -0.7730
 7363SOL    HW223958   4.199   4.034   2.551  0.3513  0.2387 -0.6133
 7364SOL     OW23959   1.382   1.744   2.472 -0.3146 -0.3686  0.1655
 7364SOL    HW123960   1.465   1.764   2.429 -0.0886 -1.5346  0.0252
 7364SOL    HW223961   1.316   1.763   2.406 -0.0825 -0.4352 -0.0901
 7365SOL     OW23962   1.288   5.606   2.866 -0.8092  0.2580  0.1118
 7365SOL    HW123963   1.344   5.674   2.830  1.0722 -1.2058  0.0738
 7365SOL    HW223964   1.228   5.584   2.795 -0.3731  0.7645 -0.4230
 7366SOL     OW23965   3.733   4.305   1.632  0.0205 -0.0166  0.4400
 7366SOL    HW123966   3.708   4.264   1.549 -0.9226 -1.7315  1.5325
 7366SOL    HW223967   3.793   4.242   1.673 -2.0859 -0.7744  2.5169
 7367SOL     OW23968   7.987   4.270   6.140  0.1992 -0.1823  0.5943
 7367SOL    HW123969   8.072   4.292   6.102  0.4082  1.1642  1.7324
 7367SOL    HW223970   7.934   4.240   6.066  1.7469 -1.4016 -0.0751
 7368SOL     OW23971   8.127   0.291   7.700 -0.2083 -0.1992  0.4357
 7368SOL    HW123972   8.162   0.347   7.630  1.1158 -1.1998  0.2451
 7368SOL    HW223973   8.045   0.257   7.664 -0.7813  1.1932  0.3617
 7369SOL     OW23974   6.858   0.742   3.209  0.4598  0.4541 -0.1221
 7369SOL    HW123975   6.944   0.701   3.196  1.2943  1.9719  0.3237
 7369SOL    HW223976   6.873   0.807   3.278 -1.5997 -0.8117  1.6162
 7370SOL     OW23977   3.874   4.031   2.093 -0.1066  0.0916  0.1852
 7370SOL    HW123978   3.970   4.027   2.086 -0.1545 -0.6630 -0.0973
 7370SOL    HW223979   3.854   4.124   2.087  0.7110  0.3983  1.6668
 7371SOL     OW23980   2.065   2.373   4.019 -0.4919 -0.0131 -0.7609
 7371SOL    HW123981   1.990   2.320   4.046 -1.0460  0.9039 -0.4369
 7371SOL    HW223982   2.131   2.357   4.086 -0.3916 -0.8151 -1.0386
 7372SOL     OW23983   3.430   3.770   1.627  0.2117  0.2607 -0.3557
 7372SOL    HW123984   3.498   3.834   1.607  1.8696 -1.3618 -0.2740
 7372SOL    HW223985   3.430   3.765   1.723  0.1904  0.0436 -0.3666
 7373SOL     OW23986   2.098   3.109   2.292  0.5819  0.1733  0.3595
 7373SOL    HW123987   2.135   3.194   2.269 -1.1669  0.7179 -0.5809
 7373SOL    HW223988   2.008   3.128   2.319  0.2099 -1.3688  0.3186
 7374SOL     OW23989   6.635   4.882   6.343  0.1643 -0.2970  0.1100
 7374SOL    HW123990   6.587   4.929   6.412  1.3717 -0.4977  1.1253
 7374SOL    HW223991   6.607   4.924   6.262 -1.4519 -0.1800  0.6928
 7375SOL     OW23992   6.303   4.050   3.467 -0.2648 -0.8878  0.2042
 7375SOL    HW123993   6.250   3.994   3.523 -1.5113  0.5535  0.5075
 7375SOL    HW223994   6.240   4.100   3.415  0.6819  1.9064  1.5712
 7376SOL     OW23995   3.403   3.767   1.928  0.1860  0.1058  0.2342
 7376SOL    HW123996   3.418   3.810   2.012  1.7172  1.8750 -0.8505
 7376SOL    HW223997   3.320   3.721   1.939  0.9325 -0.7732  3.0752
 7377SOL     OW23998   3.839   5.905   1.111 -0.0119  0.6633 -0.0180
 7377SOL    HW123999   3.777   5.869   1.173  1.0516 -2.3824 -0.5707
 7377SOL    HW224000   3.924   5.901   1.156  0.4188  0.6796 -0.8032
 7378SOL     OW24001   1.086   2.707   2.097  1.0278  0.2740  0.2649
 7378SOL    HW124002   1.059   2.654   2.173 -0.9083 -2.0606 -1.8627
 7378SOL    HW224003   1.178   2.684   2.083  0.6024 -1.5614  0.2170
 7379SOL     OW24004   1.790   1.797   2.778  0.1161  0.1298 -0.5380
 7379SOL    HW124005   1.746   1.882   2.775 -1.7298 -0.7770 -1.3327
 7379SOL    HW224006   1.813   1.785   2.870 -0.5487  1.0503 -0.2322
 7380SOL     OW24007   5.128   6.820   1.407 -0.3530  0.0403 -0.4215
 7380SOL    HW124008   5.106   6.820   1.314 -0.0456 -0.0421 -0.4968
 7380SOL    HW224009   5.146   6.728   1.427  1.4309  0.2750 -0.7410
 7381SOL     OW24010   7.582   8.259   7.914 -0.0887 -0.1820 -0.0169
 7381SOL    HW124011   7.583   8.215   7.828  0.6076 -0.1344 -0.0390
 7381SOL    HW224012   7.543   8.195   7.973 -0.9459 -0.0680 -0.4419
 7382SOL     OW24013   8.100   6.194   0.808  0.1887  0.5144  0.4596
 7382SOL    HW124014   8.135   6.118   0.762 -0.8397  0.4376 -0.2094
 7382SOL    HW224015   8.162   6.265   0.788  1.2784 -0.1645  1.2753
 7383SOL     OW24016   3.788   3.470   2.889  0.1246  0.1590 -0.1711
 7383SOL    HW124017   3.797   3.527   2.966  2.6406 -1.1051  0.5628
 7383SOL    HW224018   3.841   3.513   2.822  0.0975 -0.0983 -0.3569
 7384SOL     OW24019   0.674   2.190   6.615 -0.0714  0.3108 -0.2127
 7384SOL    HW124020   0.671   2.245   6.693  0.9140  0.4948 -0.2923
 7384SOL    HW224021   0.759   2.209   6.575 -0.7201  0.5254 -1.5480
 7385SOL     OW24022   6.569   7.708   0.979 -0.0208 -0.4337 -0.3657
 7385SOL    HW124023   6.535   7.683   1.065  0.6744 -0.9597 -0.2338
 7385SOL    HW224024   6.554   7.802   0.974  2.3682  0.1581  1.5184
 7386SOL     OW24025   1.574   3.928   8.149  0.1309  0.1172  0.3010
 7386SOL    HW124026   1.544   3.931   8.241  1.0649  0.3349  0.6061
 7386SOL    HW224027   1.669   3.918   8.155 -0.0281 -2.8770 -0.6619
 7387SOL     OW24028   4.571   4.558   5.858 -0.4747  0.1950 -0.2228
 7387SOL    HW124029   4.573   4.489   5.791 -0.1667  1.3266 -1.4102
 7387SOL    HW224030   4.663   4.572   5.880 -0.6399 -1.1423  1.5102
 7388SOL     OW24031   3.703   0.166   2.808  1.5625  0.3356 -0.8431
 7388SOL    HW124032   3.713   0.256   2.840  2.6394 -0.2221  0.4645
 7388SOL    HW224033   3.679   0.176   2.715  3.8748  1.9445 -1.3449
 7389SOL     OW24034   1.285   1.372   0.405  0.1299 -0.0551 -0.6295
 7389SOL    HW124035   1.235   1.323   0.340  0.5439 -0.7325 -0.4464
 7389SOL    HW224036   1.268   1.463   0.384 -1.4323 -0.2482 -0.3880
 7390SOL     OW24037   4.138   6.973   0.199  0.7066 -0.1155  0.6029
 7390SOL    HW124038   4.183   7.035   0.140  0.2887  1.8982  2.2804
 7390SOL    HW224039   4.189   6.977   0.280 -0.0463 -1.0800  1.1393
 7391SOL     OW24040   4.274   0.772   3.961 -0.3569 -0.3909  0.1551
 7391SOL    HW124041   4.194   0.768   4.012 -0.2750 -0.9391  0.2535
 7391SOL    HW224042   4.334   0.711   4.006  0.2495  0.3136  0.3168
 7392SOL     OW24043   1.146   3.433   4.061  0.0010  0.2278 -0.4458
 7392SOL    HW124044   1.211   3.497   4.091  1.8074 -1.1717 -1.2041
 7392SOL    HW224045   1.190   3.385   3.991 -1.5958 -1.2876 -0.4780
 7393SOL     OW24046   7.006   1.901   3.888 -0.0421  0.0128  0.6236
 7393SOL    HW124047   6.940   1.902   3.819  1.3889 -1.3888 -0.8746
 7393SOL    HW224048   6.991   1.818   3.934  0.7917 -0.4512  0.0931
 7394SOL     OW24049   7.734   5.580   4.413  0.3616  0.4866  0.4356
 7394SOL    HW124050   7.740   5.652   4.350  0.4901  0.0145 -0.0976
 7394SOL    HW224051   7.718   5.623   4.497 -0.4773  1.0884 -0.0207
 7395SOL     OW24052   1.613   4.579   4.612 -0.6297 -0.1344  0.0520
 7395SOL    HW124053   1.601   4.498   4.563 -0.9782  0.6748 -1.2492
 7395SOL    HW224054   1.605   4.553   4.704 -1.2351 -1.4833 -0.3599
 7396SOL     OW24055   1.726   5.366   3.603 -0.6101 -0.6225 -0.4689
 7396SOL    HW124056   1.806   5.418   3.610 -0.1174 -1.4336  0.0334
 7396SOL    HW224057   1.655   5.430   3.616 -0.0523  0.0660 -0.7147
 7397SOL     OW24058   2.139   3.305   5.026 -0.0087  0.0740  0.4259
 7397SOL    HW124059   2.114   3.264   4.943  1.2600  0.2673 -0.0838
 7397SOL    HW224060   2.109   3.395   5.018  3.6492  1.3449 -1.6901
 7398SOL     OW24061   5.764   8.719   7.647  0.1880  0.1440 -0.1663
 7398SOL    HW124062   5.740   8.627   7.641  0.4997 -0.0023  0.7328
 7398SOL    HW224063   5.684   8.766   7.621 -0.0711 -0.3646 -0.3120
 7399SOL     OW24064   3.112   4.006   5.425 -0.5495 -0.1409  0.0022
 7399SOL    HW124065   3.118   3.911   5.426  1.5966 -0.0415 -0.4814
 7399SOL    HW224066   3.096   4.028   5.334  0.3923  0.0139 -0.1330
 7400SOL     OW24067   3.785   0.792   0.729 -0.3723 -0.0170  0.2937
 7400SOL    HW124068   3.783   0.823   0.638  3.0817 -1.0562 -0.2880
 7400SOL    HW224069   3.816   0.866   0.780 -0.1159 -0.0924  0.2483
 7401SOL     OW24070   8.250   1.884   6.490 -0.5361 -0.2566  0.2120
 7401SOL    HW124071   8.267   1.790   6.494 -0.1006 -0.2215 -0.6033
 7401SOL    HW224072   8.296   1.919   6.567 -2.1641 -0.8853  1.5306
 7402SOL     OW24073   3.457   2.089   5.079 -0.0497  0.5390 -0.1332
 7402SOL    HW124074   3.426   2.041   5.002  0.0051 -0.6467  0.5653
 7402SOL    HW224075   3.411   2.049   5.152  4.0638 -2.3380  1.2031
 7403SOL     OW24076   6.728   4.506   0.059  0.3398  0.5883  0.6722
 7403SOL    HW124077   6.779   4.457   0.123  0.0574  0.2765  0.6645
 7403SOL    HW224078   6.753   4.470  -0.025  0.1297  0.4566  0.6664
 7404SOL     OW24079   0.270   1.513   8.145 -0.0886  0.0684 -0.3757
 7404SOL    HW124080   0.300   1.603   8.139  1.5239  0.0331  3.7705
 7404SOL    HW224081   0.335   1.462   8.096  0.9234  0.9196  0.0426
 7405SOL     OW24082   8.218   3.830   0.596 -0.3835 -0.3759  0.1142
 7405SOL    HW124083   8.259   3.875   0.670  0.6621  0.0821 -0.7271
 7405SOL    HW224084   8.278   3.759   0.574  0.3043  0.6442 -1.4825
 7406SOL     OW24085   1.483   5.735   8.560  0.5973  1.1707 -0.6285
 7406SOL    HW124086   1.566   5.760   8.520  0.9803  1.2170  0.1818
 7406SOL    HW224087   1.423   5.724   8.486  1.2041  1.5743 -1.1908
 7407SOL     OW24088   1.816   3.849   2.899 -0.1370 -0.3117  0.2692
 7407SOL    HW124089   1.825   3.896   2.982  1.3915  0.3030 -0.2035
 7407SOL    HW224090   1.869   3.770   2.910  0.7148  0.1437 -0.3426
 7408SOL     OW24091   6.809   0.489   8.488  0.0306 -0.2016 -0.3723
 7408SOL    HW124092   6.772   0.488   8.400 -1.5852 -0.0044  0.2686
 7408SOL    HW224093   6.801   0.399   8.518 -2.7514  0.3492  0.8358
 7409SOL     OW24094   0.007   2.510   4.861 -0.3322  0.3819 -0.0694
 7409SOL    HW124095   0.017   2.567   4.937 -0.8410  1.8708 -1.0791
 7409SOL    HW224096  -0.086   2.515   4.839 -0.6169 -1.6880  0.4176
 7410SOL     OW24097   3.948   2.075   3.723 -0.3364  0.4666 -0.1861
 7410SOL    HW124098   4.000   1.995   3.733 -0.5695  0.5171  1.8453
 7410SOL    HW224099   3.863   2.053   3.760 -0.2437  1.7852  0.8874
 7411SOL     OW24100   0.702   0.249   5.765  0.0072 -0.3791  0.0738
 7411SOL    HW124101   0.746   0.331   5.741 -0.5119 -0.0980  0.0875
 7411SOL    HW224102   0.627   0.276   5.818 -0.6823 -0.8035 -0.6631
 7412SOL     OW24103   6.324   3.659   5.622 -0.1287 -0.5111  0.1991
 7412SOL    HW124104   6.265   3.723   5.584  0.6340  0.2515  0.2605
 7412SOL    HW224105   6.303   3.577   5.577 -0.8075 -0.1271 -0.2037
 7413SOL     OW24106   1.803   5.049   7.549  1.1193  0.1940 -0.2900
 7413SOL    HW124107   1.744   5.124   7.546  1.1037  0.2078  0.1925
 7413SOL    HW224108   1.875   5.072   7.490  0.8219  0.3344 -0.5966
 7414SOL     OW24109   0.768   1.701   6.645 -0.1257 -0.5011 -0.6447
 7414SOL    HW124110   0.717   1.781   6.629  0.3049 -0.2224 -0.6415
 7414SOL    HW224111   0.805   1.713   6.732  1.3373  0.0756 -1.3127
 7415SOL     OW24112   8.867   5.723   5.197  0.5756 -0.1519  0.3239
 7415SOL    HW124113   8.872   5.772   5.115  2.2397 -1.3190 -0.3288
 7415SOL    HW224114   8.919   5.774   5.259 -0.4457  0.5808  0.5997
 7416SOL     OW24115   1.969   5.457   1.551 -0.1253 -0.1751 -0.2510
 7416SOL    HW124116   1.986   5.375   1.505  3.7468  0.2955  0.0607
 7416SOL    HW224117   1.957   5.522   1.482 -1.0369 -0.5745 -0.4897
 7417SOL     OW24118   7.226   3.359   2.454 -0.2495  0.0625  0.0858
 7417SOL    HW124119   7.185   3.326   2.534  1.6097 -0.4249  0.8861
 7417SOL    HW224120   7.163   3.338   2.384 -1.3706 -0.5687  1.2473
 7418SOL     OW24121   6.191   2.755   3.646  0.0550  0.2785  0.6482
 7418SOL    HW124122   6.103   2.724   3.667 -0.3269  0.4117 -0.6994
 7418SOL    HW224123   6.245   2.676   3.648  0.4671  0.4919  3.9469
 7419SOL     OW24124   8.513   6.421   3.506  0.0039  0.4535  0.4007
 7419SOL    HW124125   8.555   6.463   3.431  0.1436 -2.1760 -1.1038
 7419SOL    HW224126   8.578   6.427   3.576  1.0166  0.4890 -0.5206
 7420SOL     OW24127   4.517   7.256   7.290 -0.3845 -0.0339  0.0580
 7420SOL    HW124128   4.566   7.219   7.363  0.2883 -3.1895 -1.7939
 7420SOL    HW224129   4.584   7.271   7.222 -1.2241  1.1260 -0.5450
 7421SOL     OW24130   8.271   0.221   4.810  0.2892 -0.0406  0.3989
 7421SOL    HW124131   8.288   0.144   4.864  0.3205  0.1276  0.6318
 7421SOL    HW224132   8.332   0.287   4.843  0.0069  0.1973  0.4460
 7422SOL     OW24133   0.081   2.923   4.800  0.3410 -0.1238  0.6903
 7422SOL    HW124134   0.110   2.862   4.867 -0.6792 -1.3933  0.0301
 7422SOL    HW224135  -0.002   2.957   4.833  0.5696  0.3979  0.7401
 7423SOL     OW24136   2.464   0.243   7.764 -0.4385 -0.6433 -0.1108
 7423SOL    HW124137   2.532   0.310   7.759  0.4560 -1.5530 -0.4016
 7423SOL    HW224138   2.406   0.273   7.834 -0.1042  0.4707 -0.2981
 7424SOL     OW24139   4.148   6.107   2.616 -0.0508 -0.1522 -0.3902
 7424SOL    HW124140   4.080   6.085   2.552 -0.7189  1.7755 -0.4034
 7424SOL    HW224141   4.099   6.136   2.693  0.7622 -1.0293  0.4679
 7425SOL     OW24142   1.250   1.912   0.857 -0.2596 -0.9724 -0.0746
 7425SOL    HW124143   1.260   1.909   0.762 -0.1711 -0.7873 -0.0700
 7425SOL    HW224144   1.339   1.908   0.891 -0.1413  0.9131 -0.0420
 7426SOL     OW24145   0.827   2.418   5.893  0.0411 -0.6690  0.4491
 7426SOL    HW124146   0.800   2.390   5.805 -1.1355  2.1780 -0.1958
 7426SOL    HW224147   0.782   2.501   5.907  1.2819 -0.3465  3.2373
 7427SOL     OW24148   2.347   5.036   7.979 -0.3226 -0.1022 -0.2031
 7427SOL    HW124149   2.393   4.975   8.035  3.1322  1.7548 -0.7073
 7427SOL    HW224150   2.385   5.023   7.892  0.1082  2.2421 -0.4495
 7428SOL     OW24151   8.522   0.839   1.054 -0.5185 -0.0128  0.1425
 7428SOL    HW124152   8.475   0.830   0.971 -2.2551  0.7134  1.0088
 7428SOL    HW224153   8.544   0.932   1.059  0.1070 -0.1596  0.2483
 7429SOL     OW24154   3.339   0.037   4.329 -0.3051  0.0398  0.9125
 7429SOL    HW124155   3.360  -0.042   4.278 -0.1217 -0.2899  1.4779
 7429SOL    HW224156   3.420   0.088   4.328 -0.8703  0.9773 -0.7363
 7430SOL     OW24157   3.777   8.716   4.348 -0.2806 -0.0962  0.3256
 7430SOL    HW124158   3.819   8.712   4.262 -1.4080 -0.7330 -0.2154
 7430SOL    HW224159   3.809   8.637   4.393  1.1812  0.7995  0.9387
 7431SOL     OW24160   6.993   8.429   1.351  0.4186  0.0227 -0.1521
 7431SOL    HW124161   6.923   8.486   1.382  0.9319 -0.0686  1.2498
 7431SOL    HW224162   7.070   8.487   1.345  0.4074 -0.0352 -0.9789
 7432SOL     OW24163   4.931   2.988   1.445 -0.7508  0.3474  0.1694
 7432SOL    HW124164   4.876   3.000   1.523 -0.6311  0.1567  0.2834
 7432SOL    HW224165   4.871   3.002   1.372 -0.7510  1.0475  0.2903
 7433SOL     OW24166   0.069   5.464   6.869 -0.1685  0.2520 -0.6969
 7433SOL    HW124167   0.044   5.509   6.788  0.1362  0.5959 -0.6002
 7433SOL    HW224168  -0.006   5.476   6.927 -0.5661 -0.3530 -1.0656
 7434SOL     OW24169   0.634   1.965   5.956  0.1479  0.5486  0.5844
 7434SOL    HW124170   0.596   2.039   5.909 -1.6000 -0.6570 -0.0166
 7434SOL    HW224171   0.562   1.901   5.962  1.9013 -1.6127 -0.0398
 7435SOL     OW24172   4.149   4.921   3.504  0.5642  0.5564  0.4266
 7435SOL    HW124173   4.189   4.903   3.589  0.3090  1.4010  0.7411
 7435SOL    HW224174   4.072   4.975   3.525 -0.0336 -0.0057 -0.2642
 7436SOL     OW24175   4.406   3.716   2.292  0.5402 -0.0565 -0.4988
 7436SOL    HW124176   4.338   3.772   2.253 -1.6142 -1.7704  0.5809
 7436SOL    HW224177   4.427   3.759   2.375 -0.3810 -0.2901 -0.1314
 7437SOL     OW24178   2.603   8.234   1.024 -0.6834 -0.5566 -0.0297
 7437SOL    HW124179   2.698   8.246   1.032 -0.3237 -2.1913 -1.3493
 7437SOL    HW224180   2.581   8.168   1.090 -0.9519 -0.0608  0.3862
 7438SOL     OW24181   2.748   6.494   2.517  0.1878  0.5385 -0.0256
 7438SOL    HW124182   2.765   6.429   2.585 -1.5000  0.9042  0.7947
 7438SOL    HW224183   2.835   6.514   2.482  0.8114 -1.7305  0.0609
 7439SOL     OW24184   4.205   8.457   4.579 -0.1181  0.6677  0.6558
 7439SOL    HW124185   4.183   8.541   4.619  1.0650  0.5080  1.7068
 7439SOL    HW224186   4.178   8.392   4.644 -0.0980  0.2847  0.2890
 7440SOL     OW24187   2.906   0.627   0.224  0.4321 -0.0667  0.1665
 7440SOL    HW124188   2.862   0.572   0.290  0.3625  1.4651  1.4561
 7440SOL    HW224189   2.837   0.650   0.162  0.2229 -0.5600  0.2124
 7441SOL     OW24190   1.137   4.447   6.107  0.0114  0.2311 -0.1761
 7441SOL    HW124191   1.043   4.459   6.114  0.3531  2.5176  2.0163
 7441SOL    HW224192   1.165   4.417   6.194  1.4113  0.7321 -0.4170
 7442SOL     OW24193   8.899   6.776   6.791  0.2358  0.0086 -0.0535
 7442SOL    HW124194   8.820   6.723   6.807  0.4787 -0.8925 -1.6297
 7442SOL    HW224195   8.890   6.850   6.851 -1.1887 -0.7147  0.6924
 7443SOL     OW24196   4.787   7.111   8.262  0.0489 -0.5070 -0.3797
 7443SOL    HW124197   4.708   7.057   8.251 -1.1828  0.9959  0.7068
 7443SOL    HW224198   4.792   7.128   8.356  0.2670  1.4269 -0.7088
 7444SOL     OW24199   5.589   3.786   7.351  0.1319  0.1757 -0.4893
 7444SOL    HW124200   5.566   3.795   7.444  1.4358 -0.6477 -0.0457
 7444SOL    HW224201   5.520   3.832   7.304  0.3518  2.1639  0.9759
 7445SOL     OW24202   5.306   2.797   1.475  0.3876 -0.6250 -0.0025
 7445SOL    HW124203   5.242   2.751   1.420  1.2138  0.3866 -1.9104
 7445SOL    HW224204   5.261   2.876   1.504  1.3126  1.2630 -3.2108
 7446SOL     OW24205   0.328   4.411   6.894 -1.0559 -0.2234  0.0484
 7446SOL    HW124206   0.321   4.505   6.908 -0.6375 -0.4601  2.0670
 7446SOL    HW224207   0.238   4.381   6.882 -1.2943  0.2611  0.6221
 7447SOL     OW24208   5.986   5.350   6.737 -0.9682 -0.1065  0.4783
 7447SOL    HW124209   6.049   5.398   6.790 -0.0182 -0.1556 -0.5682
 7447SOL    HW224210   5.901   5.387   6.761 -0.2427  2.5898 -0.7582
 7448SOL     OW24211   4.260   6.713   2.020 -0.8856  0.2172 -0.2947
 7448SOL    HW124212   4.165   6.713   2.005 -1.1258  2.1269  0.9163
 7448SOL    HW224213   4.298   6.732   1.934 -1.6760  0.5622 -0.5774
 7449SOL     OW24214   5.553   7.831   5.056 -0.3212 -0.0313  0.2098
 7449SOL    HW124215   5.517   7.894   5.120  1.9231 -0.0377  1.6164
 7449SOL    HW224216   5.623   7.787   5.104  0.5325 -1.0604 -1.8720
 7450SOL     OW24217   2.694   1.018   5.432  0.3396 -0.0480  0.1556
 7450SOL    HW124218   2.703   0.961   5.508 -0.2011 -0.3873 -0.0254
 7450SOL    HW224219   2.614   1.069   5.450  0.9335  0.8126  0.4172
 7451SOL     OW24220   7.305   7.812   4.671  0.5991  0.2099  0.2734
 7451SOL    HW124221   7.248   7.769   4.607 -1.5676  0.8505  1.6691
 7451SOL    HW224222   7.347   7.739   4.718 -1.2436 -0.4053  1.0603
 7452SOL     OW24223   1.830   6.056   4.930 -0.0044 -0.4912 -0.1742
 7452SOL    HW124224   1.834   5.973   4.978  0.5179  0.5175  1.5928
 7452SOL    HW224225   1.922   6.079   4.916 -0.1411  0.0931 -0.1120
 7453SOL     OW24226   4.536   6.596   6.236 -0.8172  0.8118 -0.4518
 7453SOL    HW124227   4.529   6.523   6.175 -0.0615  0.9266 -0.6990
 7453SOL    HW224228   4.629   6.598   6.259 -0.5355  2.5054 -1.4931
 7454SOL     OW24229   0.725   8.742   1.294 -0.1645  0.0278  0.6713
 7454SOL    HW124230   0.724   8.811   1.361  1.1062  1.8599 -1.0903
 7454SOL    HW224231   0.808   8.696   1.308 -0.5129 -0.4611  1.1655
 7455SOL     OW24232   3.276   8.018   6.211 -0.1669  0.0529 -0.1428
 7455SOL    HW124233   3.320   7.935   6.193  1.1229  0.8140 -0.6538
 7455SOL    HW224234   3.283   8.068   6.130 -0.6619  0.7782  0.2413
 7456SOL     OW24235   5.470   6.220   8.818 -0.5476 -0.1054  0.5788
 7456SOL    HW124236   5.459   6.315   8.827 -1.4505 -0.1486  0.0722
 7456SOL    HW224237   5.525   6.195   8.892  0.1079  0.8822  0.4466
 7457SOL     OW24238   7.612   3.435   8.451 -0.0339 -0.6853  0.0566
 7457SOL    HW124239   7.525   3.407   8.479 -0.0729 -0.5230  0.0970
 7457SOL    HW224240   7.648   3.359   8.405  0.5945 -1.5018  1.7854
 7458SOL     OW24241   2.353   3.480   2.670 -0.1091  0.2403  0.0214
 7458SOL    HW124242   2.403   3.516   2.743 -2.5154  0.8204  1.4743
 7458SOL    HW224243   2.329   3.392   2.698 -0.5044  0.2296 -0.3475
 7459SOL     OW24244   4.485   0.260   8.528  0.1372  0.2553 -0.0719
 7459SOL    HW124245   4.448   0.174   8.505 -0.5251  0.0824  1.5260
 7459SOL    HW224246   4.411   0.321   8.520  0.3189  0.4742 -0.0756
 7460SOL     OW24247   3.615   7.589   7.770 -0.5123 -0.3374 -0.1065
 7460SOL    HW124248   3.702   7.623   7.752  0.3195 -0.7914  2.5989
 7460SOL    HW224249   3.628   7.495   7.781 -1.2646 -0.3649  0.6523
 7461SOL     OW24250   2.786   0.429   5.321 -0.2739  0.7383  0.0296
 7461SOL    HW124251   2.807   0.409   5.412  1.9942 -0.0621 -0.6108
 7461SOL    HW224252   2.726   0.504   5.327 -0.0943  0.7912  2.1577
 7462SOL     OW24253   5.611   3.206   4.155  0.1625  0.2869  0.1276
 7462SOL    HW124254   5.525   3.222   4.194 -0.2299  2.1467 -1.3415
 7462SOL    HW224255   5.601   3.124   4.107  0.0485 -0.9208  2.0950
 7463SOL     OW24256   4.683   5.018   4.958 -0.1789 -0.6089  0.2330
 7463SOL    HW124257   4.647   5.091   5.007  0.9113  0.0202  0.1373
 7463SOL    HW224258   4.708   4.954   5.025  2.8067  0.9185  0.7358
 7464SOL     OW24259   5.595   8.887   7.514 -0.0545  0.1879 -0.3587
 7464SOL    HW124260   5.533   8.954   7.486 -0.3953  0.3261  0.6822
 7464SOL    HW224261   5.652   8.873   7.438  0.4734  2.1665 -0.3720
 7465SOL     OW24262   5.787   3.890   4.661  0.4736  0.5051  0.5458
 7465SOL    HW124263   5.725   3.962   4.675  0.0353 -0.2786  3.2499
 7465SOL    HW224264   5.827   3.909   4.576 -2.3197  1.8869 -0.5888
 7466SOL     OW24265   5.687   8.721   1.071 -0.3669  0.0674  0.4008
 7466SOL    HW124266   5.751   8.656   1.101 -0.3490 -0.3404 -0.5007
 7466SOL    HW224267   5.666   8.694   0.982  0.8363  2.1891 -0.6035
 7467SOL     OW24268   4.290   2.328   4.922 -0.3601 -0.3606 -0.1969
 7467SOL    HW124269   4.379   2.354   4.946 -0.5774  1.1504 -0.9271
 7467SOL    HW224270   4.240   2.409   4.923 -1.8452 -1.2410  0.6045
 7468SOL     OW24271   7.557   1.019   7.257  0.5819  0.2727  0.1968
 7468SOL    HW124272   7.609   0.959   7.311 -0.1859  0.3033  0.9869
 7468SOL    HW224273   7.563   1.103   7.302 -1.2372 -0.0223  1.0683
 7469SOL     OW24274   7.420   6.700   2.086 -0.3003  0.8096 -0.1699
 7469SOL    HW124275   7.484   6.643   2.129  2.1851  1.3909 -2.7610
 7469SOL    HW224276   7.423   6.781   2.136  0.8217  0.7173 -0.0508
 7470SOL     OW24277   3.295   6.683   6.393  0.2076 -0.0406  0.5379
 7470SOL    HW124278   3.272   6.652   6.481 -0.8276 -0.2072  0.2136
 7470SOL    HW224279   3.374   6.634   6.370  1.5685  1.2879  2.0783
 7471SOL     OW24280   0.173   2.901   7.467 -0.2011  0.5542 -0.5126
 7471SOL    HW124281   0.126   2.979   7.437 -1.2716 -0.2374 -0.9424
 7471SOL    HW224282   0.117   2.828   7.441  1.2942 -0.4273 -1.0919
 7472SOL     OW24283   2.764   1.896   8.419  0.7152 -0.0973  0.2170
 7472SOL    HW124284   2.814   1.919   8.340  0.6893 -1.5462 -0.2434
 7472SOL    HW224285   2.794   1.809   8.443  0.0212 -0.0690  1.2581
 7473SOL     OW24286   5.329   6.199   1.232 -0.2583  0.1645 -0.0216
 7473SOL    HW124287   5.251   6.205   1.177 -1.5224 -0.2302  1.6314
 7473SOL    HW224288   5.324   6.277   1.288 -1.9343 -1.9266  3.0452
 7474SOL     OW24289   2.712   3.922   1.500 -0.4913 -0.2451 -0.1115
 7474SOL    HW124290   2.638   3.898   1.556 -2.0343  2.2000 -0.9563
 7474SOL    HW224291   2.774   3.965   1.559  0.3960 -2.3867  0.6168
 7475SOL     OW24292   4.042   2.526   8.085  0.0513 -0.5766  0.2181
 7475SOL    HW124293   3.958   2.493   8.053 -0.9183  0.1792  1.8489
 7475SOL    HW224294   4.095   2.537   8.006 -1.0574 -1.9194 -0.7743
 7476SOL     OW24295   3.088   2.053   8.696  0.1896  0.4595  0.6416
 7476SOL    HW124296   3.172   2.007   8.694 -0.1396 -0.1865 -2.5676
 7476SOL    HW224297   3.098   2.126   8.635 -2.0330 -0.6289 -1.1621
 7477SOL     OW24298   6.372   1.725   4.900 -0.3936 -0.4776  0.1211
 7477SOL    HW124299   6.330   1.640   4.889  0.0939 -0.5894 -1.0722
 7477SOL    HW224300   6.398   1.728   4.992 -0.6616 -1.5084  0.2364
 7478SOL     OW24301   3.215   5.710   1.999  0.4220 -0.0634 -0.4844
 7478SOL    HW124302   3.198   5.716   1.904 -1.1205 -1.2138 -0.3342
 7478SOL    HW224303   3.148   5.649   2.031  2.1923 -1.3371  1.0379
 7479SOL     OW24304   5.142   8.172   3.853 -0.3293 -0.1058  0.0907
 7479SOL    HW124305   5.199   8.135   3.786 -0.5046  0.5384 -0.4198
 7479SOL    HW224306   5.195   8.175   3.932  0.3415  0.4829 -0.3756
 7480SOL     OW24307   2.690   2.389   3.401  0.1514 -0.2952  0.2240
 7480SOL    HW124308   2.722   2.479   3.395  0.9945 -0.5415  0.8526
 7480SOL    HW224309   2.623   2.391   3.469  0.8920 -0.3256  0.9735
 7481SOL     OW24310   0.880   6.579   4.584 -0.4074  0.1152 -0.8550
 7481SOL    HW124311   0.841   6.588   4.497 -1.0778  2.2792 -0.3908
 7481SOL    HW224312   0.954   6.639   4.584 -0.5276  0.2894  0.1248
 7482SOL     OW24313   2.351   3.244   6.472  0.1594 -0.1913 -0.4028
 7482SOL    HW124314   2.309   3.306   6.412  2.2988  1.8843  0.0806
 7482SOL    HW224315   2.425   3.209   6.423  1.2184  0.6116  0.5718
 7483SOL     OW24316   7.958   2.210   2.018  0.0368  0.5058  0.3138
 7483SOL    HW124317   7.899   2.137   2.038 -0.9302  1.2220  0.1941
 7483SOL    HW224318   8.045   2.172   2.019 -0.5069 -0.8345 -0.6173
 7484SOL     OW24319   6.390   5.268   4.143  0.4266 -0.1121  0.1261
 7484SOL    HW124320   6.348   5.284   4.227  1.1488 -0.8009  0.6285
 7484SOL    HW224321   6.333   5.206   4.099  0.6097 -0.6081  0.5746
 7485SOL     OW24322   1.508   3.881   1.910 -0.5936 -0.0876 -0.1025
 7485SOL    HW124323   1.495   3.955   1.851  2.4608  0.8884  0.2936
 7485SOL    HW224324   1.471   3.910   1.994 -0.3576  0.5787 -0.2221
 7486SOL     OW24325   7.152   0.866   0.212  0.1992 -0.2093  0.4302
 7486SOL    HW124326   7.117   0.827   0.132  0.0673 -1.3805  1.0452
 7486SOL    HW224327   7.247   0.860   0.203  0.3403  2.4008 -0.9550
 7487SOL     OW24328   6.707   7.420   0.565  0.1282 -0.3628  0.1788
 7487SOL    HW124329   6.717   7.511   0.593 -1.4188  0.1292 -0.7234
 7487SOL    HW224330   6.708   7.370   0.647  3.6768  0.0846  0.5562
 7488SOL     OW24331   6.591   5.261   3.974 -0.1061  0.1967  0.1590
 7488SOL    HW124332   6.502   5.261   4.010  0.6186 -1.0332  2.1208
 7488SOL    HW224333   6.627   5.346   4.001 -0.0492 -0.1288  1.1578
 7489SOL     OW24334   2.797   1.974   8.700 -0.5308  0.2263  0.2945
 7489SOL    HW124335   2.786   1.951   8.607  0.1436 -2.4905  0.7948
 7489SOL    HW224336   2.888   2.000   8.708 -0.9263  1.7686 -0.0133
 7490SOL     OW24337   3.696   1.786   7.699  0.5909  0.4096 -0.0622
 7490SOL    HW124338   3.697   1.690   7.694  1.1271  0.3745  0.6073
 7490SOL    HW224339   3.688   1.805   7.792 -1.1173  1.0269 -0.2849
 7491SOL     OW24340   4.669   4.498   7.521  0.0498  0.3452 -0.0712
 7491SOL    HW124341   4.731   4.555   7.476 -0.3555  0.3830 -0.5871
 7491SOL    HW224342   4.723   4.427   7.556  0.2557 -0.2312 -1.4824
 7492SOL     OW24343   4.740   1.026   2.345 -0.0439 -0.2482 -0.1264
 7492SOL    HW124344   4.691   0.999   2.268  0.1261 -3.1494  0.6508
 7492SOL    HW224345   4.673   1.040   2.412 -0.0417 -0.1731 -0.1396
 7493SOL     OW24346   7.271   6.886   1.073 -0.0345  0.3411 -0.4557
 7493SOL    HW124347   7.189   6.892   1.024  0.5572  2.6610 -1.2998
 7493SOL    HW224348   7.253   6.928   1.157 -0.4921 -1.9053  0.6728
 7494SOL     OW24349   8.709   6.937   2.209 -0.3540 -0.1634  0.3166
 7494SOL    HW124350   8.800   6.961   2.222 -0.0875 -1.9012  2.1125
 7494SOL    HW224351   8.712   6.850   2.170 -1.2697  0.2063 -0.6456
 7495SOL     OW24352   8.824   0.748   0.255  0.2801  0.5795  0.0634
 7495SOL    HW124353   8.889   0.686   0.221 -1.1643  0.2899 -2.3908
 7495SOL    HW224354   8.777   0.699   0.322  0.6933 -0.1676 -0.1801
 7496SOL     OW24355   8.519   8.641   4.365  0.2610 -0.2159  0.0400
 7496SOL    HW124356   8.490   8.552   4.385  0.3807 -0.7730 -1.9509
 7496SOL    HW224357   8.608   8.630   4.330 -1.0327  0.0646 -3.8981
 7497SOL     OW24358   2.889   1.851   0.627  0.1274 -0.6746  0.4850
 7497SOL    HW124359   2.816   1.854   0.565  0.7170  2.0736 -0.2054
 7497SOL    HW224360   2.964   1.825   0.573  0.4709  0.8861  0.1466
 7498SOL     OW24361   8.247   7.687   2.240 -0.2482  0.3518 -0.1926
 7498SOL    HW124362   8.297   7.664   2.162 -0.2543 -0.0860 -0.0646
 7498SOL    HW224363   8.182   7.618   2.249 -1.0039  1.0018 -0.4604
 7499SOL     OW24364   8.820   1.065   5.271 -0.1132 -0.1251 -0.3292
 7499SOL    HW124365   8.753   1.038   5.208 -0.4269 -0.4640  0.1519
 7499SOL    HW224366   8.772   1.107   5.342  0.2864  0.7958 -0.5735
 7500SOL     OW24367   8.711   6.626   8.181  0.4923  0.8840  0.0516
 7500SOL    HW124368   8.674   6.538   8.181  0.1924  0.9406  2.8192
 7500SOL    HW224369   8.798   6.616   8.219 -0.0054  1.9117  1.5512
 7501SOL     OW24370   6.907   4.388   2.340 -0.0676  0.1114 -0.2664
 7501SOL    HW124371   6.844   4.454   2.368  2.0698  1.0834  2.7704
 7501SOL    HW224372   6.968   4.435   2.284  0.6429  0.4356  0.7437
 7502SOL     OW24373   2.583   1.524   8.976 -0.5713 -0.6038 -0.0885
 7502SOL    HW124374   2.507   1.466   8.981 -0.6157 -0.5786 -0.4262
 7502SOL    HW224375   2.653   1.476   9.020 -0.9105 -0.4112  0.6787
 7503SOL     OW24376   3.593   2.747   0.001  1.3169  0.5677 -0.3000
 7503SOL    HW124377   3.592   2.741  -0.094  1.1738  0.8951 -0.3206
 7503SOL    HW224378   3.512   2.706   0.029  0.6675  1.7317 -0.4029
 7504SOL     OW24379   0.185   4.457   5.063 -0.1128 -0.3884 -0.0638
 7504SOL    HW124380   0.205   4.399   4.990  1.2814 -1.2211  0.9374
 7504SOL    HW224381   0.157   4.539   5.021  1.7676 -0.4412 -1.5956
 7505SOL     OW24382   4.198   5.705   6.998  0.1493 -0.1117  0.0942
 7505SOL    HW124383   4.145   5.675   6.924  0.3917 -2.0076  0.6249
 7505SOL    HW224384   4.135   5.720   7.068  0.0856  0.0289  0.0069
 7506SOL     OW24385   3.590   2.284   0.072 -0.2402 -1.2356 -0.4734
 7506SOL    HW124386   3.568   2.281  -0.021 -0.6504 -0.0827 -0.4298
 7506SOL    HW224387   3.534   2.354   0.107  0.0653 -1.5172  0.5911
 7507SOL     OW24388   4.812   8.083   1.998  0.9015  0.2913 -0.3481
 7507SOL    HW124389   4.735   8.071   2.052  1.7628 -2.5124  0.4206
 7507SOL    HW224390   4.777   8.104   1.911 -0.6852 -0.1114  0.1606
 7508SOL     OW24391   6.516   7.075   3.058 -0.2007  0.0509 -0.3837
 7508SOL    HW124392   6.477   7.006   3.111  2.3193 -0.8637  0.4434
 7508SOL    HW224393   6.511   7.043   2.968 -0.4341 -0.5146 -0.1745
 7509SOL     OW24394   4.375   2.836   0.777  0.3241 -0.1957  0.0387
 7509SOL    HW124395   4.442   2.776   0.809  0.7259 -0.4276 -1.1897
 7509SOL    HW224396   4.292   2.798   0.806  0.6464 -0.6682  0.3435
 7510SOL     OW24397   8.942   4.629   7.830  0.4698  0.2190  0.1476
 7510SOL    HW124398   8.976   4.615   7.918  1.0498  2.2200  0.3023
 7510SOL    HW224399   9.019   4.652   7.778  0.0911 -0.6574 -0.8411
 7511SOL     OW24400   8.287   4.309   3.539 -0.6277  0.3583  0.2809
 7511SOL    HW124401   8.346   4.369   3.494 -0.7656 -0.4535 -1.0471
 7511SOL    HW224402   8.204   4.355   3.545 -0.4763  0.6518  0.1142
 7512SOL     OW24403   6.431   4.423   6.437 -1.0125 -0.0198  0.6563
 7512SOL    HW124404   6.384   4.457   6.361 -1.5686  0.9249  1.4081
 7512SOL    HW224405   6.479   4.498   6.472  2.2164 -1.1852 -0.8240
 7513SOL     OW24406   3.151   6.558   4.376 -0.3763 -0.1892 -0.3483
 7513SOL    HW124407   3.105   6.519   4.451  2.9613 -1.7999  1.0640
 7513SOL    HW224408   3.161   6.486   4.314  0.0473  0.1617 -0.6936
 7514SOL     OW24409   7.205   7.144   5.017 -0.5302 -0.1686 -0.0071
 7514SOL    HW124410   7.256   7.152   5.097 -0.7894 -0.7391  0.2140
 7514SOL    HW224411   7.172   7.054   5.017 -0.2116 -0.3035 -0.9434
 7515SOL     OW24412   3.328   2.734   0.094 -0.7796 -0.1828 -0.1805
 7515SOL    HW124413   3.300   2.724   0.185  0.6368  0.3165  0.3253
 7515SOL    HW224414   3.259   2.786   0.053 -1.5414 -0.6042  0.5343
 7516SOL     OW24415   8.946   3.201   4.753  0.5552  0.7158  0.4428
 7516SOL    HW124416   8.871   3.244   4.712 -0.0690 -0.7514 -0.0176
 7516SOL    HW224417   8.998   3.169   4.680 -0.3146 -1.5059  0.7214
 7517SOL     OW24418   2.747   6.356   6.477 -0.3609 -0.2270  0.3947
 7517SOL    HW124419   2.787   6.325   6.558 -0.5242 -0.5511  0.3536
 7517SOL    HW224420   2.756   6.283   6.416 -1.2076 -0.3857  0.4479
 7518SOL     OW24421   2.467   4.273   2.832  0.0450  0.4255 -0.0468
 7518SOL    HW124422   2.483   4.274   2.926  0.0132 -2.2067  0.0598
 7518SOL    HW224423   2.388   4.219   2.821  1.3694 -1.3548 -1.6715
 7519SOL     OW24424   2.495   2.764   0.122  0.2738 -0.3672 -0.2503
 7519SOL    HW124425   2.571   2.797   0.075  0.9000 -1.8749 -0.3175
 7519SOL    HW224426   2.440   2.724   0.055  1.1752 -2.5350  0.2379
 7520SOL     OW24427   1.715   5.272   5.821  0.4449  0.4658  0.3198
 7520SOL    HW124428   1.705   5.346   5.761 -2.4003 -0.8924 -1.0500
 7520SOL    HW224429   1.662   5.202   5.783  1.6020 -1.7544  2.4770
 7521SOL     OW24430   2.644   4.806   3.568 -0.0541 -0.4645  0.1775
 7521SOL    HW124431   2.603   4.811   3.482 -0.3527 -0.7789  0.2999
 7521SOL    HW224432   2.738   4.803   3.550 -0.1356 -1.0349 -0.1606
 7522SOL     OW24433   4.840   7.111   3.791  0.3808 -0.1477 -0.4284
 7522SOL    HW124434   4.776   7.043   3.772 -1.1760  1.0579  0.3169
 7522SOL    HW224435   4.823   7.179   3.726  0.6026  0.3871  0.0625
 7523SOL     OW24436   5.748   7.049   6.167 -0.3369 -0.2395 -0.5201
 7523SOL    HW124437   5.663   7.070   6.128  0.3930  0.7301 -1.6914
 7523SOL    HW224438   5.804   7.026   6.092 -0.1261 -3.1396  0.4026
 7524SOL     OW24439   7.508   1.745   6.901  0.4784 -0.1710 -0.3503
 7524SOL    HW124440   7.439   1.787   6.850 -0.2463 -1.4292 -0.4367
 7524SOL    HW224441   7.588   1.791   6.875  0.1721 -0.8257 -2.7582
 7525SOL     OW24442   5.752   2.379   1.065  0.3761  0.4821  0.6221
 7525SOL    HW124443   5.743   2.307   1.128  1.6380 -0.2200  0.0221
 7525SOL    HW224444   5.690   2.358   0.995 -0.0427  0.5664  0.9568
 7526SOL     OW24445   0.537   2.883   7.111 -0.0363  0.0908 -0.3770
 7526SOL    HW124446   0.504   2.821   7.176 -0.8994  0.9576  0.0376
 7526SOL    HW224447   0.463   2.898   7.052  0.2881  0.4259 -0.7024
 7527SOL     OW24448   3.464   6.418   7.856 -0.0026  0.2695 -0.1943
 7527SOL    HW124449   3.555   6.414   7.884  0.0831  1.0048 -0.3605
 7527SOL    HW224450   3.467   6.455   7.768 -0.6564  3.4707  1.0223
 7528SOL     OW24451   7.617   4.491   4.640  0.5872  0.0913  0.3244
 7528SOL    HW124452   7.523   4.499   4.659 -0.0430 -2.5614 -1.1349
 7528SOL    HW224453   7.657   4.477   4.726 -0.5257  0.0875  0.8695
 7529SOL     OW24454   6.457   4.541   4.070  0.3093 -0.2985  0.8032
 7529SOL    HW124455   6.461   4.578   3.982  1.6026 -0.3343  0.8332
 7529SOL    HW224456   6.380   4.484   4.068  1.2329 -1.5959 -0.8408
 7530SOL     OW24457   3.381   1.096   8.065  0.1649  0.0368  0.1543
 7530SOL    HW124458   3.309   1.089   8.128 -1.0464  2.4491 -0.8570
 7530SOL    HW224459   3.406   1.005   8.049 -2.0071 -0.8493  1.2620
 7531SOL     OW24460   0.622   7.078   5.238 -0.1757  0.1776 -0.2585
 7531SOL    HW124461   0.586   7.068   5.326  2.0222 -2.5265  0.4849
 7531SOL    HW224462   0.546   7.089   5.181 -1.6677  1.8245  1.8970
 7532SOL     OW24463   1.454   5.230   7.646  0.2411 -0.3100 -0.5134
 7532SOL    HW124464   1.398   5.162   7.685 -1.0646 -0.6796 -2.8416
 7532SOL    HW224465   1.402   5.265   7.574  2.6230  0.0625 -2.1620
 7533SOL     OW24466   5.388   6.324   7.867  0.1491 -0.2956 -0.3013
 7533SOL    HW124467   5.359   6.404   7.910  1.1594 -0.4425  0.7017
 7533SOL    HW224468   5.344   6.325   7.782  0.5835  1.6004 -0.5534
 7534SOL     OW24469   3.091   0.836   7.845  0.5476 -0.2840 -0.0943
 7534SOL    HW124470   3.143   0.888   7.784  0.2177 -2.0152 -1.9739
 7534SOL    HW224471   3.067   0.758   7.795 -0.5321 -1.3724  1.9911
 7535SOL     OW24472   3.855   1.146   6.619  0.0738 -0.4621  0.0834
 7535SOL    HW124473   3.828   1.152   6.711 -1.2207  2.0636 -0.3880
 7535SOL    HW224474   3.948   1.167   6.619 -0.0304  0.0085  0.7594
 7536SOL     OW24475   2.665   3.184   2.921 -0.2378 -0.1650  0.0271
 7536SOL    HW124476   2.739   3.154   2.975  0.2757 -0.8388 -1.0230
 7536SOL    HW224477   2.691   3.164   2.831 -1.2829  0.5082 -0.4442
 7537SOL     OW24478   1.897   6.568   6.376 -0.1283  0.2262  0.3094
 7537SOL    HW124479   1.841   6.491   6.388 -0.4693  0.7301  2.3530
 7537SOL    HW224480   1.844   6.642   6.407  0.6077  1.1327 -0.5089
 7538SOL     OW24481   3.313   3.266   8.665 -0.7046  0.2512 -0.0310
 7538SOL    HW124482   3.228   3.299   8.635 -2.0499 -1.4627  1.7175
 7538SOL    HW224483   3.344   3.332   8.727 -2.2733 -0.5415  1.6754
 7539SOL     OW24484   5.915   3.934   4.409 -0.1192 -0.6245  0.1137
 7539SOL    HW124485   5.949   3.994   4.343  0.5471 -0.1439  0.8840
 7539SOL    HW224486   5.993   3.893   4.446 -0.5234 -1.3497  0.1765
 7540SOL     OW24487   7.285   8.877   8.197 -0.4114 -0.0367  0.3457
 7540SOL    HW124488   7.275   8.817   8.122 -1.0323 -1.6876  1.6956
 7540SOL    HW224489   7.339   8.949   8.163  3.0881 -2.8292 -0.5492
 7541SOL     OW24490   3.302   8.572   7.907 -0.8600  0.5553 -0.5447
 7541SOL    HW124491   3.264   8.488   7.931  0.7027 -0.3308 -1.0191
 7541SOL    HW224492   3.323   8.614   7.990 -2.8354  1.0925 -0.2704
 7542SOL     OW24493   3.119   4.512   5.053 -0.7342  0.2452 -0.1559
 7542SOL    HW124494   3.164   4.427   5.050 -0.6250  0.2846  0.2246
 7542SOL    HW224495   3.182   4.574   5.016  0.0708  0.5192  1.5394
 7543SOL     OW24496   8.906   4.804   4.293 -1.0266  0.0622  0.5263
 7543SOL    HW124497   8.984   4.859   4.283 -2.5068  2.0664 -0.6168
 7543SOL    HW224498   8.934   4.735   4.354  1.9413  0.0606 -0.6314
 7544SOL     OW24499   0.846   7.665   4.888 -0.2018 -0.1505  0.3288
 7544SOL    HW124500   0.912   7.682   4.955 -0.0442 -1.0475  0.4114
 7544SOL    HW224501   0.762   7.677   4.933 -0.0965 -0.6125  0.6530
 7545SOL     OW24502   6.933   7.841   3.328  0.2291 -0.2554  0.9542
 7545SOL    HW124503   7.016   7.836   3.376  1.0998 -1.7034 -0.5821
 7545SOL    HW224504   6.947   7.912   3.265  0.5452 -0.8846  0.3031
 7546SOL     OW24505   5.876   1.584   4.996 -0.0756 -0.2441 -0.6222
 7546SOL    HW124506   5.912   1.501   5.028 -0.5200 -0.2745 -0.1792
 7546SOL    HW224507   5.899   1.586   4.904 -0.5318 -1.1216 -0.7714
 7547SOL     OW24508   2.893   7.518   5.687  0.0054 -0.8877  0.3197
 7547SOL    HW124509   2.835   7.482   5.754 -0.8933 -2.9890 -1.4794
 7547SOL    HW224510   2.884   7.459   5.613  2.3106  0.3501 -1.0589
 7548SOL     OW24511   5.510   3.692   5.674 -0.3034  0.5843  0.2775
 7548SOL    HW124512   5.421   3.695   5.640  0.2732  1.2098 -1.2623
 7548SOL    HW224513   5.514   3.610   5.723 -1.3337 -0.1257 -0.7702
 7549SOL     OW24514   3.101   1.752   0.509 -0.0591  0.0434 -0.6160
 7549SOL    HW124515   3.101   1.757   0.413  1.3536 -0.5519 -0.6874
 7549SOL    HW224516   3.173   1.691   0.528 -0.7330 -0.3322  0.8025
 7550SOL     OW24517   5.387   1.372   7.589 -0.6484  0.5007  0.4000
 7550SOL    HW124518   5.324   1.326   7.533 -1.9137  0.4852  1.7883
 7550SOL    HW224519   5.335   1.438   7.634  0.5953  1.3501  0.6198
 7551SOL     OW24520   8.233   6.871   2.835  0.3345  0.0323 -0.0720
 7551SOL    HW124521   8.293   6.836   2.901 -0.7566  0.2889  1.0700
 7551SOL    HW224522   8.149   6.829   2.853 -0.1303  0.5600 -0.9281
 7552SOL     OW24523   8.970   5.833   1.454 -0.8703 -0.3238 -0.4485
 7552SOL    HW124524   9.029   5.871   1.389 -0.9284 -0.4651 -0.5852
 7552SOL    HW224525   8.917   5.771   1.404 -2.5660  1.3020 -0.7559
 7553SOL     OW24526   3.714   1.263   2.162 -1.1134 -0.0598 -0.0645
 7553SOL    HW124527   3.705   1.359   2.161  2.0110  0.3486 -0.6030
 7553SOL    HW224528   3.741   1.243   2.251  0.1955 -0.1401 -0.4591
 7554SOL     OW24529   2.090   6.036   1.093  0.0045  0.5567 -1.0211
 7554SOL    HW124530   2.057   6.056   1.180 -0.5516 -1.3439 -0.7488
 7554SOL    HW224531   2.183   6.058   1.096 -0.2429  1.5776 -0.3346
 7555SOL     OW24532   1.531   5.988   0.387  0.3561  0.3811 -0.1649
 7555SOL    HW124533   1.451   5.950   0.422 -0.1180 -0.0981 -1.7113
 7555SOL    HW224534   1.531   6.078   0.419 -1.8822  1.0416 -1.8138
 7556SOL     OW24535   5.288   3.283   3.452 -0.2397  0.6781 -0.7294
 7556SOL    HW124536   5.340   3.218   3.498 -0.9202  0.3303 -0.4315
 7556SOL    HW224537   5.263   3.240   3.370 -0.2976  0.7405 -0.7447
 7557SOL     OW24538   0.486   2.073   4.026  0.1883  0.5856  0.5110
 7557SOL    HW124539   0.486   1.983   3.994 -0.0406  0.9843 -0.6398
 7557SOL    HW224540   0.410   2.076   4.085 -0.4852  0.3243 -0.3251
 7558SOL     OW24541   7.241   5.827   4.660  0.5676 -0.1365  0.2551
 7558SOL    HW124542   7.177   5.867   4.601 -0.3626 -0.6766  0.8705
 7558SOL    HW224543   7.324   5.834   4.614  0.3400  1.9147  0.0648
 7559SOL     OW24544   1.468   3.446   1.897 -0.2908  0.2961 -0.6823
 7559SOL    HW124545   1.423   3.515   1.848 -0.5946  1.0001  0.5460
 7559SOL    HW224546   1.529   3.408   1.834  0.8364  2.5660 -1.0527
 7560SOL     OW24547   8.920   3.835   7.461  0.0157  0.6236  0.0227
 7560SOL    HW124548   9.006   3.831   7.419 -0.6794 -0.1037 -1.4205
 7560SOL    HW224549   8.901   3.929   7.464  0.9981  0.8190  0.6893
 7561SOL     OW24550   2.083   1.238   7.727  0.2529  0.2069  0.1118
 7561SOL    HW124551   2.098   1.280   7.642 -0.4978  0.8382  0.2816
 7561SOL    HW224552   1.991   1.212   7.725  0.5080 -0.7481  0.3183
 7562SOL     OW24553   7.129   1.642   1.148 -0.3392 -0.3813  0.5171
 7562SOL    HW124554   7.045   1.643   1.193 -1.0752 -0.6804 -0.8195
 7562SOL    HW224555   7.166   1.729   1.163 -0.2361 -0.6724  2.2415
 7563SOL     OW24556   6.156   1.467   1.385 -0.6116 -0.2323 -0.0858
 7563SOL    HW124557   6.168   1.401   1.316  0.2047  1.5003 -1.6942
 7563SOL    HW224558   6.084   1.434   1.438 -0.4033 -2.2722 -0.9776
 7564SOL     OW24559   4.790   2.782   5.484  0.6727  0.1613 -0.4933
 7564SOL    HW124560   4.708   2.784   5.435  1.3344  0.0280 -1.6458
 7564SOL    HW224561   4.782   2.705   5.540 -0.2351  0.5061 -0.1338
 7565SOL     OW24562   2.739   7.146   5.811  0.0117  0.2405 -0.0677
 7565SOL    HW124563   2.806   7.081   5.795  0.9958  1.5447 -1.5413
 7565SOL    HW224564   2.663   7.096   5.842  1.5069 -1.2975  1.2813
 7566SOL     OW24565   5.455   6.640   3.837  0.3488  0.3419 -0.2808
 7566SOL    HW124566   5.520   6.610   3.899 -1.8935 -4.1907  0.3139
 7566SOL    HW224567   5.394   6.693   3.888 -0.5674 -1.9655  1.1554
 7567SOL     OW24568   4.158   1.967   3.329  0.5878  0.2885  0.3571
 7567SOL    HW124569   4.110   1.886   3.315  1.2784 -0.2722  1.1685
 7567SOL    HW224570   4.103   2.019   3.387  0.1733  0.3765 -0.1131
 7568SOL     OW24571   8.873   6.998   7.257  0.0612  0.3121  0.2028
 7568SOL    HW124572   8.915   6.937   7.318  2.3964 -0.4078 -1.9506
 7568SOL    HW224573   8.787   6.960   7.241  0.4519 -0.9553  0.9481
 7569SOL     OW24574   6.942   4.943   3.092  0.0188  0.4731 -0.2767
 7569SOL    HW124575   6.862   4.944   3.144  0.6597  1.2576  0.7576
 7569SOL    HW224576   6.915   4.912   3.006 -1.2736  0.1330  0.2254
 7570SOL     OW24577   1.044   8.954   1.378 -0.4368 -0.4638  0.7757
 7570SOL    HW124578   1.069   8.901   1.302  1.5955  0.8133  0.4808
 7570SOL    HW224579   1.019   8.890   1.445 -1.2972 -1.6467 -0.6202
 7571SOL     OW24580   8.749   6.675   3.810 -0.3059 -0.0312  0.2766
 7571SOL    HW124581   8.818   6.739   3.827 -0.6210  0.2684  0.4156
 7571SOL    HW224582   8.673   6.727   3.786 -0.4297 -0.3730 -0.0761
 7572SOL     OW24583   0.728   7.433   8.363  0.5055 -0.3495  0.3524
 7572SOL    HW124584   0.786   7.385   8.422  0.3290  0.1459  0.9315
 7572SOL    HW224585   0.651   7.453   8.416 -0.5816 -1.7242 -0.6331
 7573SOL     OW24586   6.367   1.076   4.367 -0.0284  0.8848 -0.2255
 7573SOL    HW124587   6.439   1.060   4.428  0.6824 -3.3112 -1.8782
 7573SOL    HW224588   6.292   1.094   4.424  0.8780 -1.4463  1.9319
 7574SOL     OW24589   6.886   4.936   2.778 -0.4071 -0.1152  0.6752
 7574SOL    HW124590   6.907   4.902   2.691  1.8016  0.9852  0.6968
 7574SOL    HW224591   6.855   5.025   2.762  0.0175  0.0955  0.9808
 7575SOL     OW24592   6.491   8.325   8.795 -0.7502  0.2801 -0.1281
 7575SOL    HW124593   6.476   8.328   8.890  0.6558 -0.6616  0.1582
 7575SOL    HW224594   6.563   8.262   8.784 -0.7234  0.5548 -1.8057
 7576SOL     OW24595   5.914   4.838   5.339  0.0170  0.0505  0.3079
 7576SOL    HW124596   5.904   4.744   5.325 -2.3292  0.0595  1.4847
 7576SOL    HW224597   6.007   4.855   5.322  0.1936 -2.1811 -1.4378
 7577SOL     OW24598   7.579   0.052   1.165 -0.6871 -0.0968  0.2666
 7577SOL    HW124599   7.651  -0.009   1.179  1.2195  1.5723 -1.5670
 7577SOL    HW224600   7.574   0.102   1.247 -2.4437 -2.6672  1.8956
 7578SOL     OW24601   1.285   5.209   6.731 -0.1204  0.2033 -0.0603
 7578SOL    HW124602   1.368   5.162   6.721 -0.1627 -0.1996  1.3369
 7578SOL    HW224603   1.218   5.144   6.708 -0.0791  0.5535 -1.2741
 7579SOL     OW24604   5.026   3.827   5.365 -0.4097  0.2030  0.5588
 7579SOL    HW124605   5.064   3.817   5.278  0.7048 -1.2237  1.1600
 7579SOL    HW224606   5.083   3.890   5.409 -1.8071  2.0703 -0.1342
 7580SOL     OW24607   8.096   7.511   0.197  0.4708 -0.1526  0.4230
 7580SOL    HW124608   8.122   7.436   0.143  0.3291  0.4263 -0.4780
 7580SOL    HW224609   8.049   7.473   0.270 -1.0489 -0.8786 -0.8715
 7581SOL     OW24610   0.593   2.126   8.434 -0.4549  0.4081  0.3848
 7581SOL    HW124611   0.610   2.200   8.377 -0.3248 -0.5230 -0.8331
 7581SOL    HW224612   0.514   2.150   8.483 -0.9677  0.9629 -0.6900
 7582SOL     OW24613   8.675   1.625   4.472  0.6994 -0.2008  0.4653
 7582SOL    HW124614   8.731   1.595   4.400  0.2085  0.6785 -0.3046
 7582SOL    HW224615   8.627   1.699   4.435 -0.5672 -0.5911  1.2752
 7583SOL     OW24616   2.814   8.901   1.100 -0.1924  0.2065  0.2938
 7583SOL    HW124617   2.819   8.849   1.019 -1.1149 -0.7139  0.7961
 7583SOL    HW224618   2.777   8.840   1.164  0.4160  0.9639  1.3815
 7584SOL     OW24619   2.776   8.513   2.640 -0.1331  0.1354  0.5242
 7584SOL    HW124620   2.794   8.526   2.547  0.6433  0.5134  0.7166
 7584SOL    HW224621   2.832   8.440   2.666 -0.4420 -0.0512  0.6603
 7585SOL     OW24622   3.984   2.802   0.656 -0.4720 -0.5670 -0.1280
 7585SOL    HW124623   3.981   2.855   0.576  0.9165  1.1419  0.8742
 7585SOL    HW224624   3.903   2.751   0.654 -1.9586  1.6798 -1.1241
 7586SOL     OW24625   1.610   3.865   3.421 -0.2243  0.4865  0.2243
 7586SOL    HW124626   1.563   3.796   3.468  0.2423  0.1830  0.2513
 7586SOL    HW224627   1.578   3.947   3.459 -1.2442  0.3120 -0.2396
 7587SOL     OW24628   2.821   4.258   4.889  0.2152 -0.2258  0.7800
 7587SOL    HW124629   2.778   4.283   4.807 -0.1600  0.2928  1.1331
 7587SOL    HW224630   2.850   4.168   4.873  2.3677  0.6547 -0.8308
 7588SOL     OW24631   6.439   3.488   7.324 -0.3937 -0.0887  0.1676
 7588SOL    HW124632   6.416   3.560   7.383 -3.3042 -1.6370  1.1258
 7588SOL    HW224633   6.473   3.419   7.382  0.3628 -0.2638 -0.4703
 7589SOL     OW24634   1.209   1.213   2.516  0.0931 -0.2077 -0.1620
 7589SOL    HW124635   1.216   1.297   2.561  0.0663 -0.2394 -0.0979
 7589SOL    HW224636   1.287   1.209   2.460  0.0770 -0.1258 -0.1901
 7590SOL     OW24637   0.609   4.365   6.897 -0.3128 -0.0199  0.5855
 7590SOL    HW124638   0.641   4.429   6.833  0.0864  0.1191  0.9170
 7590SOL    HW224639   0.517   4.387   6.909 -0.3319  0.0998  0.2325
 7591SOL     OW24640   4.228   8.169   6.227  0.3196 -0.2326 -0.3706
 7591SOL    HW124641   4.263   8.191   6.314 -2.0656 -1.0286  0.8807
 7591SOL    HW224642   4.229   8.251   6.179 -1.8619  1.1666  1.7729
 7592SOL     OW24643   3.687   0.062   8.448 -0.5351 -0.2149 -0.8265
 7592SOL    HW124644   3.613   0.049   8.389 -1.1146 -0.8716  0.0394
 7592SOL    HW224645   3.710  -0.026   8.477  0.7699 -0.0536 -1.2881
 7593SOL     OW24646   3.326   8.921   2.804 -0.4079  0.0039 -0.0439
 7593SOL    HW124647   3.248   8.865   2.807 -0.5961  0.2835  0.3658
 7593SOL    HW224648   3.386   8.883   2.868  0.0994 -0.6511 -0.8923
 7594SOL     OW24649   2.012   0.874   7.297 -0.1268  0.3699  0.1383
 7594SOL    HW124650   2.040   0.898   7.209  0.9908 -0.0119  0.3779
 7594SOL    HW224651   2.092   0.874   7.349 -0.6075 -0.4789  0.9129
 7595SOL     OW24652   7.520   2.002   0.177 -0.2005 -0.1561 -0.0807
 7595SOL    HW124653   7.514   1.908   0.164  1.1212 -0.4308  1.0827
 7595SOL    HW224654   7.559   2.012   0.264 -0.2453  1.4596 -0.2210
 7596SOL     OW24655   7.563   6.850   5.171  0.5596  0.1337 -0.1486
 7596SOL    HW124656   7.607   6.809   5.096 -1.7589 -0.2929 -1.3631
 7596SOL    HW224657   7.497   6.787   5.198  0.4719  0.8560  1.4241
 7597SOL     OW24658   1.436   0.262   0.940 -0.0183  0.4528 -0.3225
 7597SOL    HW124659   1.347   0.298   0.932 -0.6962 -1.1076 -0.1670
 7597SOL    HW224660   1.460   0.240   0.850  0.0665  0.5278 -0.3183
 7598SOL     OW24661   5.001   2.214   6.924 -0.1331  0.3888  0.5214
 7598SOL    HW124662   4.911   2.244   6.907 -0.0963  0.3109  0.1790
 7598SOL    HW224663   4.998   2.178   7.012  0.0403  2.3181  1.3841
 7599SOL     OW24664   6.234   0.035   2.377 -0.2973  0.0380  0.2373
 7599SOL    HW124665   6.192   0.037   2.291  0.7130  1.7687 -0.2711
 7599SOL    HW224666   6.244  -0.058   2.396 -0.9104 -0.3883 -1.3400
 7600SOL     OW24667   5.776   8.197   7.824 -0.0412  0.7529 -0.2286
 7600SOL    HW124668   5.707   8.181   7.759  0.0428  1.0214 -0.3844
 7600SOL    HW224669   5.747   8.274   7.872 -0.1047  0.5562  0.0602
 7601SOL     OW24670   8.953   7.023   8.368 -0.1074  0.2370  0.2150
 7601SOL    HW124671   9.023   6.994   8.309 -0.1848  2.7520 -1.2521
 7601SOL    HW224672   8.880   7.044   8.310 -0.2978  2.4945  1.1750
 7602SOL     OW24673   1.970   3.938   1.289  0.2280 -0.1403  0.1877
 7602SOL    HW124674   1.899   3.966   1.232  0.5128 -1.0126 -0.6382
 7602SOL    HW224675   1.989   3.848   1.261  2.2460  0.3610 -0.2489
 7603SOL     OW24676   8.589   6.066   7.727  0.2735 -0.4485  0.6868
 7603SOL    HW124677   8.518   6.113   7.684  0.0349 -1.5091 -0.1378
 7603SOL    HW224678   8.546   5.993   7.772  0.9451 -2.4762 -1.7002
 7604SOL     OW24679   3.364   1.502   6.029 -0.6753  0.0321 -0.4687
 7604SOL    HW124680   3.384   1.418   6.069 -0.3988 -1.1467 -2.9264
 7604SOL    HW224681   3.270   1.500   6.014 -0.9265  0.8338  0.7782
 7605SOL     OW24682   8.496   4.963   1.343  0.2402  0.5604 -0.2600
 7605SOL    HW124683   8.421   4.930   1.392 -0.3711  1.0417 -0.8542
 7605SOL    HW224684   8.472   4.951   1.251  0.6839  1.1613 -0.4628
 7606SOL     OW24685   0.871   2.324   3.543  0.0025 -0.2914  0.1929
 7606SOL    HW124686   0.877   2.364   3.457  0.3189  1.3005  0.9166
 7606SOL    HW224687   0.782   2.288   3.547  0.2145 -0.9887 -1.0272
 7607SOL     OW24688   5.408   6.994   3.076  0.2558  0.1104  0.2783
 7607SOL    HW124689   5.501   7.008   3.094  0.2187  1.9842 -0.7849
 7607SOL    HW224690   5.406   6.914   3.024  1.3615  0.3867 -0.2323
 7608SOL     OW24691   5.985   0.509   2.138 -0.4697  0.0317 -0.2740
 7608SOL    HW124692   6.017   0.592   2.101 -1.0780 -0.2204 -1.3829
 7608SOL    HW224693   5.956   0.532   2.226  1.9502  0.4499  0.5137
 7609SOL     OW24694   5.759   4.691   8.080  0.2963 -0.0739  0.2302
 7609SOL    HW124695   5.808   4.652   8.008 -0.1118 -1.8571  0.8796
 7609SOL    HW224696   5.682   4.730   8.038  2.0540  2.6343 -0.7839
 7610SOL     OW24697   7.536   0.713   2.363  0.2218  0.0878 -0.0731
 7610SOL    HW124698   7.621   0.676   2.385 -1.2558 -3.1994  0.7605
 7610SOL    HW224699   7.504   0.750   2.445  0.3109  0.1673 -0.0739
 7611SOL     OW24700   7.555   7.872   4.542  0.9341 -0.2867 -0.2374
 7611SOL    HW124701   7.477   7.875   4.598  0.1286 -1.5325 -1.2371
 7611SOL    HW224702   7.623   7.834   4.597  0.5516 -0.1423  0.3428
 7612SOL     OW24703   0.083   1.357   7.943 -0.0644  0.4781 -0.1651
 7612SOL    HW124704   0.080   1.446   7.910 -0.3601  0.5198 -0.0256
 7612SOL    HW224705   0.176   1.333   7.937  0.0773  0.9335  0.1742
 7613SOL     OW24706   5.950   3.839   6.181 -0.8643  0.2678  0.3897
 7613SOL    HW124707   5.984   3.762   6.226 -1.9141  0.3889  1.4141
 7613SOL    HW224708   5.871   3.808   6.137 -1.6811  0.9059  1.3808
 7614SOL     OW24709   0.826   6.442   4.276 -0.5086  0.2633  0.4896
 7614SOL    HW124710   0.797   6.532   4.290  2.1198  0.9176  2.6987
 7614SOL    HW224711   0.916   6.451   4.243 -0.1811 -1.5584  0.7803
 7615SOL     OW24712   3.287   7.789   1.923  0.5169  0.3503  0.1735
 7615SOL    HW124713   3.205   7.809   1.968  0.3209  1.5734 -0.6838
 7615SOL    HW224714   3.353   7.792   1.992  0.0498  0.9127  0.6104
 7616SOL     OW24715   0.022   8.917   6.551  0.5076 -0.0999  0.7897
 7616SOL    HW124716  -0.073   8.930   6.553  0.3291 -0.8361 -1.0026
 7616SOL    HW224717   0.033   8.822   6.562  1.0667  0.0299  1.3868
 7617SOL     OW24718   7.900   6.490   8.651 -0.3041 -0.0489 -0.2647
 7617SOL    HW124719   7.819   6.506   8.603 -0.9672  0.1486  0.8734
 7617SOL    HW224720   7.879   6.417   8.709  0.2234  0.2250  0.2806
 7618SOL     OW24721   8.500   8.202   7.651 -0.0744 -0.0582 -0.1241
 7618SOL    HW124722   8.523   8.293   7.636  0.7668 -0.0490  1.0761
 7618SOL    HW224723   8.524   8.186   7.743  0.0998 -1.5764 -0.4113
 7619SOL     OW24724   6.141   5.167   4.242  0.1240  0.1090 -0.7680
 7619SOL    HW124725   6.099   5.247   4.273  0.1353 -1.0078  2.5714
 7619SOL    HW224726   6.076   5.127   4.184 -2.6064 -0.3884  2.3503
 7620SOL     OW24727   3.439   5.815   7.491  0.5895 -0.0167  0.1345
 7620SOL    HW124728   3.527   5.783   7.513 -0.1074 -0.9582  1.7997
 7620SOL    HW224729   3.452   5.870   7.414  2.4376 -1.1953 -0.4606
 7621SOL     OW24730   5.536   1.109   4.510 -0.5144  0.3363 -0.4196
 7621SOL    HW124731   5.480   1.183   4.486  1.2455  2.0248  0.3973
 7621SOL    HW224732   5.623   1.136   4.481  0.1085 -1.6319 -0.4745
 7622SOL     OW24733   7.279   0.970   6.195  0.5155 -0.2693  0.4188
 7622SOL    HW124734   7.243   1.030   6.130  0.3283  0.8229  1.4978
 7622SOL    HW224735   7.202   0.940   6.244  0.6290 -1.2618  0.0162
 7623SOL     OW24736   8.695   8.075   6.656 -0.5019  0.1135  0.1044
 7623SOL    HW124737   8.683   8.031   6.572 -0.6184 -0.1380  0.2519
 7623SOL    HW224738   8.759   8.144   6.638 -1.3444  0.7631 -0.4361
 7624SOL     OW24739   3.875   7.905   6.608 -0.0107 -0.1568 -0.3333
 7624SOL    HW124740   3.940   7.956   6.559  0.4135 -1.0436 -0.7154
 7624SOL    HW224741   3.832   7.851   6.541 -1.2229  0.4783 -0.1033
 7625SOL     OW24742   1.823   8.949   0.376  0.0102 -0.1408 -0.1529
 7625SOL    HW124743   1.916   8.943   0.400 -0.1855 -0.2824  0.5965
 7625SOL    HW224744   1.797   8.859   0.358 -0.4546 -0.3907  1.5408
 7626SOL     OW24745   4.647   7.034   6.040  0.2520 -1.0706 -0.3331
 7626SOL    HW124746   4.651   7.038   5.945  2.5109 -1.2280 -0.3128
 7626SOL    HW224747   4.556   7.054   6.062 -0.4721 -1.6528 -2.5326
 7627SOL     OW24748   6.591   2.749   8.056  0.2169 -0.4197  0.9667
 7627SOL    HW124749   6.667   2.777   8.003 -0.4816 -1.8506 -0.8882
 7627SOL    HW224750   6.561   2.668   8.015 -0.9693 -1.1108  3.0426
 7628SOL     OW24751   5.197   5.076   6.033 -0.0146  0.0156 -0.4544
 7628SOL    HW124752   5.264   5.009   6.044 -0.6034 -0.5316 -0.1038
 7628SOL    HW224753   5.192   5.090   5.938 -0.0229 -0.5831 -0.5460
 7629SOL     OW24754   3.653   0.377   8.442  0.5737 -0.0030  0.1382
 7629SOL    HW124755   3.693   0.292   8.426  0.6495 -0.9003  4.0425
 7629SOL    HW224756   3.724   0.440   8.428  1.9025 -1.0818  1.6627
 7630SOL     OW24757   0.546   0.029   8.382  0.6998  0.1346 -0.0432
 7630SOL    HW124758   0.552   0.044   8.476  2.0654  1.9324 -0.3753
 7630SOL    HW224759   0.488  -0.047   8.374 -0.4759  0.7120  2.1758
 7631SOL     OW24760   0.644   3.403   1.804  0.0560  0.0146  0.7460
 7631SOL    HW124761   0.620   3.472   1.742  1.8207  0.0757  0.0705
 7631SOL    HW224762   0.594   3.423   1.883 -0.0040  1.6585  0.3242
 7632SOL     OW24763   6.963   4.661   5.535  0.1337 -0.3853 -0.0060
 7632SOL    HW124764   6.967   4.753   5.563 -3.2527  0.0862 -0.6049
 7632SOL    HW224765   7.048   4.645   5.494  0.7753  2.5466 -0.0592
 7633SOL     OW24766   8.541   1.320   8.650 -0.6785 -0.5048  0.1102
 7633SOL    HW124767   8.485   1.248   8.621  0.6069 -0.8290 -1.7139
 7633SOL    HW224768   8.538   1.384   8.578  0.5004 -0.0770  0.4184
 7634SOL     OW24769   1.665   7.713   4.805 -0.0187 -0.3007 -1.0453
 7634SOL    HW124770   1.627   7.698   4.891  1.3423 -1.1177 -0.5620
 7634SOL    HW224771   1.709   7.798   4.812  1.3961 -1.0560 -0.4292
 7635SOL     OW24772   4.259   1.363   4.769 -0.5496 -0.1457 -0.0688
 7635SOL    HW124773   4.326   1.381   4.702  0.8820 -0.5022  1.2102
 7635SOL    HW224774   4.264   1.438   4.828 -1.1952 -0.2516  0.1218
 7636SOL     OW24775   2.169   2.520   8.202  0.4351 -0.4091  0.5616
 7636SOL    HW124776   2.211   2.594   8.246  0.9975  0.4207 -1.2733
 7636SOL    HW224777   2.237   2.483   8.147 -1.0628  0.9079 -2.4288
 7637SOL     OW24778   2.351   1.915   1.345 -0.3170  0.2957 -0.2425
 7637SOL    HW124779   2.365   1.822   1.364  0.3534  0.0505 -1.7422
 7637SOL    HW224780   2.432   1.942   1.301 -0.6562  1.5007 -0.1514
 7638SOL     OW24781   4.818   2.609   0.905 -0.7066  0.1854 -0.0621
 7638SOL    HW124782   4.734   2.583   0.870 -0.2721 -0.3010 -0.7588
 7638SOL    HW224783   4.837   2.693   0.864 -0.5010 -0.0749 -0.5140
 7639SOL     OW24784   5.595   5.565   3.858  0.6483  0.0888  0.0397
 7639SOL    HW124785   5.652   5.636   3.887  0.0811  0.3578  0.5125
 7639SOL    HW224786   5.655   5.495   3.831  1.2347  1.1261 -1.4542
 7640SOL     OW24787   6.827   6.357   4.117  0.2818  0.0939  0.7972
 7640SOL    HW124788   6.802   6.271   4.083  0.3941  1.3288 -2.8912
 7640SOL    HW224789   6.745   6.397   4.145 -0.4054  0.1765 -1.1877
 7641SOL     OW24790   4.221   3.227   7.874 -0.0226 -0.5727 -0.2485
 7641SOL    HW124791   4.210   3.152   7.815  1.0793 -0.3769 -0.7360
 7641SOL    HW224792   4.314   3.247   7.869 -0.4267  1.3574 -0.7961
 7642SOL     OW24793   0.462   3.229   2.393  0.7433 -0.3794 -0.0151
 7642SOL    HW124794   0.452   3.299   2.328 -2.7516 -1.4546 -0.8564
 7642SOL    HW224795   0.453   3.148   2.342  0.3723 -1.3089  1.4782
 7643SOL     OW24796   7.443   3.119   6.787 -0.4494  0.3530  0.1953
 7643SOL    HW124797   7.480   3.198   6.747  1.5398 -0.6614 -0.1298
 7643SOL    HW224798   7.511   3.089   6.847 -1.4787 -0.7052  0.8648
 7644SOL     OW24799   1.690   0.622   4.507  0.2442 -0.3438  0.4324
 7644SOL    HW124800   1.629   0.682   4.549  0.7108  0.9636 -0.6841
 7644SOL    HW224801   1.776   0.662   4.519  0.5628 -0.7615 -0.3842
 7645SOL     OW24802   0.210   0.929   7.158  0.1066 -0.3198 -0.5742
 7645SOL    HW124803   0.175   0.989   7.092  1.2071  0.5568 -0.3868
 7645SOL    HW224804   0.300   0.913   7.130  0.0043 -1.4580 -0.3049
 7646SOL     OW24805   2.066   5.071   8.469  0.3048 -0.1742  0.3483
 7646SOL    HW124806   2.149   5.035   8.439  0.3012  0.3876 -0.3754
 7646SOL    HW224807   2.024   4.999   8.516  1.1703 -0.4807  0.6828
 7647SOL     OW24808   6.155   5.567   3.337 -0.0788  0.3591 -0.1335
 7647SOL    HW124809   6.170   5.632   3.405  1.0203  0.1212 -0.1348
 7647SOL    HW224810   6.065   5.537   3.352 -0.2500  1.1391  0.4855
 7648SOL     OW24811   8.520   5.115   0.024  0.2777  0.9916 -0.1659
 7648SOL    HW124812   8.547   5.044   0.084 -1.5719 -0.9806 -1.5097
 7648SOL    HW224813   8.562   5.093  -0.059 -0.1727  1.5730 -0.5521
 7649SOL     OW24814   6.812   6.604   6.692  0.5469 -0.4875  0.2596
 7649SOL    HW124815   6.893   6.626   6.646  0.0865 -2.1781 -1.4675
 7649SOL    HW224816   6.842   6.556   6.770  1.2390  0.4019  0.5690
 7650SOL     OW24817   8.300   3.646   8.235  0.1278  0.5715 -0.2495
 7650SOL    HW124818   8.254   3.728   8.222 -1.9972 -0.3451  0.9893
 7650SOL    HW224819   8.327   3.647   8.326  1.3126  0.4632 -0.5833
 7651SOL     OW24820   4.275   1.063   7.581 -0.5922  0.0477 -0.4353
 7651SOL    HW124821   4.310   1.147   7.551 -1.7037  0.0201 -1.8587
 7651SOL    HW224822   4.221   1.086   7.657 -1.2616  0.6944 -1.0906
 7652SOL     OW24823   0.684   7.341   2.359  0.8084  0.9005 -0.4102
 7652SOL    HW124824   0.751   7.409   2.369  2.1619 -0.2755 -1.1748
 7652SOL    HW224825   0.731   7.259   2.374 -0.9032  0.1137  1.0281
 7653SOL     OW24826   7.368   4.993   6.949 -0.3949 -0.1923 -0.1220
 7653SOL    HW124827   7.457   4.967   6.970 -0.8294 -0.9529  0.8527
 7653SOL    HW224828   7.317   4.968   7.026 -1.1771  1.7968  0.0539
 7654SOL     OW24829   8.680   8.664   7.179 -0.0373 -0.3794 -0.5522
 7654SOL    HW124830   8.736   8.738   7.155  0.4259 -0.7748 -0.6917
 7654SOL    HW224831   8.662   8.621   7.095  0.0186 -0.6559 -0.4207
 7655SOL     OW24832   0.964   0.646   1.098 -0.1978 -0.1332  0.4012
 7655SOL    HW124833   0.949   0.695   1.179  0.5077 -0.9486  1.0528
 7655SOL    HW224834   0.899   0.679   1.037 -2.0702 -0.8451  1.9050
 7656SOL     OW24835   1.001   8.174   6.460 -0.6743 -0.0023  0.1440
 7656SOL    HW124836   0.944   8.248   6.439 -0.1450  0.5660  0.6502
 7656SOL    HW224837   1.041   8.149   6.377  0.3124  1.2922  0.1898
 7657SOL     OW24838   5.086   7.675   5.013  0.1854  0.1092  0.3675
 7657SOL    HW124839   5.069   7.633   5.098 -0.2890 -1.1870 -0.3383
 7657SOL    HW224840   5.178   7.656   4.995  0.0458 -0.4111  0.1811
 7658SOL     OW24841   7.207   1.935   1.694 -0.5397  0.3480  0.0277
 7658SOL    HW124842   7.261   1.871   1.648 -0.5185  0.1879  0.2704
 7658SOL    HW224843   7.248   2.019   1.675 -1.4589  0.4808 -1.5868
 7659SOL     OW24844   6.461   6.055   6.138  0.0768 -0.3398 -0.1058
 7659SOL    HW124845   6.385   6.114   6.136  0.3793  0.1320  1.1939
 7659SOL    HW224846   6.535   6.113   6.159  0.5765 -1.0004 -0.0311
 7660SOL     OW24847   6.368   5.091   2.909 -0.2918  0.2141  0.3985
 7660SOL    HW124848   6.408   5.178   2.913  0.3094 -0.0091 -0.6288
 7660SOL    HW224849   6.442   5.030   2.915 -0.5043 -0.2035 -0.9143
 7661SOL     OW24850   3.278   1.311   5.604 -0.0555  0.6073 -0.3962
 7661SOL    HW124851   3.328   1.344   5.529 -0.7456 -0.6685 -1.4608
 7661SOL    HW224852   3.336   1.248   5.646 -0.2505  0.1525 -0.8062
 7662SOL     OW24853   7.995   4.876   5.556 -0.0534 -0.0226  0.1011
 7662SOL    HW124854   7.912   4.888   5.601 -0.0475  0.1357  0.0694
 7662SOL    HW224855   7.973   4.880   5.463  0.1913  1.4074  0.0903
 7663SOL     OW24856   3.267   5.278   1.232  0.3660  0.0992  0.7456
 7663SOL    HW124857   3.216   5.297   1.153 -1.8629 -0.7627  1.8779
 7663SOL    HW224858   3.313   5.360   1.250 -0.7785  1.0262 -0.2663
 7664SOL     OW24859   7.604   3.144   6.237  0.4709  0.1558  0.2115
 7664SOL    HW124860   7.595   3.170   6.146 -2.0492 -0.1381  0.3030
 7664SOL    HW224861   7.620   3.049   6.234 -1.2161 -0.1524  0.0587
 7665SOL     OW24862   0.335   2.803   4.435 -0.1610  0.4012 -0.3794
 7665SOL    HW124863   0.413   2.819   4.489 -0.7126  1.0443  0.2435
 7665SOL    HW224864   0.366   2.746   4.365  0.7118  0.0542  0.2664
 7666SOL     OW24865   4.878   0.526   0.475  0.0576  0.0502  0.6490
 7666SOL    HW124866   4.923   0.511   0.392  1.7064 -2.6507  1.8904
 7666SOL    HW224867   4.788   0.495   0.460  0.0692  0.4598 -0.3462
 7667SOL     OW24868   7.252   5.608   5.303 -0.5588 -0.6433 -0.1023
 7667SOL    HW124869   7.277   5.516   5.290 -1.7276 -0.9270 -0.4339
 7667SOL    HW224870   7.202   5.608   5.384 -0.8980 -0.3686 -0.3082
 7668SOL     OW24871   3.417   4.877   4.805  0.0758 -0.5244 -0.0283
 7668SOL    HW124872   3.378   4.803   4.759 -3.0930  0.0749  1.4187
 7668SOL    HW224873   3.437   4.940   4.735 -1.8959 -0.7837 -0.8995
 7669SOL     OW24874   5.387   8.947   3.644  0.2288 -0.5268  0.7261
 7669SOL    HW124875   5.426   9.023   3.687  0.7023 -0.6018  0.4374
 7669SOL    HW224876   5.459   8.884   3.639 -0.0028 -0.7648  0.4182
 7670SOL     OW24877   1.699   8.767   1.309 -0.3856  0.1147 -0.3288
 7670SOL    HW124878   1.688   8.679   1.273 -2.9139  0.4130 -0.5284
 7670SOL    HW224879   1.758   8.756   1.383 -0.3174 -1.6675 -0.6085
 7671SOL     OW24880   3.551   6.106   3.677  0.3351  0.3389  0.4396
 7671SOL    HW124881   3.551   6.106   3.772 -1.1775 -0.1489  0.4710
 7671SOL    HW224882   3.590   6.022   3.652  0.5666  0.3906  0.6331
 7672SOL     OW24883   5.642   2.974   0.499 -0.2747  0.6699  0.2267
 7672SOL    HW124884   5.582   2.911   0.459 -0.8531  0.0123  2.0293
 7672SOL    HW224885   5.726   2.958   0.458 -0.8692  0.1397 -0.8110
 7673SOL     OW24886   7.805   6.472   4.495  0.5881  0.0929 -0.2497
 7673SOL    HW124887   7.724   6.452   4.542 -0.3705  1.4833 -1.1898
 7673SOL    HW224888   7.864   6.399   4.514 -0.7747 -0.7906  0.7304
 7674SOL     OW24889   8.401   7.837   4.913 -0.3559  0.0159  0.1839
 7674SOL    HW124890   8.388   7.743   4.914 -1.9811  0.1918 -0.6482
 7674SOL    HW224891   8.442   7.855   4.829 -0.1947  0.0616  0.2721
 7675SOL     OW24892   5.895   5.452   1.715 -0.5128 -0.2429 -0.3169
 7675SOL    HW124893   5.894   5.374   1.659  1.8688  1.3180 -2.7850
 7675SOL    HW224894   5.883   5.418   1.804  0.0653 -3.3717 -1.3149
 7676SOL     OW24895   7.581   7.877   8.090 -0.4467  0.0540 -0.2992
 7676SOL    HW124896   7.656   7.858   8.033 -0.7241  1.3865 -1.1540
 7676SOL    HW224897   7.504   7.855   8.036 -0.7299 -2.2070  0.8904
 7677SOL     OW24898   4.369   1.799   6.966  0.1229  0.0195 -0.2411
 7677SOL    HW124899   4.409   1.821   6.882 -0.0525  2.8959  0.3127
 7677SOL    HW224900   4.421   1.846   7.030  2.3139 -4.6251  1.8276
 7678SOL     OW24901   7.437   8.177   4.759 -0.1469 -0.1212  0.1044
 7678SOL    HW124902   7.346   8.179   4.730 -0.2223  0.7353  0.3557
 7678SOL    HW224903   7.433   8.195   4.853  0.3202  0.6702 -0.0131
 7679SOL     OW24904   7.637   8.031   7.753  0.0157 -0.3235  0.6123
 7679SOL    HW124905   7.677   7.950   7.784  0.9050 -0.3106 -0.4428
 7679SOL    HW224906   7.631   8.020   7.658  0.4557  0.9738  0.4148
 7680SOL     OW24907   0.211   2.461   3.039  0.0048 -0.0854  0.0656
 7680SOL    HW124908   0.248   2.548   3.027 -1.0657  0.2707 -0.8663
 7680SOL    HW224909   0.120   2.476   3.063 -0.0314 -0.9478  0.5228
 7681SOL     OW24910   3.231   8.612   1.255 -0.5064  0.0942  0.0131
 7681SOL    HW124911   3.302   8.643   1.311  1.1337 -0.5339 -1.6382
 7681SOL    HW224912   3.152   8.652   1.293  0.4643 -0.4276  2.8249
 7682SOL     OW24913   1.326   0.468   4.171  0.0209 -0.2028  0.2949
 7682SOL    HW124914   1.234   0.470   4.196  0.1864  0.4766  0.8627
 7682SOL    HW224915   1.324   0.472   4.075 -0.5239  0.6620  0.3310
 7683SOL     OW24916   4.373   7.294   4.057 -0.0553 -0.0238 -0.5936
 7683SOL    HW124917   4.400   7.293   3.965 -0.2219 -0.9185 -0.6385
 7683SOL    HW224918   4.454   7.305   4.106  0.0867 -0.0319 -0.8248
 7684SOL     OW24919   6.667   7.746   4.120 -0.2166  0.0703  0.1348
 7684SOL    HW124920   6.680   7.791   4.204  0.4833 -0.7366  0.4736
 7684SOL    HW224921   6.700   7.658   4.135  1.6531  0.4198 -1.5130
 7685SOL     OW24922   5.155   1.659   5.681 -0.1080 -0.1285 -0.0988
 7685SOL    HW124923   5.132   1.745   5.646 -1.5824 -0.4942 -0.0978
 7685SOL    HW224924   5.217   1.623   5.617 -1.3233 -0.0249 -1.3860
 7686SOL     OW24925   2.091   1.294   1.185  0.1275 -0.4862  0.0781
 7686SOL    HW124926   2.021   1.269   1.246 -1.7494  0.2822 -1.6295
 7686SOL    HW224927   2.113   1.213   1.139 -0.2494 -0.5925  0.0766
 7687SOL     OW24928   4.573   4.803   2.523 -0.0778  0.4472  0.2302
 7687SOL    HW124929   4.629   4.810   2.446 -1.2440  3.4037 -0.4927
 7687SOL    HW224930   4.535   4.890   2.532 -0.1001  0.1959  4.1061
 7688SOL     OW24931   2.471   4.407   4.812  0.7718 -0.8143 -0.0019
 7688SOL    HW124932   2.551   4.371   4.773  1.8199 -0.9726  2.1069
 7688SOL    HW224933   2.499   4.490   4.852 -0.8934  0.7994 -1.9855
 7689SOL     OW24934   3.935   8.023   7.462  0.0864  0.5646 -0.1235
 7689SOL    HW124935   3.909   7.937   7.427 -1.5970  1.0100 -0.0692
 7689SOL    HW224936   4.014   8.046   7.413 -0.2464 -0.3904 -1.1588
 7690SOL     OW24937   5.193   1.858   7.453 -0.3331 -0.5397 -0.3732
 7690SOL    HW124938   5.243   1.868   7.534 -1.4181 -0.4370  0.2928
 7690SOL    HW224939   5.136   1.935   7.450 -1.1664 -1.1609 -0.6161
 7691SOL     OW24940   0.203   7.427   6.594 -0.2542 -0.5529  0.0781
 7691SOL    HW124941   0.208   7.334   6.614 -0.0122 -0.1216  2.2144
 7691SOL    HW224942   0.112   7.442   6.569  0.0692 -1.6208 -1.9381
 7692SOL     OW24943   4.443   7.203   8.959  0.6281  0.5249 -0.0222
 7692SOL    HW124944   4.472   7.282   8.913 -2.4019  0.0538 -3.1950
 7692SOL    HW224945   4.360   7.229   9.000  0.0018 -0.7656 -0.4259
 7693SOL     OW24946   4.737   4.121   7.594 -0.2547  0.2863 -0.5450
 7693SOL    HW124947   4.728   4.084   7.682  1.6208 -3.0306 -1.5635
 7693SOL    HW224948   4.647   4.132   7.563 -0.9875 -2.0921  0.4985
 7694SOL     OW24949   8.430   4.723   6.121  0.3540  0.2777 -0.0802
 7694SOL    HW124950   8.450   4.773   6.201  1.0155  0.4464 -0.3415
 7694SOL    HW224951   8.351   4.763   6.087  0.7837  1.0519 -0.1984
 7695SOL     OW24952   8.677   6.861   0.474 -0.1992  0.1833  0.3929
 7695SOL    HW124953   8.603   6.834   0.419  0.4175 -0.2556 -0.2398
 7695SOL    HW224954   8.651   6.947   0.508  0.3176  1.5980 -2.4254
 7696SOL     OW24955   8.059   6.724   8.662  0.1285  0.2894 -0.0580
 7696SOL    HW124956   8.016   6.702   8.579 -0.6349 -1.6693  0.8041
 7696SOL    HW224957   8.046   6.819   8.671  0.0662  0.5217 -2.0496
 7697SOL     OW24958   5.418   4.165   1.549 -0.3130  0.6018  0.7832
 7697SOL    HW124959   5.467   4.246   1.539  0.1721  0.0538 -1.9197
 7697SOL    HW224960   5.480   4.105   1.591  0.5528  0.6388 -0.3920
 7698SOL     OW24961   3.096   7.529   8.722 -1.0186 -0.2391  0.5241
 7698SOL    HW124962   3.030   7.488   8.778 -0.3952 -2.2498 -0.1310
 7698SOL    HW224963   3.179   7.516   8.769 -0.3595 -2.7419 -1.1571
 7699SOL     OW24964   1.010   5.596   0.641 -0.2685  0.1659 -0.2074
 7699SOL    HW124965   0.963   5.644   0.710 -1.6206 -1.8141  0.3457
 7699SOL    HW224966   1.079   5.656   0.613 -1.2538  2.0202  1.0996
 7700SOL     OW24967   8.448   7.323   7.270  0.1984 -0.5522  0.0510
 7700SOL    HW124968   8.512   7.356   7.206  2.2335 -1.0161  1.7173
 7700SOL    HW224969   8.446   7.390   7.338 -1.0014 -0.6279  0.1005
 7701SOL     OW24970   0.211   0.115   1.299  0.1698 -0.0084 -0.4162
 7701SOL    HW124971   0.281   0.174   1.273  0.6232  0.3436  1.4844
 7701SOL    HW224972   0.135   0.172   1.314 -0.4415 -0.3389 -2.0164
 7702SOL     OW24973   5.690   4.124   5.772  0.2262  0.1629  0.0583
 7702SOL    HW124974   5.701   4.194   5.709 -0.7443  0.8412  0.6026
 7702SOL    HW224975   5.625   4.065   5.732  2.9944 -1.9829 -1.6318
 7703SOL     OW24976   8.984   4.734   2.414  0.6858 -0.0641 -0.5671
 7703SOL    HW124977   9.017   4.792   2.346  1.2424 -0.0888 -0.3253
 7703SOL    HW224978   9.055   4.731   2.479  0.0117  0.2699  0.2022
 7704SOL     OW24979   3.031   7.017   8.545 -0.6327  0.0450  0.1968
 7704SOL    HW124980   3.050   7.037   8.453 -3.7703  0.8278 -0.3879
 7704SOL    HW224981   2.952   6.964   8.542 -0.0254 -1.0954  2.4292
 7705SOL     OW24982   7.445   1.818   3.360  0.2211 -0.0129 -0.4878
 7705SOL    HW124983   7.436   1.755   3.289 -2.4032 -0.3575  0.0537
 7705SOL    HW224984   7.471   1.899   3.317  1.3253 -0.8529 -1.4704
 7706SOL     OW24985   4.557   3.605   2.887 -0.2282  0.1011  0.4260
 7706SOL    HW124986   4.495   3.610   2.960 -3.0151 -0.3247 -1.7343
 7706SOL    HW224987   4.548   3.689   2.843 -1.1627 -0.8470 -1.2836
 7707SOL     OW24988   2.791   6.822   4.595 -0.5054  0.4736  0.7599
 7707SOL    HW124989   2.866   6.844   4.539  0.2168 -0.7213  1.2248
 7707SOL    HW224990   2.829   6.811   4.683 -1.3313  0.4870  1.1296
 7708SOL     OW24991   0.385   2.259   8.574  0.0799  0.0024  1.1179
 7708SOL    HW124992   0.376   2.348   8.608  0.3720 -0.5253  2.6518
 7708SOL    HW224993   0.297   2.222   8.578  0.2835 -0.3844  2.2840
 7709SOL     OW24994   6.164   0.224   6.721 -0.2626  0.4705 -0.3247
 7709SOL    HW124995   6.083   0.250   6.764  0.7218  1.1248  1.2212
 7709SOL    HW224996   6.154   0.130   6.705 -0.7306  0.2218  1.2601
 7710SOL     OW24997   0.321   6.646   5.198 -0.2781  0.6883  0.4498
 7710SOL    HW124998   0.255   6.597   5.246  0.3229  0.0316  0.6277
 7710SOL    HW224999   0.275   6.723   5.165 -1.2994 -0.1202 -0.0534
 7711SOL     OW25000   8.126   2.814   3.633  0.0439 -0.1460 -0.0019
 7711SOL    HW125001   8.092   2.732   3.599 -1.5606  0.6613 -0.4092
 7711SOL    HW225002   8.067   2.837   3.705  0.3402  0.7576 -0.0309
 7712SOL     OW25003   3.232   0.249   3.394 -0.1845 -0.1696 -1.0194
 7712SOL    HW125004   3.184   0.316   3.345 -0.8583 -1.4170 -2.1149
 7712SOL    HW225005   3.191   0.166   3.369 -0.3049 -0.9109  1.3572
 7713SOL     OW25006   4.405   1.609   7.319  0.0207  0.2223 -0.5139
 7713SOL    HW125007   4.359   1.639   7.397 -0.5156  0.1280 -0.7836
 7713SOL    HW225008   4.445   1.688   7.283 -1.9394  0.7968 -1.5878
 7714SOL     OW25009   8.046   0.892   6.204  0.6574 -0.6765  0.0522
 7714SOL    HW125010   7.983   0.929   6.266  1.3834  0.4352  0.1590
 7714SOL    HW225011   7.992   0.853   6.135 -0.1471 -0.8605  0.7683
 7715SOL     OW25012   4.908   5.030   8.289 -0.4026  0.3690  0.5523
 7715SOL    HW125013   4.900   5.091   8.362 -0.8759 -0.0545  0.8576
 7715SOL    HW225014   4.972   5.071   8.231  0.7888  0.2235  1.6987
 7716SOL     OW25015   5.411   7.589   5.825 -0.1504 -0.5169  0.0106
 7716SOL    HW125016   5.399   7.675   5.865 -0.8449 -0.0103 -1.2459
 7716SOL    HW225017   5.464   7.541   5.889 -0.4460  0.5538  1.1172
 7717SOL     OW25018   4.436   5.423   7.207 -0.4557  0.1274 -0.0219
 7717SOL    HW125019   4.432   5.374   7.125  0.5092 -0.1076  0.0521
 7717SOL    HW225020   4.466   5.510   7.182 -0.8540  0.2725  0.0027
 7718SOL     OW25021   8.358   4.178   6.864  0.4067  0.0462  0.2430
 7718SOL    HW125022   8.363   4.095   6.912  0.2793  0.6586  1.3279
 7718SOL    HW225023   8.266   4.187   6.842  0.6929 -1.0750 -1.6744
 7719SOL     OW25024   5.430   3.991   1.295 -0.1077  0.4975 -1.1093
 7719SOL    HW125025   5.350   3.987   1.243  0.4095  0.9849 -1.9677
 7719SOL    HW225026   5.409   4.049   1.368 -1.3106 -1.3877  0.1175
 7720SOL     OW25027   2.452   8.567   6.818  0.2326 -0.4307  0.2210
 7720SOL    HW125028   2.509   8.644   6.828  2.8135 -2.0030 -1.1823
 7720SOL    HW225029   2.489   8.520   6.743  0.0266 -4.0373  2.1614
 7721SOL     OW25030   0.583   4.764   7.256 -0.5800  0.3156 -0.2317
 7721SOL    HW125031   0.528   4.702   7.209  0.8269 -1.4351  0.3311
 7721SOL    HW225032   0.521   4.821   7.303 -1.9078 -0.9350 -0.4146
 7722SOL     OW25033   1.449   2.857   8.038 -0.1474  0.0084  0.4414
 7722SOL    HW125034   1.389   2.825   8.105 -1.0337  0.5024 -0.0968
 7722SOL    HW225035   1.427   2.949   8.028  1.0825  0.3376  0.6156
 7723SOL     OW25036   5.581   3.654   0.340  0.5212 -0.3049 -0.6057
 7723SOL    HW125037   5.496   3.679   0.304  0.8180  1.4883 -0.1445
 7723SOL    HW225038   5.614   3.733   0.383  1.4265 -1.5733  1.1880
 7724SOL     OW25039   4.111   2.000   4.111 -0.4495  0.2370  0.9081
 7724SOL    HW125040   4.175   1.930   4.123 -0.8943 -0.2776  0.3248
 7724SOL    HW225041   4.028   1.954   4.096 -0.5430  0.8636 -0.6368
 7725SOL     OW25042   7.290   7.858   3.906  0.7777  0.3221 -0.1244
 7725SOL    HW125043   7.209   7.846   3.956  0.2550  1.5658 -0.6361
 7725SOL    HW225044   7.307   7.772   3.867 -0.1742 -0.0170  0.1778
 7726SOL     OW25045   8.314   4.453   5.129 -0.5140  0.7456 -0.2740
 7726SOL    HW125046   8.410   4.450   5.135 -0.3972  0.4089 -1.8227
 7726SOL    HW225047   8.284   4.390   5.194  0.4414 -1.2852 -1.7047
 7727SOL     OW25048   5.688   6.081   7.744  1.1416  0.0201  0.4653
 7727SOL    HW125049   5.725   5.993   7.745  0.2907 -0.4298 -1.4814
 7727SOL    HW225050   5.671   6.101   7.836 -0.1701 -2.5456  0.8764
 7728SOL     OW25051   5.205   2.655   5.640 -0.3959  0.4161  0.2300
 7728SOL    HW125052   5.167   2.699   5.564 -0.0805  0.6175  0.1858
 7728SOL    HW225053   5.171   2.566   5.636 -0.5302  0.4797 -0.0438
 7729SOL     OW25054   3.844   4.104   4.194 -0.2239  0.2278  0.6206
 7729SOL    HW125055   3.797   4.107   4.278 -2.2492  1.6268 -0.4791
 7729SOL    HW225056   3.797   4.166   4.138  2.2162  0.7411 -0.9988
 7730SOL     OW25057   6.598   0.308   5.871  0.2951 -0.6004 -0.1475
 7730SOL    HW125058   6.657   0.239   5.901  0.3324 -0.5903 -0.1956
 7730SOL    HW225059   6.543   0.266   5.806 -1.2774 -1.1819  1.4979
 7731SOL     OW25060   0.677   2.258   7.413 -0.1834  0.5870 -0.0298
 7731SOL    HW125061   0.622   2.215   7.479 -0.3967  0.9245  0.0156
 7731SOL    HW225062   0.755   2.202   7.407 -0.2612  0.4314  0.3438
 7732SOL     OW25063   0.692   0.437   8.728 -0.2801  0.9606  0.4763
 7732SOL    HW125064   0.603   0.409   8.707  0.4967 -1.3273  0.0206
 7732SOL    HW225065   0.746   0.398   8.660  1.4185 -0.2077  2.3928
 7733SOL     OW25066   4.007   6.860   5.591 -0.1120 -0.3154 -0.0555
 7733SOL    HW125067   3.979   6.895   5.675  0.8050 -0.4987  0.3304
 7733SOL    HW225068   4.075   6.797   5.612  0.8087  0.3305 -0.9818
 7734SOL     OW25069   1.470   3.542   5.996 -0.0499 -0.1330 -0.2157
 7734SOL    HW125070   1.411   3.612   5.967  0.2191  0.4870  0.6754
 7734SOL    HW225071   1.481   3.558   6.090  0.9903 -0.6493 -0.2340
 7735SOL     OW25072   4.944   0.836   2.434  0.0363  0.1872  0.3619
 7735SOL    HW125073   4.871   0.884   2.393 -0.8476 -0.4344  1.1780
 7735SOL    HW225074   4.911   0.810   2.519 -0.5553 -4.1982 -0.9682
 7736SOL     OW25075   0.646   5.769   4.696  0.1740 -0.5442 -0.0475
 7736SOL    HW125076   0.630   5.816   4.614 -0.2588  0.6064  0.6747
 7736SOL    HW225077   0.709   5.701   4.673 -0.0267 -0.3066 -1.3571
 7737SOL     OW25078   3.045   4.215   8.782 -1.2617 -0.6083 -0.3872
 7737SOL    HW125079   3.071   4.125   8.800 -1.6223 -0.5800  0.3039
 7737SOL    HW225080   2.954   4.221   8.811 -0.6251  0.5138  1.5621
 7738SOL     OW25081   5.845   0.469   7.554  0.5983  0.1589 -0.0317
 7738SOL    HW125082   5.786   0.499   7.624  0.4658 -0.1606 -0.0017
 7738SOL    HW225083   5.902   0.543   7.537  0.0223  0.5599 -0.2362
 7739SOL     OW25084   1.195   6.049   3.713  0.0877  0.4456 -0.2147
 7739SOL    HW125085   1.267   6.068   3.773  0.7054 -1.9707 -0.0758
 7739SOL    HW225086   1.117   6.051   3.768  0.1506  1.8835 -0.1257
 7740SOL     OW25087   1.367   4.231   7.810  0.0233  0.3848 -0.5118
 7740SOL    HW125088   1.447   4.191   7.774 -0.1672  0.5046 -1.0656
 7740SOL    HW225089   1.395   4.265   7.896  0.7410  1.0413 -0.9933
 7741SOL     OW25090   5.503   7.844   5.495  0.0057  0.1128 -0.4129
 7741SOL    HW125091   5.469   7.860   5.583 -0.2560 -1.8764 -0.1141
 7741SOL    HW225092   5.506   7.749   5.487  1.1817  0.2445 -2.1232
 7742SOL     OW25093   1.172   1.446   7.696  0.2922  0.0016 -0.1369
 7742SOL    HW125094   1.118   1.368   7.679 -1.4340  0.8281  1.3143
 7742SOL    HW225095   1.138   1.512   7.636  0.8261  0.0779 -0.3691
 7743SOL     OW25096   6.486   3.006   6.363 -0.3017 -0.1894 -0.0261
 7743SOL    HW125097   6.438   2.971   6.437 -1.4615 -0.3837 -0.8379
 7743SOL    HW225098   6.481   3.101   6.373  0.2101 -0.2207  0.5461
 7744SOL     OW25099   6.233   2.955   3.467  0.1567 -0.0403  0.3025
 7744SOL    HW125100   6.160   3.012   3.491 -0.1037 -1.5104  3.4928
 7744SOL    HW225101   6.218   2.874   3.515  2.1968 -1.6713 -1.5405
 7745SOL     OW25102   5.818   1.355   2.868 -0.0517  0.3066  0.5806
 7745SOL    HW125103   5.877   1.292   2.825 -3.0796 -2.4127  0.0388
 7745SOL    HW225104   5.790   1.413   2.797 -1.6298 -1.4224 -0.2980
 7746SOL     OW25105   8.506   8.966   1.000  0.0141  0.2706 -0.5399
 7746SOL    HW125106   8.427   8.923   0.967  1.0263 -1.5817 -0.6697
 7746SOL    HW225107   8.532   8.913   1.076  1.0420  0.9463 -0.3996
 7747SOL     OW25108   0.223   5.654   5.736  0.5054 -0.2171  0.3160
 7747SOL    HW125109   0.309   5.686   5.764  0.1891 -0.8276  2.1295
 7747SOL    HW225110   0.202   5.707   5.660  2.2116  0.3743  0.2002
 7748SOL     OW25111   7.233   5.527   6.825  0.5196  0.7016  0.2721
 7748SOL    HW125112   7.260   5.474   6.900 -0.3549 -0.2162 -0.0319
 7748SOL    HW225113   7.242   5.469   6.749  0.4980  1.3113 -0.2115
 7749SOL     OW25114   8.544   7.342   0.861 -0.4707  0.3496 -0.4130
 7749SOL    HW125115   8.545   7.246   0.860 -0.6600  0.3421 -1.3422
 7749SOL    HW225116   8.628   7.367   0.824  0.3587  0.5811  1.5356
 7750SOL     OW25117   1.141   5.472   7.185 -0.3295  0.6369 -0.4428
 7750SOL    HW125118   1.067   5.527   7.211  0.2514  2.3729 -2.2633
 7750SOL    HW225119   1.117   5.439   7.099  0.0817 -0.6200 -0.0952
 7751SOL     OW25120   8.858   1.808   0.446  0.3156 -0.1134 -0.6197
 7751SOL    HW125121   8.952   1.821   0.443  0.4100 -0.9572 -1.7073
 7751SOL    HW225122   8.841   1.735   0.387 -0.7391 -1.7375  1.5745
 7752SOL     OW25123   0.545   8.198   0.263 -0.3023 -0.1935  0.0103
 7752SOL    HW125124   0.462   8.161   0.231 -0.5514  0.6552 -0.3637
 7752SOL    HW225125   0.522   8.286   0.292  0.1695 -0.5142  1.4337
 7753SOL     OW25126   6.817   2.666   6.302  0.4103  0.1649 -0.4384
 7753SOL    HW125127   6.784   2.735   6.360  0.4085  2.4549 -2.9710
 7753SOL    HW225128   6.741   2.642   6.248  0.7616 -0.8707 -0.4861
 7754SOL     OW25129   0.490   6.021   4.073 -0.1248  0.0809  0.0348
 7754SOL    HW125130   0.428   5.948   4.081 -1.2995  1.1951  1.8866
 7754SOL    HW225131   0.504   6.030   3.978 -1.8777 -0.9717 -0.3739
 7755SOL     OW25132   4.874   8.921   8.100 -0.1022  0.3969 -0.4718
 7755SOL    HW125133   4.844   9.003   8.061 -2.0907  0.3550  0.7915
 7755SOL    HW225134   4.944   8.947   8.160 -0.8584  1.2169  0.0749
 7756SOL     OW25135   4.230   6.815   6.460  0.1058  0.1527 -0.4846
 7756SOL    HW125136   4.135   6.809   6.462  0.1788 -1.2970  0.3713
 7756SOL    HW225137   4.258   6.790   6.548  1.2590  1.4453 -0.4480
 7757SOL     OW25138   3.614   0.055   0.754 -0.1271  0.5361 -0.2167
 7757SOL    HW125139   3.699   0.031   0.718  0.1320  0.0513  0.6868
 7757SOL    HW225140   3.575   0.112   0.688  1.2169  1.3962 -0.2922
 7758SOL     OW25141   7.017   8.418   0.112  0.1157  0.0810 -0.4614
 7758SOL    HW125142   6.930   8.386   0.090 -1.1775  1.8846  1.5609
 7758SOL    HW225143   7.048   8.357   0.180 -0.7218  0.8715  0.6672
 7759SOL     OW25144   2.687   4.839   4.200 -0.4640  0.1286  0.0985
 7759SOL    HW125145   2.741   4.764   4.225 -0.3247  0.0430 -0.4509
 7759SOL    HW225146   2.730   4.914   4.242  0.4169  0.1410 -0.7893
 7760SOL     OW25147   7.570   4.866   4.597  0.4505  0.0646  0.2792
 7760SOL    HW125148   7.548   4.948   4.554  0.2761  0.0579  0.3516
 7760SOL    HW225149   7.558   4.884   4.691  0.0033 -0.1597  0.2690
 7761SOL     OW25150   1.892   0.829   4.554  0.3620 -0.0713  0.2463
 7761SOL    HW125151   1.965   0.892   4.561 -0.0859  0.4540  0.2441
 7761SOL    HW225152   1.817   0.875   4.592  0.3178 -1.0822  1.4664
 7762SOL     OW25153   7.460   1.479   5.737 -0.2049 -0.3165 -0.0579
 7762SOL    HW125154   7.504   1.410   5.788 -0.5673 -1.8884 -1.7808
 7762SOL    HW225155   7.502   1.476   5.651  0.6831  2.5807  0.1737
 7763SOL     OW25156   3.376   4.221   4.743 -0.3239  0.1606  0.2018
 7763SOL    HW125157   3.303   4.158   4.741  0.5484 -1.1405  3.1650
 7763SOL    HW225158   3.334   4.307   4.740 -1.7607 -0.5236 -0.7612
 7764SOL     OW25159   4.815   2.723   0.045 -0.5169  0.1052 -0.0163
 7764SOL    HW125160   4.726   2.759   0.053 -0.8935 -0.7167 -0.4178
 7764SOL    HW225161   4.835   2.689   0.132 -0.5207  0.4321  0.1171
 7765SOL     OW25162   3.703   5.475   1.398 -0.5178 -0.4325 -0.2828
 7765SOL    HW125163   3.666   5.400   1.351  1.4160 -1.2652 -0.6011
 7765SOL    HW225164   3.790   5.487   1.358 -0.7597  1.9755 -0.2088
 7766SOL     OW25165   5.454   3.235   1.240 -0.1300 -0.3468 -0.2005
 7766SOL    HW125166   5.378   3.207   1.188 -0.1678 -0.5966 -0.0095
 7766SOL    HW225167   5.448   3.185   1.321 -0.6919  0.8427  0.5226
 7767SOL     OW25168   2.256   6.992   6.789 -0.1653 -0.0889 -0.2721
 7767SOL    HW125169   2.250   7.082   6.758  0.8717  0.3193  0.6290
 7767SOL    HW225170   2.350   6.975   6.796 -0.3165 -0.3631  1.9322
 7768SOL     OW25171   0.720   6.432   1.055 -0.0230  0.3220 -0.0090
 7768SOL    HW125172   0.773   6.447   0.977 -1.9488  2.2755 -1.0340
 7768SOL    HW225173   0.774   6.466   1.127  1.8730 -1.7151 -0.3286
 7769SOL     OW25174   6.317   1.648   2.597  0.2277 -0.1586 -0.6294
 7769SOL    HW125175   6.233   1.652   2.552  0.3202  0.9644 -0.7414
 7769SOL    HW225176   6.350   1.738   2.593  0.8115 -0.3014  0.6047
 7770SOL     OW25177   5.418   8.469   2.623 -0.2091 -0.3716 -0.0393
 7770SOL    HW125178   5.463   8.385   2.630  0.5185 -0.0172 -0.2479
 7770SOL    HW225179   5.377   8.482   2.708  1.4368  0.0116  0.7557
 7771SOL     OW25180   1.320   4.387   5.170  0.0744  0.5639 -0.2146
 7771SOL    HW125181   1.359   4.306   5.203 -0.2222 -0.7347 -2.8048
 7771SOL    HW225182   1.378   4.414   5.099 -1.2831  1.1053 -1.1587
 7772SOL     OW25183   7.667   0.643   7.309  1.0122  0.6348  0.4015
 7772SOL    HW125184   7.616   0.589   7.370  0.7858  0.0190 -0.3155
 7772SOL    HW225185   7.756   0.607   7.315  0.5642 -0.8757 -1.1977
 7773SOL     OW25186   0.801   0.761   0.908 -0.1740  0.2254 -0.0575
 7773SOL    HW125187   0.713   0.769   0.872 -0.4691 -0.0899  0.5795
 7773SOL    HW225188   0.855   0.818   0.854 -0.7873  0.4831 -0.3972
 7774SOL     OW25189   0.551   5.913   2.685  0.4924  0.3599  0.0367
 7774SOL    HW125190   0.646   5.924   2.680  0.3211  2.4197  0.1408
 7774SOL    HW225191   0.516   5.994   2.648 -1.2313 -0.2838  0.1570
 7775SOL     OW25192   5.295   4.841   0.806 -0.2160  0.1839  0.4338
 7775SOL    HW125193   5.390   4.831   0.800 -0.0739  1.7664 -0.6126
 7775SOL    HW225194   5.269   4.875   0.721 -1.5773  0.7157  1.0279
 7776SOL     OW25195   0.432   0.666   6.436 -0.2946 -0.0014 -0.2012
 7776SOL    HW125196   0.380   0.745   6.453 -0.5767  0.0057 -1.0269
 7776SOL    HW225197   0.445   0.626   6.522  1.2240  1.7799  0.4496
 7777SOL     OW25198   1.976   5.983   3.687  0.2848  0.2896 -0.3157
 7777SOL    HW125199   1.935   5.931   3.756  0.0842  0.1439 -0.5393
 7777SOL    HW225200   1.994   5.920   3.617 -0.2486  0.5677 -0.7167
 7778SOL     OW25201   4.709   1.972   6.091  0.6151  0.3642 -0.1749
 7778SOL    HW125202   4.756   1.890   6.109  1.7491  0.9743 -0.2347
 7778SOL    HW225203   4.776   2.040   6.101 -0.4658  1.3482  0.5411
 7779SOL     OW25204   6.473   4.818   6.950 -0.1604  0.3506 -0.4829
 7779SOL    HW125205   6.461   4.912   6.941 -0.9121  0.2454 -0.7186
 7779SOL    HW225206   6.499   4.788   6.863  2.1951  0.6023  0.0727
 7780SOL     OW25207   7.806   3.626   5.823  1.3071 -0.1343 -0.7207
 7780SOL    HW125208   7.860   3.611   5.900  1.1867  0.0785 -0.5943
 7780SOL    HW225209   7.744   3.553   5.822  1.1106  0.0247 -0.4416
 7781SOL     OW25210   3.632   7.235   1.040 -0.2094 -0.3403  0.3021
 7781SOL    HW125211   3.555   7.279   1.077 -2.0878 -3.1937  0.1105
 7781SOL    HW225212   3.646   7.279   0.956 -0.9509  0.9427  0.8200
 7782SOL     OW25213   5.359   1.773   4.772 -0.0127 -0.0509  0.6892
 7782SOL    HW125214   5.376   1.725   4.691 -0.1939 -1.8728  1.6764
 7782SOL    HW225215   5.446   1.787   4.810 -0.0395 -0.8510  1.0661
 7783SOL     OW25216   8.352   7.743   7.233 -0.1942 -0.4286  0.3543
 7783SOL    HW125217   8.442   7.770   7.218 -0.1217  0.0189  1.4729
 7783SOL    HW225218   8.335   7.676   7.167  0.9528 -0.5189  0.1378
 7784SOL     OW25219   0.218   2.595   2.183  0.6012  0.0887 -0.2002
 7784SOL    HW125220   0.236   2.640   2.265  0.9591  1.4779 -1.0015
 7784SOL    HW225221   0.259   2.509   2.193 -2.7988 -1.4579  2.6189
 7785SOL     OW25222   1.481   1.095   1.441  0.6130 -0.5612  0.0172
 7785SOL    HW125223   1.407   1.156   1.439  0.6099 -0.5570  0.3032
 7785SOL    HW225224   1.500   1.078   1.348  1.7529  1.2396 -0.1186
 7786SOL     OW25225   6.110   8.151   7.602 -0.0267 -0.6326  0.3957
 7786SOL    HW125226   6.051   8.136   7.528  0.7165 -2.2814  0.0724
 7786SOL    HW225227   6.111   8.246   7.613 -2.1375 -0.5000 -0.0499
 7787SOL     OW25228   3.934   8.620   4.125  0.0716  0.2444 -0.7546
 7787SOL    HW125229   3.951   8.680   4.053 -0.7054 -0.0319 -1.1701
 7787SOL    HW225230   3.949   8.532   4.089  3.9580  0.1386  0.5322
 7788SOL     OW25231   3.906   2.019   2.291 -0.3416 -0.0161  0.2543
 7788SOL    HW125232   3.964   2.089   2.260 -0.1911  0.5875  1.8012
 7788SOL    HW225233   3.949   1.938   2.265 -0.1036  0.4420 -0.8380
 7789SOL     OW25234   2.415   2.756   6.791 -0.1304 -0.1011  0.4721
 7789SOL    HW125235   2.329   2.717   6.810 -0.3560 -0.3734 -0.9501
 7789SOL    HW225236   2.448   2.704   6.718  1.7266 -0.6553  1.6620
 7790SOL     OW25237   0.863   2.788   1.003  0.3132 -0.3956  0.0206
 7790SOL    HW125238   0.834   2.837   1.080 -0.8933 -0.4426 -0.3707
 7790SOL    HW225239   0.798   2.811   0.935  0.7718 -1.1286 -0.6853
 7791SOL     OW25240   4.236   6.575   4.004  0.1555 -0.4216  0.1118
 7791SOL    HW125241   4.241   6.660   4.047  0.6585 -0.4546  0.1295
 7791SOL    HW225242   4.171   6.587   3.935  0.9014  0.2581 -0.4997
 7792SOL     OW25243   4.630   5.618   7.306 -0.5095 -0.3326 -0.2168
 7792SOL    HW125244   4.630   5.638   7.212 -1.0633  0.7943  0.0000
 7792SOL    HW225245   4.674   5.693   7.346  0.2274 -1.0750  0.3876
 7793SOL     OW25246   0.023   1.133   8.080  0.0546 -0.3302 -0.0547
 7793SOL    HW125247   0.080   1.137   8.156  0.3790 -0.7005 -0.2701
 7793SOL    HW225248   0.036   1.216   8.035  1.3758 -0.8887 -0.7621
 7794SOL     OW25249   1.080   6.980   6.687 -0.1287 -0.4322  0.7508
 7794SOL    HW125250   1.157   6.948   6.641 -0.5278 -0.6208  0.2096
 7794SOL    HW225251   1.102   6.972   6.780  0.3205 -0.9198  0.6002
 7795SOL     OW25252   1.089   8.810   5.084  0.3653 -1.0316 -0.0505
 7795SOL    HW125253   1.104   8.720   5.113 -1.4601 -1.1991  0.5463
 7795SOL    HW225254   1.048   8.853   5.160  1.0500  0.2612 -0.3805
 7796SOL     OW25255   3.483   0.153   3.353 -0.2869 -0.3945  0.0483
 7796SOL    HW125256   3.409   0.201   3.390 -0.8555 -0.8127 -0.5332
 7796SOL    HW225257   3.559   0.184   3.403 -0.6066  1.2498 -0.4285
 7797SOL     OW25258   5.975   5.328   2.245 -0.2665 -0.5386  0.3694
 7797SOL    HW125259   6.015   5.392   2.303 -0.7440 -0.0831  0.2059
 7797SOL    HW225260   6.027   5.248   2.257  1.5630  0.3935 -0.8898
 7798SOL     OW25261   4.406   5.589   6.820 -0.2820  0.6372 -0.7201
 7798SOL    HW125262   4.480   5.563   6.875 -0.7982 -1.1969 -0.8137
 7798SOL    HW225263   4.374   5.669   6.860  2.0464  1.7859 -0.9788
 7799SOL     OW25264   6.886   0.163   1.026 -0.1000  0.0615  0.2135
 7799SOL    HW125265   6.838   0.109   1.088  0.0590 -0.7295 -0.3416
 7799SOL    HW225266   6.972   0.120   1.019  0.0085  0.3558 -0.2773
 7800SOL     OW25267   2.975   7.244   5.940  0.7408 -0.0508  0.0535
 7800SOL    HW125268   2.885   7.229   5.911  0.8165 -1.5991  0.5415
 7800SOL    HW225269   2.983   7.340   5.946 -1.0767  0.0961  0.6423
 7801SOL     OW25270   5.945   3.487   8.456 -0.2014  0.0277 -0.3440
 7801SOL    HW125271   5.968   3.402   8.493  1.2295 -1.8771 -4.8229
 7801SOL    HW225272   6.026   3.519   8.417 -1.3503  1.9602 -1.3353
 7802SOL     OW25273   6.587   4.702   7.815 -0.4343 -0.2616 -0.1406
 7802SOL    HW125274   6.541   4.643   7.875  2.5905 -0.7576  1.9149
 7802SOL    HW225275   6.553   4.789   7.836  0.3106 -0.4638  2.1704
 7803SOL     OW25276   5.789   6.099   2.488  0.8992  0.1914 -0.4583
 7803SOL    HW125277   5.813   6.034   2.554  0.9903 -0.5446 -1.2170
 7803SOL    HW225278   5.869   6.150   2.475  0.7604  0.6346  0.3137
 7804SOL     OW25279   0.930   5.361   0.149  0.1753  0.7357  0.3791
 7804SOL    HW125280   0.951   5.364   0.242  0.8618 -2.3127  0.4222
 7804SOL    HW225281   1.000   5.309   0.110 -1.2444  0.1013 -1.4653
 7805SOL     OW25282   4.926   5.898   6.447 -0.0955  0.1596  0.1546
 7805SOL    HW125283   5.013   5.928   6.422 -0.7744  1.9692 -0.2131
 7805SOL    HW225284   4.889   5.863   6.365  0.2727 -0.6278  0.3156
 7806SOL     OW25285   5.022   3.600   1.417 -0.0752 -0.0558  0.6948
 7806SOL    HW125286   5.022   3.525   1.475  0.5396 -0.7850 -0.2252
 7806SOL    HW225287   4.934   3.637   1.425 -0.8584 -1.7011  0.1234
 7807SOL     OW25288   6.691   5.483   2.273  0.5945 -0.1878  0.0475
 7807SOL    HW125289   6.649   5.514   2.353 -0.6289 -0.5083 -0.4518
 7807SOL    HW225290   6.625   5.428   2.231  1.3520 -0.3209 -1.0001
 7808SOL     OW25291   1.110   4.019   1.164 -0.2754  0.5907 -0.0507
 7808SOL    HW125292   1.090   3.966   1.087  1.5658 -0.6511  0.2507
 7808SOL    HW225293   1.191   4.064   1.142  0.1883  0.3461  1.0674
 7809SOL     OW25294   1.757   6.664   2.996 -0.0747  0.5958 -0.0061
 7809SOL    HW125295   1.721   6.588   2.951  1.0550 -0.5914  1.0259
 7809SOL    HW225296   1.850   6.644   3.006 -0.3888  0.3135  3.6795
 7810SOL     OW25297   2.859   4.490   5.036 -0.5484 -0.5929  0.9511
 7810SOL    HW125298   2.822   4.420   4.982 -0.1739 -2.0560  2.4928
 7810SOL    HW225299   2.950   4.463   5.051  0.0613  1.0114  0.3695
 7811SOL     OW25300   3.100   0.428   6.969  0.4642  0.6770 -0.0216
 7811SOL    HW125301   3.034   0.443   7.036  1.0382  2.0137  0.2689
 7811SOL    HW225302   3.182   0.420   7.018  0.5926 -0.6984 -0.4014
 7812SOL     OW25303   4.338   2.895   6.186 -0.2415  0.3043 -0.2716
 7812SOL    HW125304   4.337   2.862   6.097 -0.8141 -0.5236  0.0278
 7812SOL    HW225305   4.417   2.949   6.191 -1.9422  3.2796 -2.2999
 7813SOL     OW25306   3.419   3.495   5.999  0.2817  0.5351 -0.8501
 7813SOL    HW125307   3.487   3.524   5.938  0.4525 -0.5631 -1.2028
 7813SOL    HW225308   3.467   3.453   6.070  0.0152  0.6615 -0.5913
 7814SOL     OW25309   5.870   4.366   5.546 -0.3946 -0.4482 -0.2183
 7814SOL    HW125310   5.860   4.283   5.500 -0.6251 -0.7942  0.4394
 7814SOL    HW225311   5.780   4.394   5.565 -0.2961 -0.6388  0.5786
 7815SOL     OW25312   8.679   3.171   5.900  0.0830 -0.4424  0.1278
 7815SOL    HW125313   8.710   3.243   5.844  0.3388  0.4778  1.4259
 7815SOL    HW225314   8.731   3.096   5.872  1.2786  0.3568  0.1343
 7816SOL     OW25315   4.737   0.555   2.519  0.1061 -0.0111 -0.4480
 7816SOL    HW125316   4.665   0.509   2.561  1.5557 -0.0656  2.1697
 7816SOL    HW225317   4.761   0.500   2.444 -1.2506 -1.0066 -0.1763
 7817SOL     OW25318   7.649   8.191   6.738  0.3318 -0.6431 -0.4517
 7817SOL    HW125319   7.744   8.201   6.737  0.2617  0.1337 -1.4498
 7817SOL    HW225320   7.627   8.170   6.828  1.3937 -0.2324 -0.0885
 7818SOL     OW25321   6.926   4.493   5.786  0.1731  0.0113  0.1652
 7818SOL    HW125322   6.932   4.541   5.703  0.7865 -1.2247 -0.5427
 7818SOL    HW225323   6.836   4.507   5.816  0.0990  0.9025 -0.4356
 7819SOL     OW25324   0.398   3.817   0.421  0.0352  0.0605  0.1400
 7819SOL    HW125325   0.464   3.869   0.468  1.1768 -0.2927 -1.0085
 7819SOL    HW225326   0.448   3.748   0.379 -1.2907 -1.1768  0.5187
 7820SOL     OW25327   8.257   8.473   4.829 -0.2598 -0.3345  0.2367
 7820SOL    HW125328   8.293   8.555   4.796  0.1627 -1.0297 -1.1450
 7820SOL    HW225329   8.333   8.426   4.863 -0.0335 -1.2170 -1.3869
 7821SOL     OW25330   5.526   6.878   4.935 -0.3695 -0.2069  0.4415
 7821SOL    HW125331   5.575   6.919   5.006  0.6499 -0.2875 -0.1794
 7821SOL    HW225332   5.445   6.929   4.928  0.8095  1.7242 -0.2570
 7822SOL     OW25333   3.288   1.951   6.683  0.4707 -0.1493 -0.2062
 7822SOL    HW125334   3.369   1.905   6.660 -0.1333 -0.9231 -0.8088
 7822SOL    HW225335   3.292   1.958   6.779  0.6368 -1.3559 -0.1037
 7823SOL     OW25336   3.129   8.301   2.555  0.2136 -0.0688 -0.3329
 7823SOL    HW125337   3.103   8.318   2.465 -0.3979  2.4120  0.2396
 7823SOL    HW225338   3.216   8.338   2.563 -0.4488  1.4046  0.5193
 7824SOL     OW25339   6.321   0.860   2.981  0.0767 -0.3596 -0.7866
 7824SOL    HW125340   6.405   0.828   2.949  0.3295  0.0190 -0.5183
 7824SOL    HW225341   6.320   0.837   3.074 -0.1875 -0.5091 -0.8258
 7825SOL     OW25342   5.382   3.134   2.951  0.4424  0.5485  0.0267
 7825SOL    HW125343   5.328   3.097   2.882  0.5090 -0.4003  0.4669
 7825SOL    HW225344   5.326   3.131   3.029  1.2075 -0.7300  0.5582
 7826SOL     OW25345   7.436   3.847   0.195  0.2328 -0.0650  0.4007
 7826SOL    HW125346   7.503   3.888   0.141 -0.3987  1.9910  1.0950
 7826SOL    HW225347   7.446   3.753   0.178  1.0307  0.3863 -2.1056
 7827SOL     OW25348   5.187   7.031   8.271  0.1962 -0.4099  0.2732
 7827SOL    HW125349   5.249   7.073   8.212 -0.0962 -0.2787  0.0593
 7827SOL    HW225350   5.104   7.031   8.223  0.1362 -1.0011  0.3706
 7828SOL     OW25351   4.243   8.538   7.989 -0.4246 -1.1927  0.1398
 7828SOL    HW125352   4.226   8.605   7.922  0.1546 -0.6182  0.5535
 7828SOL    HW225353   4.155   8.508   8.014 -0.6456 -1.5372 -0.9821
 7829SOL     OW25354   3.879   1.176   0.550  0.4620  0.0125 -0.2410
 7829SOL    HW125355   3.844   1.196   0.463 -1.2085  1.7563  0.7476
 7829SOL    HW225356   3.854   1.085   0.566  0.4387 -0.2006 -1.4017
 7830SOL     OW25357   3.906   6.100   8.401 -0.2250  0.0955  0.1754
 7830SOL    HW125358   3.895   6.006   8.418 -0.4060  0.3167  1.3784
 7830SOL    HW225359   3.821   6.129   8.369 -0.1021 -0.1982 -0.4142
 7831SOL     OW25360   2.378   8.118   5.461  0.4087 -0.1320  0.1416
 7831SOL    HW125361   2.438   8.046   5.478 -0.4928 -0.8028  0.5410
 7831SOL    HW225362   2.368   8.162   5.545  0.0793 -0.2302  0.1559
 7832SOL     OW25363   1.767   3.470   6.524  0.1528  0.2796  0.0604
 7832SOL    HW125364   1.722   3.386   6.525 -1.9912  1.3575 -0.3127
 7832SOL    HW225365   1.722   3.523   6.590 -0.9445  2.2346 -2.0776
 7833SOL     OW25366   0.908   5.087   5.205 -0.2215 -0.3047  0.3863
 7833SOL    HW125367   0.976   5.037   5.159 -2.2762 -0.4700 -2.7542
 7833SOL    HW225368   0.827   5.041   5.186 -1.5326  1.1075  2.1816
 7834SOL     OW25369   6.532   3.874   0.552 -0.0739 -0.2810  0.0881
 7834SOL    HW125370   6.611   3.920   0.522  0.2078 -0.3173  0.7670
 7834SOL    HW225371   6.550   3.782   0.535 -0.6437 -0.1687 -1.2853
 7835SOL     OW25372   5.883   3.792   6.549  0.2205  0.3535 -0.4444
 7835SOL    HW125373   5.857   3.744   6.471  0.4182  1.1429 -1.0114
 7835SOL    HW225374   5.958   3.744   6.583 -0.6754 -0.7480  0.0252
 7836SOL     OW25375   7.703   6.204   4.656 -0.1351  0.4540  0.0286
 7836SOL    HW125376   7.776   6.260   4.629  1.4540 -0.8295  1.4246
 7836SOL    HW225377   7.667   6.247   4.733 -0.5735  0.8629 -0.4031
 7837SOL     OW25378   0.699   1.738   1.719 -0.3583  0.1985 -0.3180
 7837SOL    HW125379   0.688   1.825   1.680 -0.4600  0.8815  1.1696
 7837SOL    HW225380   0.793   1.721   1.713  0.2109  1.8564  2.1793
 7838SOL     OW25381   2.447   3.252   7.374  0.1424  0.4097 -0.4025
 7838SOL    HW125382   2.406   3.291   7.451  0.2576 -0.3973  0.0898
 7838SOL    HW225383   2.536   3.287   7.374  0.0610  0.6135 -0.3087
 7839SOL     OW25384   1.926   8.667   2.991 -0.2419 -0.1351 -0.6143
 7839SOL    HW125385   1.957   8.720   3.064  2.2166 -1.8216 -0.3242
 7839SOL    HW225386   1.869   8.601   3.032  0.9695 -0.9528 -0.1822
 7840SOL     OW25387   1.448   2.240   1.331  0.1500 -0.5389 -0.2368
 7840SOL    HW125388   1.514   2.183   1.292  0.3363  0.7659 -1.9608
 7840SOL    HW225389   1.474   2.328   1.305 -2.1129  0.0415 -0.7658
 7841SOL     OW25390   7.861   3.084   5.330 -0.3984  0.3913  0.3315
 7841SOL    HW125391   7.939   3.042   5.294 -0.2335  0.0657  1.0490
 7841SOL    HW225392   7.858   3.170   5.287 -0.5999 -0.2430 -0.9435
 7842SOL     OW25393   5.268   7.035   5.008 -0.0687  0.0157 -0.5018
 7842SOL    HW125394   5.312   7.120   5.003 -2.4674  1.3456 -0.2379
 7842SOL    HW225395   5.220   7.037   5.090  0.4007 -1.9483 -0.1099
 7843SOL     OW25396   1.712   4.276   0.211 -0.1079  0.1002  0.6866
 7843SOL    HW125397   1.616   4.282   0.215 -0.2387 -0.6210 -0.6780
 7843SOL    HW225398   1.743   4.352   0.259 -1.3829  0.7999  0.4436
 7844SOL     OW25399   6.934   3.023   6.777  0.2876 -0.0560  0.5536
 7844SOL    HW125400   7.014   3.066   6.807 -0.0818  1.0046  0.0521
 7844SOL    HW225401   6.963   2.959   6.713  0.7138  0.5217  0.1679
 7845SOL     OW25402   0.863   6.328   5.718 -0.1491  0.0491  0.0692
 7845SOL    HW125403   0.788   6.382   5.692 -0.3283  0.7221  1.8202
 7845SOL    HW225404   0.908   6.309   5.636 -1.5503  0.6580 -0.8906
 7846SOL     OW25405   5.127   4.662   5.329  0.2647  0.0111 -0.2085
 7846SOL    HW125406   5.037   4.692   5.343  0.1434  0.0786 -1.1091
 7846SOL    HW225407   5.180   4.724   5.378 -0.3231 -1.8707  3.1112
 7847SOL     OW25408   8.567   2.763   6.740 -0.0627 -0.0332  0.2000
 7847SOL    HW125409   8.511   2.717   6.677  0.8551  1.9172 -2.1723
 7847SOL    HW225410   8.547   2.856   6.727  1.1267  0.5112  1.8964
 7848SOL     OW25411   7.302   7.797   2.163  0.0030  0.6711 -0.0713
 7848SOL    HW125412   7.379   7.854   2.166  0.6011 -0.1403  1.1650
 7848SOL    HW225413   7.260   7.817   2.079  1.7988  0.8265 -0.9799
 7849SOL     OW25414   7.554   2.175   1.870  0.0810  0.5147  0.1134
 7849SOL    HW125415   7.534   2.166   1.963  0.1510 -0.9420  0.0077
 7849SOL    HW225416   7.553   2.085   1.836  0.3361  0.9954 -1.2347
 7850SOL     OW25417   2.284   5.331   1.939  0.4791 -0.1785  0.5908
 7850SOL    HW125418   2.318   5.408   1.893  2.3252 -2.6436 -2.5875
 7850SOL    HW225419   2.193   5.326   1.912  0.8964 -0.2037 -0.9214
 7851SOL     OW25420   8.208   2.025   1.170  0.8276  0.7375  0.1143
 7851SOL    HW125421   8.254   1.953   1.126  1.1374  0.5078  0.8007
 7851SOL    HW225422   8.187   1.991   1.257  0.0734  1.1292  0.0929
 7852SOL     OW25423   7.229   5.793   6.034 -0.5311 -0.4870 -0.0477
 7852SOL    HW125424   7.176   5.774   6.112  0.3757 -2.3849  0.1584
 7852SOL    HW225425   7.210   5.721   5.974 -0.6042  0.5374 -1.2857
 7853SOL     OW25426   5.951   3.386   1.509  0.4051 -0.2352 -0.4180
 7853SOL    HW125427   5.938   3.292   1.495  1.9576 -0.2391 -2.3529
 7853SOL    HW225428   5.873   3.426   1.472 -0.2362 -0.7499  0.3500
 7854SOL     OW25429   3.274   2.245   8.907 -0.5629  0.5101 -0.2842
 7854SOL    HW125430   3.276   2.163   8.858  2.6387  1.4782 -2.1245
 7854SOL    HW225431   3.242   2.310   8.844 -1.0021  1.0289  0.4587
 7855SOL     OW25432   4.909   3.011   0.611  0.6359  0.0539 -0.1786
 7855SOL    HW125433   4.957   3.050   0.538  0.2677  0.1673 -0.3641
 7855SOL    HW225434   4.889   3.084   0.669  0.2822  0.0834 -0.3345
 7856SOL     OW25435   5.714   8.788   0.506 -0.0752  0.0134  0.1033
 7856SOL    HW125436   5.641   8.734   0.535 -0.0875 -0.2190 -0.3505
 7856SOL    HW225437   5.718   8.775   0.411  0.2070  0.4551  0.0486
 7857SOL     OW25438   2.090   4.522   8.488  0.0919  0.0535 -0.1502
 7857SOL    HW125439   2.038   4.567   8.422  0.9921 -1.2047 -1.7912
 7857SOL    HW225440   2.143   4.591   8.527 -0.7201  0.8842 -0.4851
 7858SOL     OW25441   1.395   6.045   1.109 -0.4488 -0.2727  0.9048
 7858SOL    HW125442   1.424   6.102   1.180 -0.8218  3.1814 -1.4849
 7858SOL    HW225443   1.308   6.079   1.085  0.4069 -0.0327 -2.3348
 7859SOL     OW25444   3.042   3.011   6.312 -0.5562 -0.7204 -0.4767
 7859SOL    HW125445   3.135   2.996   6.327 -0.5810 -0.5177 -0.1137
 7859SOL    HW225446   2.998   2.972   6.387 -0.7183 -0.2105 -0.3013
 7860SOL     OW25447   2.082   7.063   8.151  0.0401  0.8443  0.1358
 7860SOL    HW125448   2.069   7.054   8.245 -0.3278  0.5379  0.0610
 7860SOL    HW225449   1.998   7.095   8.118  0.8187  3.0922  0.1776
 7861SOL     OW25450   6.518   2.022   4.069 -0.1009 -0.0495  0.2704
 7861SOL    HW125451   6.591   2.083   4.059 -1.1597  1.1918 -0.1723
 7861SOL    HW225452   6.533   1.955   4.003 -0.2798  1.1646 -1.0397
 7862SOL     OW25453   8.637   3.100   5.500  0.3581  0.3949  0.0925
 7862SOL    HW125454   8.695   3.026   5.514 -0.2621  0.1295  1.3865
 7862SOL    HW225455   8.572   3.094   5.570 -1.4195  0.5203 -1.4731
 7863SOL     OW25456   8.295   8.404   3.795  0.0283  0.0804 -0.2017
 7863SOL    HW125457   8.358   8.473   3.774  1.9603 -1.0333  1.5440
 7863SOL    HW225458   8.237   8.443   3.861  0.8176  0.1878  0.4326
 7864SOL     OW25459   1.536   2.307   3.517 -0.1739  0.4424  0.4281
 7864SOL    HW125460   1.456   2.356   3.534  0.5661  1.7658  0.2428
 7864SOL    HW225461   1.545   2.306   3.422  0.3463  0.8628  0.4641
 7865SOL     OW25462   2.342   8.402   1.404 -0.2251  0.1040  0.3692
 7865SOL    HW125463   2.419   8.446   1.440  0.1567 -1.4823  1.5875
 7865SOL    HW225464   2.360   8.395   1.310 -0.1720  2.2104  0.1793
 7866SOL     OW25465   0.127   7.903   7.840 -0.1817 -0.0689 -0.3889
 7866SOL    HW125466   0.135   7.808   7.832 -2.7056 -0.4016  0.3649
 7866SOL    HW225467   0.055   7.926   7.782  1.3186  1.6389 -1.6723
 7867SOL     OW25468   2.954   5.445   6.552  0.0069  0.4130 -0.2914
 7867SOL    HW125469   2.979   5.423   6.641  1.2062 -1.9748 -1.1464
 7867SOL    HW225470   2.889   5.379   6.528  0.8940  0.0131 -1.7116
 7868SOL     OW25471   6.090   5.088   6.693  0.5124 -0.3140  0.0251
 7868SOL    HW125472   6.048   5.003   6.703 -1.3948  0.5458 -0.2521
 7868SOL    HW225473   6.027   5.151   6.729  2.8945  0.8367  2.5771
 7869SOL     OW25474   0.377   8.902   7.974  0.0059 -0.6112 -0.0042
 7869SOL    HW125475   0.365   8.972   8.038  0.1663 -1.8255  1.3876
 7869SOL    HW225476   0.471   8.903   7.954  0.6282 -2.3804  2.4034
 7870SOL     OW25477   6.071   3.331   0.553  0.1336  0.0304  0.3162
 7870SOL    HW125478   6.098   3.297   0.638  0.3910 -1.2302 -0.2418
 7870SOL    HW225479   6.067   3.254   0.496 -0.5113  0.7734 -0.6959
 7871SOL     OW25480   8.620   3.836   7.930  0.3472  0.6302  0.5646
 7871SOL    HW125481   8.595   3.926   7.912  1.1080  0.6025 -0.7675
 7871SOL    HW225482   8.687   3.816   7.865 -1.0341 -1.4717 -0.3200
 7872SOL     OW25483   3.605   3.414   5.367  0.4786 -0.1322  0.9469
 7872SOL    HW125484   3.640   3.406   5.278  1.5791 -1.9547  1.4957
 7872SOL    HW225485   3.540   3.345   5.374  1.9038 -1.4332  2.1740
 7873SOL     OW25486   4.978   0.212   4.393  0.5809  0.6276  0.8328
 7873SOL    HW125487   4.974   0.231   4.300  0.9601  1.2080  0.9286
 7873SOL    HW225488   5.063   0.171   4.406  0.6170  0.7397  0.9545
 7874SOL     OW25489   8.086   4.276   2.687 -0.1184  0.0738  0.4820
 7874SOL    HW125490   8.013   4.266   2.625 -0.0522  2.7806 -0.1820
 7874SOL    HW225491   8.163   4.250   2.637 -0.2776  0.3910  0.0638
 7875SOL     OW25492   0.183   8.603   7.646  0.1262  0.4101  0.1936
 7875SOL    HW125493   0.252   8.639   7.702  0.2757 -0.1344  0.3704
 7875SOL    HW225494   0.130   8.548   7.705  0.3251 -0.2241 -0.2059
 7876SOL     OW25495   1.025   7.043   7.534  0.1486  0.0007 -0.6546
 7876SOL    HW125496   0.948   6.998   7.498 -0.8393 -0.7714  2.1720
 7876SOL    HW225497   1.079   6.973   7.570  1.0503  0.7343 -0.5474
 7877SOL     OW25498   7.645   5.270   3.133 -0.0157  0.2003  0.4682
 7877SOL    HW125499   7.597   5.326   3.194 -0.3479 -0.4979  0.8685
 7877SOL    HW225500   7.697   5.330   3.080 -2.1098  1.0829 -0.7062
 7878SOL     OW25501   1.411   2.451   8.493 -0.0046  0.5688  0.6916
 7878SOL    HW125502   1.490   2.414   8.532  1.2692  1.0994 -1.2501
 7878SOL    HW225503   1.427   2.447   8.399 -3.6630 -2.2924 -0.0162
 7879SOL     OW25504   7.683   5.138   7.926  0.2304 -0.4400  0.0995
 7879SOL    HW125505   7.660   5.117   7.835  0.8250 -0.7165  0.0098
 7879SOL    HW225506   7.625   5.083   7.979  0.6912 -1.1468 -0.1205
 7880SOL     OW25507   5.746   3.769   6.012 -0.0809 -0.0234  0.1878
 7880SOL    HW125508   5.659   3.807   6.000  0.2672  0.8536  0.3287
 7880SOL    HW225509   5.777   3.752   5.923  0.5400  1.8994 -0.0116
 7881SOL     OW25510   0.960   6.859   8.582  0.3954 -0.0279 -0.0772
 7881SOL    HW125511   0.929   6.930   8.526  0.0569  1.6366  2.0913
 7881SOL    HW225512   1.045   6.888   8.613  0.3116 -0.6468  0.7624
 7882SOL     OW25513   7.456   6.077   6.365  0.2626  0.1258 -0.8064
 7882SOL    HW125514   7.365   6.103   6.378  0.2049 -0.9450  1.3240
 7882SOL    HW225515   7.450   5.995   6.314 -0.1291 -0.9784  0.9296
 7883SOL     OW25516   6.819   7.575   7.916  0.2975  0.3312  0.8745
 7883SOL    HW125517   6.844   7.574   7.824 -1.0202  1.4903  0.4725
 7883SOL    HW225518   6.755   7.504   7.924 -0.0950  0.6716  0.7454
 7884SOL     OW25519   5.496   3.623   6.995  0.1097 -0.0703  0.0951
 7884SOL    HW125520   5.503   3.575   7.078  0.1364  1.9119  1.2956
 7884SOL    HW225521   5.572   3.682   6.996  0.4805 -0.4691 -1.6762
 7885SOL     OW25522   3.846   1.226   1.675  0.3200 -0.8899 -0.3776
 7885SOL    HW125523   3.776   1.267   1.725  1.8939  1.8325 -0.1838
 7885SOL    HW225524   3.869   1.148   1.725  0.2293  0.4456  1.8763
 7886SOL     OW25525   7.141   6.898   5.547  0.0732 -0.1380  0.2963
 7886SOL    HW125526   7.199   6.826   5.575  1.4517  0.6158 -0.5337
 7886SOL    HW225527   7.122   6.879   5.455  0.7733  0.7449 -0.0435
 7887SOL     OW25528   2.114   2.291   5.680 -0.2452 -0.2527 -0.3946
 7887SOL    HW125529   2.188   2.350   5.667 -0.8578  0.3208 -1.4584
 7887SOL    HW225530   2.141   2.233   5.751  1.5955 -0.6589 -1.3589
 7888SOL     OW25531   8.802   4.636   4.613 -0.0427 -0.1436 -0.0952
 7888SOL    HW125532   8.860   4.565   4.588 -0.9696  0.0131 -3.1222
 7888SOL    HW225533   8.734   4.637   4.545 -0.3764  3.2369  0.0811
 7889SOL     OW25534   5.367   0.344   3.481 -0.0017 -0.1205 -0.1636
 7889SOL    HW125535   5.373   0.407   3.409  0.4023 -0.9978 -0.9172
 7889SOL    HW225536   5.338   0.262   3.439 -2.9442  0.1360  1.1507
 7890SOL     OW25537   7.644   6.861   2.301  0.3231 -0.5646  0.0123
 7890SOL    HW125538   7.659   6.766   2.295  0.1928 -0.6891  1.4460
 7890SOL    HW225539   7.653   6.892   2.210  0.6485 -1.8985 -0.4361
 7891SOL     OW25540   4.731   5.329   0.027  0.0782  0.3438 -0.0465
 7891SOL    HW125541   4.688   5.248   0.054  0.9224 -0.4494 -1.0368
 7891SOL    HW225542   4.677   5.363  -0.044  0.6511 -0.2477 -0.7717
 7892SOL     OW25543   0.253   5.669   3.273  0.3933 -0.3725  0.1411
 7892SOL    HW125544   0.325   5.646   3.332  1.5931  1.7529 -0.3990
 7892SOL    HW225545   0.283   5.639   3.187 -0.0086 -0.7400  0.1260
 7893SOL     OW25546   1.920   2.329   3.116 -0.4345  0.3141 -0.1758
 7893SOL    HW125547   2.014   2.346   3.111 -0.1911 -1.2896 -1.6908
 7893SOL    HW225548   1.891   2.382   3.190  1.9789 -0.5957  1.5545
 7894SOL     OW25549   3.751   1.529   5.661 -0.1119  0.2272 -0.3959
 7894SOL    HW125550   3.664   1.514   5.696  0.3296 -0.8326  0.2932
 7894SOL    HW225551   3.791   1.592   5.721 -0.2685  0.4214 -0.4954
 7895SOL     OW25552   8.337   5.480   0.046  0.2702 -0.2719  0.1137
 7895SOL    HW125553   8.320   5.508  -0.044  1.7067 -0.2385 -0.1767
 7895SOL    HW225554   8.326   5.385   0.045  0.4648 -0.2932 -0.1549
 7896SOL     OW25555   1.007   4.446   7.003  0.0177 -0.1113 -0.1606
 7896SOL    HW125556   1.027   4.422   6.912 -1.1608  0.7434 -0.6852
 7896SOL    HW225557   0.960   4.529   6.995 -1.7340 -0.9174  1.0766
 7897SOL     OW25558   0.384   2.118   4.881  0.1591  0.0976 -0.0885
 7897SOL    HW125559   0.378   2.209   4.910 -0.7701 -0.3324  1.1563
 7897SOL    HW225560   0.300   2.101   4.837 -0.6107 -0.7735  1.6373
 7898SOL     OW25561   4.123   5.242   8.049  0.1067 -0.1109 -0.1818
 7898SOL    HW125562   4.041   5.232   8.001 -0.7111  1.4519  0.8144
 7898SOL    HW225563   4.174   5.165   8.025 -1.3045 -0.6942 -1.4865
 7899SOL     OW25564   6.562   4.564   7.315 -0.2997  0.0742  0.0844
 7899SOL    HW125565   6.492   4.500   7.329 -0.6403  0.1548 -1.1331
 7899SOL    HW225566   6.570   4.610   7.398 -1.1277 -0.5041  0.4888
 7900SOL     OW25567   2.806   3.572   4.244  0.0881 -0.0318 -0.2984
 7900SOL    HW125568   2.745   3.585   4.172  0.3872 -1.8453 -0.9534
 7900SOL    HW225569   2.771   3.496   4.292  0.0129  1.0033  1.3618
 7901SOL     OW25570   0.078   7.362   2.050  0.3968  0.0208 -0.2336
 7901SOL    HW125571   0.120   7.280   2.076 -0.8062 -0.4619  0.2807
 7901SOL    HW225572   0.006   7.336   1.993  0.1141  0.7328 -0.2220
 7902SOL     OW25573   2.910   4.828   2.928 -0.2588  0.0199  0.2899
 7902SOL    HW125574   2.847   4.860   2.864  0.6595 -1.1152 -1.2570
 7902SOL    HW225575   2.894   4.733   2.931 -0.2511  0.0432  1.7380
 7903SOL     OW25576   1.200   6.517   8.595  0.9670  0.0475  0.1751
 7903SOL    HW125577   1.171   6.517   8.686 -1.4347  3.4620 -0.4275
 7903SOL    HW225578   1.260   6.592   8.589  0.6463  0.2135 -1.1788
 7904SOL     OW25579   4.704   1.744   1.226  1.4103  0.1042  0.3349
 7904SOL    HW125580   4.772   1.766   1.289 -0.1053  0.9460  1.7387
 7904SOL    HW225581   4.668   1.661   1.257 -0.2735  1.1961  1.4638
 7905SOL     OW25582   0.291   5.203   1.499 -0.1257  0.4838 -0.7691
 7905SOL    HW125583   0.300   5.269   1.431  0.6483  1.0774 -0.1235
 7905SOL    HW225584   0.356   5.137   1.477  1.2088  1.4121  0.1649
 7906SOL     OW25585   4.543   1.106   5.558  0.0479 -0.3357 -0.1803
 7906SOL    HW125586   4.610   1.042   5.534  0.6960  0.0678  0.5076
 7906SOL    HW225587   4.496   1.065   5.632 -0.9483 -0.9199 -1.0997
 7907SOL     OW25588   1.356   2.203   5.741  0.5054  0.5150  0.3706
 7907SOL    HW125589   1.423   2.136   5.729  0.6452  0.8752 -1.0986
 7907SOL    HW225590   1.401   2.276   5.784  0.6974  0.1966  0.7045
 7908SOL     OW25591   7.627   7.833   0.019  0.1671 -0.0596  0.3045
 7908SOL    HW125592   7.709   7.784   0.017  0.9906  1.2761  0.4490
 7908SOL    HW225593   7.649   7.919  -0.015 -0.7684  0.9030  2.0081
 7909SOL     OW25594   6.274   1.951   6.165 -0.2078  0.5670 -0.0259
 7909SOL    HW125595   6.305   1.911   6.246 -1.3254 -1.3668 -0.5011
 7909SOL    HW225596   6.324   2.032   6.158 -1.5456  1.9032  3.6569
 7910SOL     OW25597   8.993   6.335   0.581  0.0826 -0.1730 -0.6269
 7910SOL    HW125598   9.027   6.266   0.638 -0.8960 -1.2378 -1.2825
 7910SOL    HW225599   8.900   6.340   0.602 -0.6089 -1.4965 -2.9318
 7911SOL     OW25600   0.136   0.618   0.053  0.7736  0.5331 -0.2182
 7911SOL    HW125601   0.059   0.655   0.008 -0.7310 -0.0798  1.7252
 7911SOL    HW225602   0.210   0.665   0.015 -0.6974  2.4767 -0.8584
 7912SOL     OW25603   5.681   3.333   2.785 -0.0755  0.1699  0.1737
 7912SOL    HW125604   5.624   3.256   2.787  2.5385 -1.9280  0.3889
 7912SOL    HW225605   5.682   3.360   2.693 -0.9476 -0.0912  0.0774
 7913SOL     OW25606   6.006   1.192   0.534 -0.3193  0.0571  0.3368
 7913SOL    HW125607   6.045   1.202   0.621 -0.0215  1.1075  0.0914
 7913SOL    HW225608   5.960   1.108   0.538  1.4742 -0.9657  0.8275
 7914SOL     OW25609   3.383   6.767   1.474 -0.4535 -0.1344  0.3417
 7914SOL    HW125610   3.371   6.798   1.384  0.3166 -1.1112 -0.1231
 7914SOL    HW225611   3.317   6.699   1.486  1.1331 -1.9022 -0.4519
 7915SOL     OW25612   6.598   5.422   4.596 -0.2464 -1.0449 -0.1566
 7915SOL    HW125613   6.604   5.347   4.655  0.0268  0.5028  1.8998
 7915SOL    HW225614   6.685   5.426   4.555  0.2593 -0.9827  0.8758
 7916SOL     OW25615   3.066   6.126   8.868  0.4106  0.7539 -0.1949
 7916SOL    HW125616   3.016   6.059   8.914  1.6088  0.4583  0.7346
 7916SOL    HW225617   3.073   6.198   8.930  2.0897  0.3330  0.1585
 7917SOL     OW25618   7.406   3.108   7.359 -0.1057 -0.3277 -0.1905
 7917SOL    HW125619   7.373   3.197   7.365 -0.5972 -0.4733 -0.6959
 7917SOL    HW225620   7.500   3.116   7.376 -0.3905  0.0807  1.2349
 7918SOL     OW25621   0.561   6.281   7.546 -0.3566  0.2733  0.2522
 7918SOL    HW125622   0.525   6.331   7.473 -0.1818 -1.1199 -0.8372
 7918SOL    HW225623   0.655   6.282   7.532 -0.4150 -1.4467 -0.5971
 7919SOL     OW25624   5.847   2.504   7.202 -0.2336 -0.2103 -0.2788
 7919SOL    HW125625   5.888   2.585   7.231 -2.4959  1.4308 -1.3764
 7919SOL    HW225626   5.910   2.436   7.225  1.2022  1.6810  1.8849
 7920SOL     OW25627   6.590   0.287   2.617 -0.3859  0.0777 -0.2414
 7920SOL    HW125628   6.626   0.201   2.640 -0.4489  0.2762  0.6584
 7920SOL    HW225629   6.503   0.287   2.658 -0.6768  0.2907 -0.8581
 7921SOL     OW25630   2.350   6.856   3.647 -0.0004 -0.3154 -0.4563
 7921SOL    HW125631   2.378   6.928   3.590  0.4969  1.7213  2.1841
 7921SOL    HW225632   2.327   6.898   3.729 -1.6488 -3.0233  0.5801
 7922SOL     OW25633   0.848   7.464   5.217  0.6643  0.4967  0.1384
 7922SOL    HW125634   0.810   7.406   5.151 -0.5144 -0.4830  1.5900
 7922SOL    HW225635   0.927   7.499   5.177 -0.2785  0.3512 -1.9587
 7923SOL     OW25636   4.936   2.033   4.751  0.8097  0.7316 -0.3505
 7923SOL    HW125637   4.958   1.998   4.837  2.1995  1.4599 -0.3822
 7923SOL    HW225638   5.006   2.003   4.694 -2.7327 -4.5812 -2.7269
 7924SOL     OW25639   8.493   0.129   8.738 -0.1145  0.1568 -0.3998
 7924SOL    HW125640   8.471   0.082   8.658 -0.2953 -0.7049  0.1373
 7924SOL    HW225641   8.435   0.090   8.805 -1.2087  2.0315 -0.1882
 7925SOL     OW25642   2.263   7.066   8.870  0.5044 -0.6212  0.1891
 7925SOL    HW125643   2.337   7.007   8.852 -0.4967 -1.6641 -0.6597
 7925SOL    HW225644   2.228   7.088   8.784  0.3709  0.6060  0.5424
 7926SOL     OW25645   1.245   6.556   4.402  0.7728 -0.0990  0.3704
 7926SOL    HW125646   1.332   6.535   4.369  1.5564 -0.2137  2.3816
 7926SOL    HW225647   1.209   6.471   4.430 -0.1005 -0.0830 -0.6154
 7927SOL     OW25648   2.257   6.616   2.579 -0.1982  0.4061  0.1300
 7927SOL    HW125649   2.277   6.535   2.625  0.0575  0.2181 -0.3004
 7927SOL    HW225650   2.193   6.661   2.634  0.9268  0.7114  1.2387
 7928SOL     OW25651   4.934   3.608   7.525 -0.1264 -0.1218 -0.1588
 7928SOL    HW125652   5.020   3.646   7.508  0.1352 -0.1503  1.0310
 7928SOL    HW225653   4.887   3.674   7.577 -0.1703 -0.8256  0.7200
 7929SOL     OW25654   5.956   8.342   8.696  0.1420  0.4853 -0.6018
 7929SOL    HW125655   6.020   8.272   8.684 -0.9585 -0.5829 -0.4677
 7929SOL    HW225656   6.000   8.404   8.755  1.0020 -0.2841 -0.3981
 7930SOL     OW25657   4.255   4.891   0.353 -0.3268 -0.0115 -0.1396
 7930SOL    HW125658   4.197   4.951   0.400 -0.2002  0.7020 -0.8698
 7930SOL    HW225659   4.299   4.946   0.289  0.5462 -0.7017 -0.1520
 7931SOL     OW25660   5.617   1.259   1.789 -0.0535 -0.0521  0.1840
 7931SOL    HW125661   5.701   1.306   1.788  0.0506 -0.1859  1.3384
 7931SOL    HW225662   5.553   1.326   1.813  0.0034 -0.3447  1.1898
 7932SOL     OW25663   0.303   2.417   5.831 -0.5441  0.3023  0.0350
 7932SOL    HW125664   0.260   2.495   5.796  0.9045  0.6306 -1.0818
 7932SOL    HW225665   0.348   2.378   5.756  0.6542 -0.3321  1.0512
 7933SOL     OW25666   2.056   2.889   7.314 -0.0192 -0.3202 -0.0575
 7933SOL    HW125667   2.110   2.967   7.301  0.0776 -0.7332 -2.6764
 7933SOL    HW225668   2.085   2.853   7.398  0.7413  1.7952  0.6545
 7934SOL     OW25669   8.563   2.806   3.446  0.4356 -0.1243  0.4719
 7934SOL    HW125670   8.630   2.745   3.477  0.2100 -0.3300  0.5570
 7934SOL    HW225671   8.502   2.813   3.519 -0.9511 -1.8185 -0.4517
 7935SOL     OW25672   5.425   3.399   8.871 -0.2185  0.5357  0.0727
 7935SOL    HW125673   5.444   3.491   8.890 -3.2613  1.1612  0.5207
 7935SOL    HW225674   5.452   3.387   8.779  0.0496  1.8990 -0.0412
 7936SOL     OW25675   4.491   2.269   8.834 -0.2143  0.4930  1.1306
 7936SOL    HW125676   4.457   2.350   8.872  1.0842  0.9837  1.2861
 7936SOL    HW225677   4.427   2.246   8.766 -0.5313  1.7236  0.9871
 7937SOL     OW25678   3.869   6.120   3.907  0.3506 -0.4006  0.0276
 7937SOL    HW125679   3.898   6.030   3.923  0.3818 -0.5124 -0.5988
 7937SOL    HW225680   3.799   6.135   3.970 -0.5621 -1.3318 -0.7330
 7938SOL     OW25681   1.316   6.765   5.278 -0.0163 -0.0272 -0.5183
 7938SOL    HW125682   1.282   6.844   5.237 -2.9492 -0.5028  0.8057
 7938SOL    HW225683   1.304   6.696   5.213  0.5452  0.2005 -0.8715
 7939SOL     OW25684   2.183   8.906   0.883  0.2900  0.6967 -0.6385
 7939SOL    HW125685   2.118   8.935   0.818  0.5558  1.9208 -0.3735
 7939SOL    HW225686   2.135   8.906   0.966 -0.2527 -1.5635 -0.8868
 7940SOL     OW25687   8.122   0.557   4.845 -0.2934  0.9433  0.0494
 7940SOL    HW125688   8.195   0.563   4.906  0.7940 -0.2743 -1.0638
 7940SOL    HW225689   8.075   0.478   4.873 -1.2699  1.7556  0.8015
 7941SOL     OW25690   0.196   8.136   7.614  0.1004 -0.0433 -0.2713
 7941SOL    HW125691   0.264   8.161   7.552 -0.5171 -0.3390 -1.0823
 7941SOL    HW225692   0.242   8.126   7.697  1.2333 -1.2124 -1.0028
 7942SOL     OW25693   5.041   7.385   2.328  0.0794 -0.1141 -0.1494
 7942SOL    HW125694   5.083   7.420   2.249 -0.0590 -0.2827 -0.2974
 7942SOL    HW225695   5.013   7.463   2.376  0.3189 -0.0068 -0.1832
 7943SOL     OW25696   7.919   4.002   6.875 -0.3689 -0.0445 -0.2014
 7943SOL    HW125697   7.882   3.929   6.826  1.1750 -0.0853 -1.3805
 7943SOL    HW225698   7.853   4.023   6.941 -2.5357 -0.0108 -2.2598
 7944SOL     OW25699   6.003   2.359   0.396 -0.3495  0.4341  0.3250
 7944SOL    HW125700   5.934   2.304   0.361 -1.6167  1.4777  1.0631
 7944SOL    HW225701   6.080   2.302   0.403 -0.2449 -0.0416 -3.2513
 7945SOL     OW25702   5.423   4.198   0.506  0.1065  0.0825 -0.0602
 7945SOL    HW125703   5.493   4.162   0.561 -0.9956 -1.0393  0.6388
 7945SOL    HW225704   5.451   4.178   0.417  0.3190 -1.0585  0.2437
 7946SOL     OW25705   7.346   2.806   8.344 -0.7379 -0.2473  0.4343
 7946SOL    HW125706   7.363   2.748   8.418 -1.3711  0.0757  0.8399
 7946SOL    HW225707   7.257   2.839   8.359 -1.2836 -0.9802 -1.0049
 7947SOL     OW25708   2.883   7.626   1.229  0.8931 -0.0180  0.0802
 7947SOL    HW125709   2.969   7.619   1.272  0.5268 -5.5970  0.7493
 7947SOL    HW225710   2.903   7.642   1.137  2.3658  1.7775  0.6475
 7948SOL     OW25711   7.274   1.069   0.541 -0.0342  0.1824 -0.0097
 7948SOL    HW125712   7.195   1.015   0.533 -0.1605  0.0935  1.5227
 7948SOL    HW225713   7.344   1.013   0.507 -0.6511  0.3743 -1.6627
 7949SOL     OW25714   5.211   0.931   5.787  0.0837  0.5516 -0.1221
 7949SOL    HW125715   5.190   0.924   5.880  0.5999  1.6133  0.0837
 7949SOL    HW225716   5.184   0.847   5.750 -0.3743  0.2226  0.9345
 7950SOL     OW25717   1.517   7.780   4.344  0.3594  0.1226 -0.3044
 7950SOL    HW125718   1.518   7.746   4.255 -0.9133  0.3649 -0.4264
 7950SOL    HW225719   1.453   7.851   4.342 -1.4728 -1.3607  1.3025
 7951SOL     OW25720   5.739   1.138   5.831  0.1969  0.1192  0.1195
 7951SOL    HW125721   5.652   1.115   5.800  0.1925  1.1954 -0.7282
 7951SOL    HW225722   5.732   1.137   5.927 -0.2152 -1.6834  0.1057
 7952SOL     OW25723   0.493   5.805   8.794 -0.2785 -0.4598 -0.2706
 7952SOL    HW125724   0.466   5.715   8.810 -0.2775 -0.3042  0.6831
 7952SOL    HW225725   0.546   5.801   8.715 -1.1951 -1.1149 -0.8663
 7953SOL     OW25726   8.275   4.635   2.079  0.1697  0.1792 -0.1833
 7953SOL    HW125727   8.328   4.590   2.144  2.6554  1.2496 -1.3598
 7953SOL    HW225728   8.224   4.699   2.130  0.4744 -0.4188  0.9056
 7954SOL     OW25729   7.654   0.043   5.324  0.5142 -0.3679 -0.2721
 7954SOL    HW125730   7.574   0.095   5.314 -0.1764 -1.5498 -1.1423
 7954SOL    HW225731   7.628  -0.030   5.380  1.4889  0.2123  0.9871
 7955SOL     OW25732   6.295   2.360   3.054  0.4783  0.8851  0.4147
 7955SOL    HW125733   6.249   2.346   2.971 -1.0435  1.4800  1.1217
 7955SOL    HW225734   6.323   2.452   3.051  1.8379  0.4758 -0.0921
 7956SOL     OW25735   1.006   0.314   7.968 -0.2285  0.3555 -0.5349
 7956SOL    HW125736   1.062   0.390   7.985  1.9721 -1.0039 -1.2348
 7956SOL    HW225737   1.008   0.265   8.050 -1.4747  0.9051 -0.1530
 7957SOL     OW25738   5.529   5.938   4.155 -0.5831  0.4134  0.1839
 7957SOL    HW125739   5.560   5.849   4.141 -1.9840 -0.1590  0.6327
 7957SOL    HW225740   5.608   5.992   4.146  0.4967 -0.9575  1.0465
 7958SOL     OW25741   0.067   2.701   0.550 -0.0355  0.6704 -0.4318
 7958SOL    HW125742  -0.012   2.672   0.596 -0.0482 -0.3109 -1.0260
 7958SOL    HW225743   0.053   2.674   0.459  1.3262 -0.2888 -0.3845
 7959SOL     OW25744   5.397   7.659   1.213  0.3763 -0.2381 -0.1315
 7959SOL    HW125745   5.360   7.602   1.145  1.0766 -1.7554  0.6931
 7959SOL    HW225746   5.471   7.609   1.248  0.5628  0.8745  1.1456
 7960SOL     OW25747   5.428   3.611   0.591  0.1951  0.5952 -0.6939
 7960SOL    HW125748   5.501   3.612   0.654  0.3980 -1.0727 -0.8627
 7960SOL    HW225749   5.469   3.628   0.506  0.5225 -1.0268 -0.8845
 7961SOL     OW25750   7.284   3.901   4.565  0.5123  0.3343  0.0540
 7961SOL    HW125751   7.335   3.937   4.637 -0.9677  1.3914  0.6309
 7961SOL    HW225752   7.340   3.911   4.488  1.0218  1.8162  0.5940
 7962SOL     OW25753   2.508   2.572   6.601 -0.1178 -0.9058 -0.2356
 7962SOL    HW125754   2.598   2.550   6.622  0.1160 -2.2637 -2.3835
 7962SOL    HW225755   2.514   2.624   6.521 -1.2612 -1.9227 -1.0230
 7963SOL     OW25756   3.382   5.190   5.533  0.0142  0.3167  0.2034
 7963SOL    HW125757   3.323   5.115   5.539  1.3176 -0.7091  0.5896
 7963SOL    HW225758   3.438   5.171   5.457 -0.5589  1.6030 -0.5798
 7964SOL     OW25759   6.082   8.902   1.903  0.1650 -0.2985 -0.3819
 7964SOL    HW125760   6.036   8.985   1.916 -0.0102 -0.4833  0.2256
 7964SOL    HW225761   6.090   8.893   1.808 -0.8625 -0.1487 -0.4982
 7965SOL     OW25762   3.353   1.714   2.145  0.6869 -0.2769  0.1385
 7965SOL    HW125763   3.292   1.675   2.208  0.2487  1.0413  0.5698
 7965SOL    HW225764   3.298   1.739   2.071  0.1102  3.0794  1.4666
 7966SOL     OW25765   0.056   1.943   0.071 -0.0115 -0.3501  0.6510
 7966SOL    HW125766  -0.038   1.930   0.083 -0.2095 -2.6667 -2.2460
 7966SOL    HW225767   0.088   1.858   0.041  3.2957  0.0288  2.6605
 7967SOL     OW25768   5.323   6.586   7.977 -0.4180  0.1832 -0.0260
 7967SOL    HW125769   5.392   6.626   8.031 -1.6168  0.3620  1.4125
 7967SOL    HW225770   5.244   6.593   8.029 -1.6815  0.5062 -1.8904
 7968SOL     OW25771   5.081   7.740   1.759 -0.8016  0.0513  0.2550
 7968SOL    HW125772   5.015   7.763   1.824 -0.1521 -0.1981  1.0204
 7968SOL    HW225773   5.046   7.662   1.716 -1.4699  0.5129 -0.0614
 7969SOL     OW25774   5.591   0.559   4.837  0.0586  0.0074 -0.3252
 7969SOL    HW125775   5.632   0.524   4.916 -1.1416  1.2076  0.8836
 7969SOL    HW225776   5.555   0.483   4.793  1.1370 -0.7344  0.0216
 7970SOL     OW25777   6.514   2.462   5.842  0.5200  0.7029  0.0994
 7970SOL    HW125778   6.480   2.472   5.753  2.1448 -2.1138 -0.9553
 7970SOL    HW225779   6.598   2.508   5.842  1.1874 -0.4781 -0.3061
 7971SOL     OW25780   7.311   6.748   3.779  0.3167 -0.3573 -0.4419
 7971SOL    HW125781   7.335   6.702   3.699  1.6372  0.7211 -0.7073
 7971SOL    HW225782   7.336   6.689   3.850  3.1015  0.3284 -0.7291
 7972SOL     OW25783   3.117   2.857   1.894 -0.2512 -0.3267 -0.2144
 7972SOL    HW125784   3.094   2.775   1.851  1.9469 -0.7691 -0.6612
 7972SOL    HW225785   3.115   2.836   1.988  2.4189 -1.6407 -0.3328
 7973SOL     OW25786   7.487   3.343   2.175  0.4508 -0.2104  0.1678
 7973SOL    HW125787   7.399   3.373   2.151 -0.0541 -0.7621  1.2694
 7973SOL    HW225788   7.472   3.272   2.238  1.6340 -1.6439 -1.0832
 7974SOL     OW25789   1.538   1.744   6.470  0.6838  0.5541  0.1183
 7974SOL    HW125790   1.546   1.750   6.566  0.3527 -0.3909  0.2158
 7974SOL    HW225791   1.490   1.822   6.445 -0.8145 -0.0727  0.9295
 7975SOL     OW25792   1.821   1.157   7.750  0.3017 -0.4768  0.1030
 7975SOL    HW125793   1.763   1.132   7.678 -0.0399 -0.1588  0.2632
 7975SOL    HW225794   1.837   1.075   7.797 -1.5174 -0.2836  1.1412
 7976SOL     OW25795   1.129   0.605   6.140  0.1883 -0.1788  0.2771
 7976SOL    HW125796   1.121   0.538   6.072 -1.2203  1.1947 -0.9899
 7976SOL    HW225797   1.048   0.654   6.135  0.0377 -0.0019  3.0072
 7977SOL     OW25798   5.183   2.369   7.533 -0.5718  0.1106 -0.8873
 7977SOL    HW125799   5.117   2.309   7.500 -1.2821 -0.6991  1.7542
 7977SOL    HW225800   5.262   2.316   7.542 -1.0929 -0.4140  1.0694
 7978SOL     OW25801   3.950   2.071   5.969  0.0887 -0.5907 -0.0588
 7978SOL    HW125802   3.903   2.130   6.028  0.5310  0.3282 -0.6099
 7978SOL    HW225803   3.984   2.003   6.027  1.4651  0.8810  0.9526
 7979SOL     OW25804   6.710   0.810   3.744  0.3648 -0.0629  0.5555
 7979SOL    HW125805   6.617   0.790   3.740  0.2528  0.1231  1.7740
 7979SOL    HW225806   6.713   0.901   3.774  0.9466 -0.0818  0.5646
 7980SOL     OW25807   8.479   0.758   1.485  0.0951  0.1501 -0.1465
 7980SOL    HW125808   8.509   0.772   1.395 -0.1793 -0.6297 -0.3675
 7980SOL    HW225809   8.387   0.731   1.476  0.3194 -0.8339  0.2964
 7981SOL     OW25810   3.150   3.825   8.324 -0.7023 -0.0933  0.0989
 7981SOL    HW125811   3.158   3.755   8.388 -0.7719 -0.5866 -0.4153
 7981SOL    HW225812   3.067   3.807   8.280 -0.7856  0.3926  0.0522
 7982SOL     OW25813   4.315   4.553   5.570  0.2837  0.3482  0.4507
 7982SOL    HW125814   4.403   4.514   5.569 -0.7623 -2.1710 -0.0142
 7982SOL    HW225815   4.293   4.560   5.663  0.3542 -0.6129  0.5550
 7983SOL     OW25816   7.051   3.190   3.314  0.6025  0.5730  0.4534
 7983SOL    HW125817   7.098   3.222   3.237  1.5040 -0.4243  0.5675
 7983SOL    HW225818   7.120   3.156   3.372 -0.0531  1.3256  1.7164
 7984SOL     OW25819   3.396   7.591   8.132 -0.0694 -0.0622 -0.1253
 7984SOL    HW125820   3.490   7.604   8.134 -0.1061  0.1738  0.2142
 7984SOL    HW225821   3.364   7.657   8.071 -0.2621  1.5705  1.6568
 7985SOL     OW25822   4.341   2.109   2.856 -0.2832 -0.4756  0.6240
 7985SOL    HW125823   4.414   2.171   2.856  0.2457 -1.0906  0.6697
 7985SOL    HW225824   4.364   2.044   2.922 -1.7719  0.3401  2.0196
 7986SOL     OW25825   8.693   1.587   1.669 -0.3640 -0.0374 -0.0243
 7986SOL    HW125826   8.681   1.668   1.619  0.0635  0.2386  0.3101
 7986SOL    HW225827   8.781   1.557   1.645  0.0037  0.3035  0.8376
 7987SOL     OW25828   5.436   1.321   7.096 -0.0355  0.3299 -0.7966
 7987SOL    HW125829   5.405   1.250   7.153  0.3342  0.7137 -0.0978
 7987SOL    HW225830   5.527   1.333   7.121 -0.8235  3.0481  1.2749
 7988SOL     OW25831   6.078   2.899   0.842  0.5359  0.1292 -0.6060
 7988SOL    HW125832   5.989   2.884   0.811  0.0591  1.4729  0.0091
 7988SOL    HW225833   6.068   2.966   0.911  2.0197  0.3668 -0.5921
 7989SOL     OW25834   7.954   1.563   1.027 -0.4881  0.2215 -0.3403
 7989SOL    HW125835   7.893   1.504   0.983  0.2572  0.3306 -1.5613
 7989SOL    HW225836   8.021   1.581   0.962  0.5556  0.5507  0.7874
 7990SOL     OW25837   2.058   5.112   4.120 -0.3019 -0.1416 -0.7596
 7990SOL    HW125838   2.149   5.142   4.122 -0.2023 -0.4503  0.7458
 7990SOL    HW225839   2.012   5.171   4.180 -0.2131 -2.5099  1.8400
 7991SOL     OW25840   7.795   4.004   8.654  0.2790 -0.3816  0.3060
 7991SOL    HW125841   7.884   3.995   8.620  0.1538 -0.7094  0.0616
 7991SOL    HW225842   7.776   4.097   8.647  0.1973 -0.4687 -0.6756
 7992SOL     OW25843   8.532   4.043   0.211 -0.0323  0.9832  0.4870
 7992SOL    HW125844   8.575   4.035   0.297  1.3290  0.6428 -0.2050
 7992SOL    HW225845   8.586   3.991   0.152 -1.5812  0.3081 -0.3791
 7993SOL     OW25846   4.305   2.365   4.407  0.2219 -0.9364  0.7149
 7993SOL    HW125847   4.349   2.293   4.452 -0.6473 -2.5965 -0.9110
 7993SOL    HW225848   4.237   2.322   4.354  0.4692  0.9566 -1.2955
 7994SOL     OW25849   7.730   4.654   6.303 -0.8168 -0.4582 -0.4312
 7994SOL    HW125850   7.700   4.745   6.302 -0.6968 -0.2605 -4.8454
 7994SOL    HW225851   7.815   4.657   6.258 -0.8385 -2.7792 -0.7309
 7995SOL     OW25852   0.970   5.667   3.950  0.0488  0.1836 -0.4011
 7995SOL    HW125853   0.882   5.694   3.977  1.1096  2.3857  1.0569
 7995SOL    HW225854   0.993   5.597   4.010 -0.0224  0.8385  0.4031
 7996SOL     OW25855   2.603   2.282   5.485 -0.4813  0.9727 -0.6497
 7996SOL    HW125856   2.666   2.315   5.421 -1.1310 -1.2745 -2.5715
 7996SOL    HW225857   2.517   2.303   5.448 -0.8855  1.8342  0.7302
 7997SOL     OW25858   4.116   8.625   6.985  0.0540  0.0493 -0.8273
 7997SOL    HW125859   4.041   8.616   7.043  0.2839  0.7962 -0.4004
 7997SOL    HW225860   4.100   8.563   6.914 -1.2725  0.6374 -1.0706
 7998SOL     OW25861   7.942   5.711   3.316 -0.0872 -0.2538 -0.3899
 7998SOL    HW125862   7.868   5.652   3.305 -0.6295  0.1420  0.9196
 7998SOL    HW225863   7.939   5.737   3.408  0.6496  1.1455 -0.7222
 7999SOL     OW25864   6.703   3.915   2.996  0.3583 -0.8543  0.0239
 7999SOL    HW125865   6.706   3.838   2.939 -3.7598 -2.2804  1.3521
 7999SOL    HW225866   6.785   3.912   3.045  0.9425 -3.6386 -0.9172
 8000SOL     OW25867   5.047   5.371   0.214  0.1849 -0.3839 -0.3787
 8000SOL    HW125868   5.002   5.290   0.189  1.0336 -1.0700  0.2542
 8000SOL    HW225869   4.977   5.433   0.231 -0.5029 -1.1599 -0.3232
 8001SOL     OW25870   5.235   4.282   1.917  0.2955  0.2531 -0.4734
 8001SOL    HW125871   5.290   4.206   1.899 -2.0969 -1.5354 -0.6740
 8001SOL    HW225872   5.216   4.275   2.011 -0.5546  0.1601 -0.6506
 8002SOL     OW25873   3.903   8.388   6.122  0.2059 -0.6546  0.6183
 8002SOL    HW125874   3.881   8.469   6.168  0.6440  0.1262 -0.5195
 8002SOL    HW225875   3.922   8.415   6.032  0.8465 -1.9558  0.3356
 8003SOL     OW25876   1.962   4.687   3.059  0.9979  0.0847  0.2268
 8003SOL    HW125877   1.985   4.711   3.149  0.5359 -0.0783  0.3879
 8003SOL    HW225878   2.040   4.712   3.008  1.5471 -0.4760  0.7712
 8004SOL     OW25879   1.605   1.109   4.085  0.4501 -0.1601 -0.1859
 8004SOL    HW125880   1.677   1.145   4.137 -0.0023 -1.2347  1.2416
 8004SOL    HW225881   1.591   1.021   4.120 -0.0968 -0.8060 -1.9426
 8005SOL     OW25882   1.432   0.495   8.454  0.2026 -0.8241 -0.1424
 8005SOL    HW125883   1.442   0.587   8.480  0.0985 -1.1349  1.0472
 8005SOL    HW225884   1.468   0.491   8.365  1.1758  0.1438  0.1939
 8006SOL     OW25885   5.038   6.199   3.884 -0.1162  0.2904  0.4933
 8006SOL    HW125886   4.942   6.193   3.880 -0.0674 -0.6205  0.2774
 8006SOL    HW225887   5.066   6.110   3.907  0.7021  0.4019 -0.0249
 8007SOL     OW25888   7.903   0.997   7.725  0.2657  0.6719  0.3496
 8007SOL    HW125889   7.826   0.955   7.764  0.7831 -0.5053  0.1709
 8007SOL    HW225890   7.869   1.071   7.676 -0.6719  0.6014  0.8748
 8008SOL     OW25891   7.854   2.512   4.500  0.1922 -0.1553 -0.3060
 8008SOL    HW125892   7.803   2.592   4.490  1.8135  0.9538 -0.1750
 8008SOL    HW225893   7.883   2.491   4.411 -0.4870 -0.7883 -0.3837
 8009SOL     OW25894   5.340   1.463   0.290  0.1167  0.2696 -0.2237
 8009SOL    HW125895   5.426   1.478   0.250  0.4390 -0.9076 -0.0263
 8009SOL    HW225896   5.289   1.419   0.221 -0.0123  0.1201 -0.0338
 8010SOL     OW25897   5.298   6.095   0.705 -0.0793  0.7574 -0.1635
 8010SOL    HW125898   5.207   6.087   0.677  0.3711 -2.6681 -1.0606
 8010SOL    HW225899   5.318   6.011   0.745  2.8022  1.3116 -0.2501
 8011SOL     OW25900   4.754   0.228   4.970 -0.9541 -0.0796  0.5344
 8011SOL    HW125901   4.806   0.151   4.947 -0.6840  0.5402 -1.0510
 8011SOL    HW225902   4.788   0.255   5.055 -0.1777 -0.9615  0.5225
 8012SOL     OW25903   3.638   0.660   5.657  0.4591 -0.2283 -0.1207
 8012SOL    HW125904   3.625   0.744   5.614  2.1460 -0.1418 -0.5091
 8012SOL    HW225905   3.684   0.682   5.739 -0.6572 -0.6231  0.6415
 8013SOL     OW25906   6.916   6.215   8.613  0.0886 -0.2862  0.1898
 8013SOL    HW125907   6.901   6.309   8.620 -0.4061 -0.4645  2.2019
 8013SOL    HW225908   6.930   6.186   8.703  1.0613 -2.0224 -0.4669
 8014SOL     OW25909   1.938   6.971   6.624  0.3364  0.0869  0.0273
 8014SOL    HW125910   1.897   6.934   6.702 -0.6010 -0.3347 -0.6397
 8014SOL    HW225911   2.009   6.910   6.603 -0.4846 -0.7583 -0.4056
 8015SOL     OW25912   1.397   5.933   8.744  0.0304  0.1555 -0.1029
 8015SOL    HW125913   1.472   5.942   8.803 -0.0096 -2.0685  0.3937
 8015SOL    HW225914   1.432   5.882   8.670 -1.2653 -2.3942  0.9066
 8016SOL     OW25915   3.986   5.916   0.754  0.5302 -0.1931  0.5621
 8016SOL    HW125916   4.060   5.976   0.768  1.6356 -1.2926 -0.3043
 8016SOL    HW225917   3.910   5.965   0.784  1.6146  0.9514  1.6069
 8017SOL     OW25918   1.981   5.867   0.693 -0.0961  0.0729 -0.5164
 8017SOL    HW125919   1.980   5.853   0.599  0.6614 -0.3759 -0.4604
 8017SOL    HW225920   2.009   5.784   0.730 -0.4862  0.2151  0.1138
 8018SOL     OW25921   7.548   1.701   4.245 -0.3611  0.5090 -0.0257
 8018SOL    HW125922   7.518   1.613   4.225 -0.9272  0.4061  1.1605
 8018SOL    HW225923   7.640   1.691   4.267  0.1446  0.5593 -1.9915
 8019SOL     OW25924   6.126   4.626   1.606 -0.1176  0.2820  0.1455
 8019SOL    HW125925   6.191   4.556   1.606 -1.3000 -0.8733  0.8149
 8019SOL    HW225926   6.133   4.666   1.520  1.3810  0.1082  0.1689
 8020SOL     OW25927   6.051   0.635   4.774 -0.8036 -0.1662 -0.5675
 8020SOL    HW125928   5.979   0.579   4.746 -1.5124 -0.6449  2.0215
 8020SOL    HW225929   6.036   0.718   4.728 -0.7351 -1.4474 -3.0681
 8021SOL     OW25930   6.470   7.706   0.523 -0.2526 -0.0301  0.1473
 8021SOL    HW125931   6.551   7.702   0.574 -0.1956  1.3692  0.2305
 8021SOL    HW225932   6.496   7.680   0.435  0.5766  1.4504 -0.0908
 8022SOL     OW25933   8.731   8.728   4.021 -0.0922 -0.2464 -0.9220
 8022SOL    HW125934   8.683   8.796   3.974  1.6862  0.2155 -2.1689
 8022SOL    HW225935   8.823   8.751   4.008  0.4952 -1.4422  0.8531
 8023SOL     OW25936   0.633   5.883   2.145 -0.1007  0.5307 -0.2923
 8023SOL    HW125937   0.617   5.976   2.130  1.6139  0.7326 -1.1260
 8023SOL    HW225938   0.623   5.872   2.240  0.0028  1.6356 -0.1376
 8024SOL     OW25939   2.507   3.908   5.593  0.0042  0.2329 -0.2805
 8024SOL    HW125940   2.530   3.818   5.567  0.2206  0.1842  0.0795
 8024SOL    HW225941   2.466   3.945   5.515 -3.3943 -1.3265  0.5606
 8025SOL     OW25942   8.214   0.606   7.155  0.5060 -0.2153  0.4490
 8025SOL    HW125943   8.170   0.680   7.197 -2.2288 -1.7698  0.5196
 8025SOL    HW225944   8.258   0.645   7.079  0.6471  1.7177  1.4527
 8026SOL     OW25945   8.809   8.476   1.657 -0.3249  0.2612  0.4186
 8026SOL    HW125946   8.901   8.466   1.630 -0.8048 -0.9430 -0.8957
 8026SOL    HW225947   8.778   8.387   1.669 -1.2162  0.6746  1.3017
 8027SOL     OW25948   1.777   2.101   6.912  0.2684 -0.0254 -0.2438
 8027SOL    HW125949   1.768   2.185   6.957  0.2877  0.2540 -0.7455
 8027SOL    HW225950   1.741   2.037   6.973 -0.8216  0.4967 -0.3115
 8028SOL     OW25951   2.134   6.412   7.240  0.6670 -0.4253  0.2693
 8028SOL    HW125952   2.046   6.416   7.277  0.6106  2.1324  0.0104
 8028SOL    HW225953   2.124   6.441   7.149  1.7769  0.0255  0.2704
 8029SOL     OW25954   4.347   0.697   7.893 -0.0826 -0.5781  0.2640
 8029SOL    HW125955   4.337   0.747   7.812  0.4392  0.4088  0.8006
 8029SOL    HW225956   4.374   0.610   7.864  5.5176  1.0878 -0.5431
 8030SOL     OW25957   3.741   2.817   5.397 -0.3084 -0.0618  0.2082
 8030SOL    HW125958   3.702   2.897   5.433 -0.0730  0.7412 -1.2095
 8030SOL    HW225959   3.835   2.833   5.399 -0.2242 -0.5746  0.4948
 8031SOL     OW25960   5.573   0.837   6.578  0.2187  0.2036 -0.2459
 8031SOL    HW125961   5.526   0.905   6.531 -0.2601  0.3922  0.4844
 8031SOL    HW225962   5.550   0.756   6.534  0.1867  0.4304 -0.6516
 8032SOL     OW25963   0.324   8.574   8.909 -0.0286 -0.4187  0.2968
 8032SOL    HW125964   0.353   8.508   8.846 -0.7970  1.2305 -1.8999
 8032SOL    HW225965   0.248   8.534   8.953 -0.0255 -1.2657 -0.4551
 8033SOL     OW25966   6.185   8.971   6.607  0.3241 -0.0826  0.1415
 8033SOL    HW125967   6.093   8.982   6.583  0.4422 -0.7995 -0.6863
 8033SOL    HW225968   6.232   8.970   6.524  1.2404  1.4287  0.5966
 8034SOL     OW25969   0.130   8.220   8.153 -0.4530  0.4713 -0.4276
 8034SOL    HW125970   0.113   8.128   8.137 -0.3067  0.1640  1.0276
 8034SOL    HW225971   0.068   8.245   8.221  0.5066  1.0439  0.2652
 8035SOL     OW25972   7.690   1.785   1.147  0.1315 -0.4120  0.5290
 8035SOL    HW125973   7.776   1.820   1.126  0.6789 -2.7203 -1.4896
 8035SOL    HW225974   7.646   1.775   1.062 -2.6172  1.6415  1.5338
 8036SOL     OW25975   4.140   3.171   8.639 -0.7032  0.1200  0.2808
 8036SOL    HW125976   4.213   3.190   8.698 -0.6302 -2.3636  1.1018
 8036SOL    HW225977   4.072   3.233   8.663  0.5493  1.3967  0.6258
 8037SOL     OW25978   7.563   5.993   4.805  0.5051 -0.7297  0.4443
 8037SOL    HW125979   7.536   6.085   4.805  2.0746 -0.1832  2.7103
 8037SOL    HW225980   7.622   5.985   4.731 -0.2456 -0.1410 -0.2453
 8038SOL     OW25981   6.118   7.657   0.969 -0.1899 -1.0279 -0.0653
 8038SOL    HW125982   6.170   7.732   0.941  0.8036 -2.3839 -2.1096
 8038SOL    HW225983   6.055   7.693   1.031  0.9066  1.2901 -0.1968
 8039SOL     OW25984   3.504   7.927   7.728 -0.3256  0.4412 -0.5301
 8039SOL    HW125985   3.548   8.012   7.724 -0.7941  0.8400  1.6143
 8039SOL    HW225986   3.411   7.948   7.716 -0.4438  0.2325  0.0152
 8040SOL     OW25987   3.002   5.095   6.777 -0.0103  0.0240 -0.1172
 8040SOL    HW125988   2.978   5.078   6.868  3.2922 -2.4273  0.4865
 8040SOL    HW225989   2.980   5.187   6.764 -1.4600  0.2385  2.8042
 8041SOL     OW25990   3.870   5.237   8.852 -0.3269 -0.2621 -0.3011
 8041SOL    HW125991   3.804   5.197   8.795 -0.8773  1.2934 -0.8145
 8041SOL    HW225992   3.937   5.270   8.792 -0.2177  0.1700  0.0554
 8042SOL     OW25993   2.687   2.634   6.188 -0.1144 -0.5649  0.7729
 8042SOL    HW125994   2.601   2.595   6.206 -0.1857 -1.2117 -0.7792
 8042SOL    HW225995   2.748   2.583   6.242 -0.6969  0.0057  2.0091
 8043SOL     OW25996   8.537   6.076   1.241  0.0273 -0.1474  0.5078
 8043SOL    HW125997   8.490   6.021   1.304 -0.8033  0.1266  0.1370
 8043SOL    HW225998   8.531   6.164   1.278  0.5368 -0.1602  0.6237
 8044SOL     OW25999   3.955   7.502   4.460 -0.0222 -0.4643  0.2716
 8044SOL    HW126000   3.947   7.407   4.455  0.2306 -0.3994 -2.1594
 8044SOL    HW226001   4.008   7.517   4.538  1.4157 -2.4206 -0.2590
 8045SOL     OW26002   4.716   2.050   7.346  0.5811  0.4972 -0.5121
 8045SOL    HW126003   4.808   2.025   7.353  0.3852  0.1577  1.4287
 8045SOL    HW226004   4.710   2.134   7.390 -0.3516 -0.4120  1.1886
 8046SOL     OW26005   2.408   4.957   7.671  0.3511 -0.2642  0.1077
 8046SOL    HW126006   2.327   5.001   7.645  0.7846  1.4613  1.5329
 8046SOL    HW226007   2.379   4.888   7.731 -0.1054  0.0222  0.2246
 8047SOL     OW26008   8.795   3.982   5.278 -0.9503  0.2035 -0.4479
 8047SOL    HW126009   8.781   3.991   5.372 -2.4288  0.9744 -0.7197
 8047SOL    HW226010   8.801   3.888   5.263  1.2253  0.1033  0.6456
 8048SOL     OW26011   8.266   4.297   8.165  0.2073  0.7083 -0.0293
 8048SOL    HW126012   8.360   4.309   8.182 -0.0784  2.8629  0.3051
 8048SOL    HW226013   8.232   4.386   8.152 -2.1948  0.2148  2.0180
 8049SOL     OW26014   7.452   3.896   2.168  0.1965  0.1404  0.1070
 8049SOL    HW126015   7.467   3.990   2.160  0.3563  0.1797  0.8205
 8049SOL    HW226016   7.396   3.887   2.245  0.0895 -0.3407 -0.0239
 8050SOL     OW26017   1.437   5.727   3.193  0.2799 -0.0343  0.4323
 8050SOL    HW126018   1.386   5.646   3.201 -0.3992  0.4160  0.8241
 8050SOL    HW226019   1.412   5.778   3.271  1.0712  0.3409  0.4423
 8051SOL     OW26020   0.902   7.055   8.393  0.6338  0.3860 -0.5374
 8051SOL    HW126021   0.950   7.132   8.364  0.8014  1.0506  1.3206
 8051SOL    HW226022   0.826   7.051   8.336  1.2770  1.1789 -1.4870
 8052SOL     OW26023   0.157   7.024   7.861  0.2142  0.1716 -0.0741
 8052SOL    HW126024   0.201   6.939   7.866 -0.2364 -0.0666 -0.1273
 8052SOL    HW226025   0.191   7.072   7.936  0.1420 -0.2142  0.2095
 8053SOL     OW26026   4.959   3.296   7.383 -0.2702  0.6398  0.0449
 8053SOL    HW126027   5.003   3.338   7.457  0.8805 -1.0127  0.3725
 8053SOL    HW226028   4.951   3.364   7.317 -0.9593  2.0588  1.5270
 8054SOL     OW26029   3.600   0.773   4.056  0.2099 -0.6230  0.4472
 8054SOL    HW126030   3.589   0.867   4.059  1.8275 -0.4307  2.7434
 8054SOL    HW226031   3.549   0.739   4.129 -1.4641 -1.7293 -1.1460
 8055SOL     OW26032   6.751   8.672   3.695  0.6359 -0.0122  0.2852
 8055SOL    HW126033   6.816   8.623   3.645  0.4609 -0.0173  0.0623
 8055SOL    HW226034   6.667   8.649   3.656  0.5573  0.5152  0.1324
 8056SOL     OW26035   2.392   0.985   0.952 -0.6837 -0.3722  0.4154
 8056SOL    HW126036   2.304   0.950   0.937 -1.1016  1.1743 -1.0775
 8056SOL    HW226037   2.405   1.048   0.881  1.0689  0.4943  1.4454
 8057SOL     OW26038   1.408   5.003   0.344  0.1666  0.1875 -0.0665
 8057SOL    HW126039   1.467   4.951   0.399 -1.1105 -1.3936 -0.0862
 8057SOL    HW226040   1.330   5.014   0.398 -0.6314 -0.3209 -1.0777
 8058SOL     OW26041   3.622   1.481   5.160 -0.0028 -0.0370  0.2340
 8058SOL    HW126042   3.668   1.538   5.222  0.8897  0.4451 -0.8322
 8058SOL    HW226043   3.606   1.537   5.084  1.2222 -1.2774 -0.9920
 8059SOL     OW26044   0.606   3.849   1.706  0.0994 -0.0856  0.9058
 8059SOL    HW126045   0.643   3.869   1.792 -0.1430  0.2483  0.9340
 8059SOL    HW226046   0.666   3.784   1.669  0.1429 -0.3185  1.3725
 8060SOL     OW26047   1.177   3.814   1.393 -0.0826  0.7378 -0.0115
 8060SOL    HW126048   1.234   3.754   1.441  1.2520  1.0581 -1.1131
 8060SOL    HW226049   1.238   3.876   1.351 -1.2887  1.4981 -0.6911
 8061SOL     OW26050   0.851   4.658   1.524  0.0763 -0.4089 -0.6144
 8061SOL    HW126051   0.785   4.670   1.592  1.2386 -0.5749  0.6125
 8061SOL    HW226052   0.883   4.746   1.506  0.7233 -0.4807  0.0986
 8062SOL     OW26053   0.797   6.703   6.322 -0.2396 -0.2677  0.1546
 8062SOL    HW126054   0.808   6.724   6.230 -0.5885 -2.5063 -0.4465
 8062SOL    HW226055   0.856   6.763   6.368  0.0823  0.7424 -1.5176
 8063SOL     OW26056   3.855   7.485   8.571 -0.5065 -0.3316  0.1211
 8063SOL    HW126057   3.767   7.461   8.539 -0.7580  2.4871 -1.6000
 8063SOL    HW226058   3.913   7.468   8.497  0.2258 -0.9102  0.8054
 8064SOL     OW26059   2.289   6.082   2.256  0.2838  0.3692  0.2352
 8064SOL    HW126060   2.288   5.987   2.254  1.2956  0.3556 -0.4032
 8064SOL    HW226061   2.308   6.108   2.165  0.1019  1.1680  0.4158
 8065SOL     OW26062   8.767   0.903   3.672 -0.4007  0.3139 -0.0732
 8065SOL    HW126063   8.834   0.846   3.710 -1.0259 -1.1228 -1.0240
 8065SOL    HW226064   8.690   0.888   3.726 -0.2235  1.2934  0.4756
 8066SOL     OW26065   0.438   0.787   5.868  0.2432  0.2060 -0.3761
 8066SOL    HW126066   0.393   0.706   5.890 -0.8042  0.6801 -0.6901
 8066SOL    HW226067   0.508   0.794   5.933  1.8204 -2.0713 -1.7044
 8067SOL     OW26068   6.519   4.725   1.933 -0.0226 -0.4738 -0.4576
 8067SOL    HW126069   6.454   4.766   1.989  1.0366  1.4289 -0.5234
 8067SOL    HW226070   6.555   4.653   1.985 -1.4974 -0.9545 -0.0811
 8068SOL     OW26071   4.963   8.624   7.807  0.0105  0.6630 -0.3912
 8068SOL    HW126072   5.022   8.696   7.831 -0.1251  0.9234 -0.8129
 8068SOL    HW226073   5.021   8.556   7.773  0.3673 -0.3672  2.1026
 8069SOL     OW26074   6.015   3.761   7.965  0.2002  0.1039 -0.3298
 8069SOL    HW126075   6.039   3.670   7.981 -1.0835  0.1402  2.4235
 8069SOL    HW226076   5.921   3.757   7.946  0.3330  0.8050 -1.2106
 8070SOL     OW26077   6.472   6.611   7.244  0.3351  0.1005  0.4875
 8070SOL    HW126078   6.383   6.578   7.232  0.2406  0.1185  1.1263
 8070SOL    HW226079   6.511   6.606   7.156 -0.4605  0.5968  0.0953
 8071SOL     OW26080   0.276   6.865   8.580  0.2679 -0.5912 -0.4500
 8071SOL    HW126081   0.334   6.940   8.586 -0.7298  0.2058 -0.6334
 8071SOL    HW226082   0.283   6.823   8.666  1.6863 -0.9646 -0.7181
 8072SOL     OW26083   0.077   7.613   8.307 -0.2956 -0.5565  0.2955
 8072SOL    HW126084   0.134   7.665   8.363  1.3301 -1.2196 -0.6816
 8072SOL    HW226085   0.005   7.673   8.284  0.7246  0.7584  0.4375
 8073SOL     OW26086   2.363   2.502   4.655 -0.2818  0.6654  0.3914
 8073SOL    HW126087   2.371   2.414   4.690  1.7884  1.5142  2.3620
 8073SOL    HW226088   2.440   2.512   4.597 -0.9141  0.9508 -0.4241
 8074SOL     OW26089   6.926   6.864   2.365  0.2192  0.1021 -0.6624
 8074SOL    HW126090   6.970   6.839   2.284  0.1751  1.9451 -1.3029
 8074SOL    HW226091   6.842   6.899   2.337 -0.3522 -0.4595  0.3018
 8075SOL     OW26092   7.180   8.503   2.800 -0.9137  0.4292  0.7511
 8075SOL    HW126093   7.222   8.589   2.804 -0.0787  0.0342  0.6722
 8075SOL    HW226094   7.193   8.466   2.888  0.5647 -0.4411  0.2142
 8076SOL     OW26095   0.891   2.040   5.725 -0.0167 -0.1025  0.4790
 8076SOL    HW126096   0.908   2.116   5.670  0.5454 -0.4625  0.1517
 8076SOL    HW226097   0.818   2.068   5.781 -0.1303  0.5089  0.0441
 8077SOL     OW26098   2.201   1.579   0.091 -0.1365  0.0044 -0.0045
 8077SOL    HW126099   2.257   1.638   0.041 -0.7669 -0.4833 -1.3233
 8077SOL    HW226100   2.223   1.491   0.059  0.6747 -0.4953  1.8145
 8078SOL     OW26101   2.050   1.094   6.361 -0.2357  0.6284  0.1414
 8078SOL    HW126102   2.023   1.184   6.344 -1.3048  0.0782 -1.4070
 8078SOL    HW226103   2.073   1.060   6.274  0.0134 -0.6132  0.6759
 8079SOL     OW26104   0.179   2.016   1.509 -0.0290  0.2632  0.4866
 8079SOL    HW126105   0.117   2.042   1.441  0.0931 -0.0447  0.2596
 8079SOL    HW226106   0.239   2.090   1.515  0.0634  0.2189  0.1389
 8080SOL     OW26107   5.783   6.763   4.884 -0.0593 -0.2285 -0.3978
 8080SOL    HW126108   5.782   6.687   4.942  1.6524 -0.1356 -0.1759
 8080SOL    HW226109   5.692   6.792   4.879 -0.3106 -0.4759  1.9329
 8081SOL     OW26110   5.400   3.682   4.208  0.1065  0.0907  0.6521
 8081SOL    HW126111   5.454   3.704   4.131 -0.1393  2.3055  1.0264
 8081SOL    HW226112   5.313   3.667   4.172  0.3852 -0.8036  0.3218
 8082SOL     OW26113   0.547   2.550   2.312  0.2119 -0.0705 -0.2475
 8082SOL    HW126114   0.580   2.470   2.271  0.3313  0.6728 -1.6215
 8082SOL    HW226115   0.497   2.518   2.388  1.2064 -1.3796 -0.1051
 8083SOL     OW26116   6.142   5.537   0.995 -0.1375 -0.1328 -0.1833
 8083SOL    HW126117   6.136   5.447   0.961 -2.4067 -0.1312  0.0728
 8083SOL    HW226118   6.172   5.526   1.085 -0.0277 -0.6065 -0.2716
 8084SOL     OW26119   5.957   2.367   0.097  0.2183  0.0276 -0.1921
 8084SOL    HW126120   6.009   2.395   0.172  0.2494 -0.7799  0.1050
 8084SOL    HW226121   5.932   2.277   0.118 -0.9511  0.2544 -0.5173
 8085SOL     OW26122   4.339   1.900   4.802  0.0149 -0.3467 -0.4920
 8085SOL    HW126123   4.313   1.827   4.859  1.2231 -0.0876  0.4338
 8085SOL    HW226124   4.279   1.894   4.727 -0.6225 -1.6208  0.0778
 8086SOL     OW26125   3.361   2.000   8.787  0.1322  0.5265 -0.0712
 8086SOL    HW126126   3.417   1.978   8.861 -0.6337  0.7211  0.5823
 8086SOL    HW226127   3.415   1.982   8.710  0.7605 -0.1925  0.5166
 8087SOL     OW26128   8.556   6.797   7.587  0.1733  0.1437  0.2827
 8087SOL    HW126129   8.633   6.801   7.530 -0.0978 -0.6559 -0.1613
 8087SOL    HW226130   8.482   6.802   7.527 -0.1331  1.2013  0.7312
 8088SOL     OW26131   6.762   7.224   5.179  0.0116  0.6223  0.2135
 8088SOL    HW126132   6.677   7.191   5.208  0.6604 -0.5347  0.8875
 8088SOL    HW226133   6.818   7.215   5.256  0.7601  1.3545 -0.2247
 8089SOL     OW26134   2.565   1.472   5.607  0.0726  0.0505  0.0768
 8089SOL    HW126135   2.560   1.536   5.536  0.9370 -1.7007 -1.6205
 8089SOL    HW226136   2.568   1.525   5.687 -0.3714  2.0818 -1.1974
 8090SOL     OW26137   8.550   4.913   8.333  0.2531  0.1539  0.2058
 8090SOL    HW126138   8.490   4.984   8.307 -1.4725 -0.9240  1.0227
 8090SOL    HW226139   8.578   4.874   8.251  1.5751  2.0143 -0.2819
 8091SOL     OW26140   1.950   8.939   6.178  0.2251  0.1317 -0.2358
 8091SOL    HW126141   1.994   8.890   6.248  1.3036  0.7211 -0.4806
 8091SOL    HW226142   1.864   8.960   6.215  0.3407 -0.5570  0.4684
 8092SOL     OW26143   7.155   6.713   2.453  0.1941  0.1801  0.3961
 8092SOL    HW126144   7.194   6.793   2.488 -0.7596  0.1085  1.6876
 8092SOL    HW226145   7.064   6.737   2.433 -0.6427 -0.9888  2.4918
 8093SOL     OW26146   5.450   0.260   5.562  0.1742 -0.5422  0.2333
 8093SOL    HW126147   5.501   0.335   5.532  1.2265 -1.9847 -1.8829
 8093SOL    HW226148   5.392   0.295   5.630  1.4045  1.9088  0.1223
 8094SOL     OW26149   4.152   1.982   0.688 -0.6196 -0.4688  0.2677
 8094SOL    HW126150   4.145   2.054   0.625 -1.1651 -2.3845 -1.9837
 8094SOL    HW226151   4.231   2.002   0.739  0.1751  0.8730 -1.3978
 8095SOL     OW26152   8.639   7.406   7.596 -0.0741  0.2099  0.1900
 8095SOL    HW126153   8.563   7.354   7.624 -0.0278 -0.3108 -0.6193
 8095SOL    HW226154   8.609   7.497   7.600 -0.9293 -0.0158 -0.6247
 8096SOL     OW26155   1.110   6.716   8.243  0.3568  0.0939 -0.1797
 8096SOL    HW126156   1.023   6.701   8.280 -0.0313  1.6703 -0.3655
 8096SOL    HW226157   1.099   6.700   8.149  0.3675 -0.1381 -0.1397
 8097SOL     OW26158   2.022   6.416   8.504  0.1227  0.0048 -0.1315
 8097SOL    HW126159   2.005   6.340   8.448 -0.5251  1.3517 -1.8577
 8097SOL    HW226160   2.118   6.422   8.508  0.2116  0.4934 -2.0400
 8098SOL     OW26161   2.490   3.624   5.506 -0.1352 -0.1090 -0.3688
 8098SOL    HW126162   2.408   3.576   5.521 -0.1474 -0.1402 -0.5325
 8098SOL    HW226163   2.517   3.597   5.418  0.0745 -0.1325 -0.2960
 8099SOL     OW26164   6.175   8.081   0.586 -0.1332 -0.7074  0.1208
 8099SOL    HW126165   6.219   8.002   0.615  3.0691  0.2749 -1.5511
 8099SOL    HW226166   6.200   8.148   0.649 -0.8681 -0.5190  0.2229
 8100SOL     OW26167   2.408   0.313   0.891 -0.4432  0.6121 -0.1401
 8100SOL    HW126168   2.494   0.272   0.901 -0.1240  0.8883 -1.4846
 8100SOL    HW226169   2.392   0.312   0.797 -0.9318  2.5079 -0.1292
 8101SOL     OW26170   2.276   7.796   0.660  0.5668 -0.0889  0.2536
 8101SOL    HW126171   2.195   7.827   0.701  0.3953 -0.9068  0.5665
 8101SOL    HW226172   2.334   7.872   0.660 -1.2122  1.4584 -2.8096
 8102SOL     OW26173   2.246   2.594   0.476 -0.1888  0.2441 -0.0450
 8102SOL    HW126174   2.329   2.642   0.471 -0.5865  0.8202 -1.3023
 8102SOL    HW226175   2.257   2.536   0.551  0.5755  1.7960  1.1039
 8103SOL     OW26176   2.190   6.543   3.499  0.2306  0.7801  0.0643
 8103SOL    HW126177   2.138   6.623   3.497 -1.7753 -0.4401 -1.5130
 8103SOL    HW226178   2.255   6.554   3.429 -0.2887  0.8976 -0.4064
 8104SOL     OW26179   7.418   8.355   2.200 -0.3605 -0.2699  0.0973
 8104SOL    HW126180   7.470   8.306   2.137 -0.5026  0.3636 -0.5169
 8104SOL    HW226181   7.366   8.416   2.147 -0.6353  0.1263  0.8045
 8105SOL     OW26182   7.608   2.228   4.827 -0.2392  0.0730 -0.3158
 8105SOL    HW126183   7.532   2.181   4.792 -0.0782 -0.7192  0.3658
 8105SOL    HW226184   7.641   2.278   4.753 -0.6203 -0.6352 -0.9825
 8106SOL     OW26185   7.357   6.926   6.118  0.3782  0.9518  0.1163
 8106SOL    HW126186   7.410   7.001   6.144 -0.9985  1.6967  0.9225
 8106SOL    HW226187   7.315   6.954   6.037 -1.5303  1.8497  1.3217
 8107SOL     OW26188   4.204   2.673   2.169  0.0991 -0.0255 -0.0015
 8107SOL    HW126189   4.143   2.603   2.148 -1.0082  1.3412 -1.5737
 8107SOL    HW226190   4.156   2.730   2.230  0.0774  0.5874 -0.5687
 8108SOL     OW26191   0.970   4.301   4.064  0.0089  0.3226  0.3128
 8108SOL    HW126192   0.985   4.347   3.982  2.7521 -2.1794 -0.7453
 8108SOL    HW226193   1.048   4.319   4.117 -0.5743 -0.1386  1.3675
 8109SOL     OW26194   0.299   6.590   8.098 -0.3249  0.4961  0.1651
 8109SOL    HW126195   0.285   6.613   8.189 -2.3259  0.1703 -0.0205
 8109SOL    HW226196   0.263   6.501   8.089  0.2454  0.3418 -0.8373
 8110SOL     OW26197   2.184   4.798   3.571  0.1235 -0.9701 -0.4835
 8110SOL    HW126198   2.092   4.821   3.588 -0.0518 -2.4584  0.7791
 8110SOL    HW226199   2.232   4.832   3.646  0.2472 -2.2423  0.0311
 8111SOL     OW26200   3.092   1.395   6.941 -0.4714  0.0021  0.9613
 8111SOL    HW126201   3.185   1.369   6.944 -0.2231  0.6556 -0.3465
 8111SOL    HW226202   3.045   1.313   6.927  0.0588 -0.1511 -0.0180
 8112SOL     OW26203   6.726   8.868   5.099  0.0618  0.0804 -0.4921
 8112SOL    HW126204   6.795   8.927   5.128 -0.2260  0.1174  0.1404
 8112SOL    HW226205   6.663   8.924   5.054  0.9277 -0.1023 -1.9956
 8113SOL     OW26206   2.729   2.714   4.559  0.1104 -0.1367  0.0235
 8113SOL    HW126207   2.693   2.637   4.514 -0.5900  0.3702 -0.2936
 8113SOL    HW226208   2.652   2.762   4.589  0.5513  0.1549  0.7264
 8114SOL     OW26209   4.644   3.235   0.840  0.8297  0.3359  0.7765
 8114SOL    HW126210   4.629   3.329   0.843  1.3224  0.4487 -0.0997
 8114SOL    HW226211   4.713   3.223   0.775 -0.8078 -0.8230 -0.8417
 8115SOL     OW26212   4.203   7.147   6.586  0.4388  0.0136 -0.0343
 8115SOL    HW126213   4.253   7.110   6.513 -0.8253 -1.6788 -0.0856
 8115SOL    HW226214   4.113   7.147   6.556  0.0347  0.2946  1.1305
 8116SOL     OW26215   5.834   7.966   6.129 -0.2551  0.4096 -0.3986
 8116SOL    HW126216   5.856   7.907   6.057  0.6264  0.4366 -0.1623
 8116SOL    HW226217   5.752   7.931   6.164  1.2200 -1.9122  1.0140
 8117SOL     OW26218   4.316   0.430   4.454  0.4124 -0.4228 -0.0981
 8117SOL    HW126219   4.291   0.419   4.546  0.5921  1.6604  0.2356
 8117SOL    HW226220   4.233   0.426   4.407  0.2501 -0.8711  0.2182
 8118SOL     OW26221   4.046   1.025   5.697 -0.2537 -0.3413 -0.1605
 8118SOL    HW126222   4.018   0.979   5.776  0.2814  0.1615  0.3355
 8118SOL    HW226223   4.063   1.115   5.726  0.7462 -0.3497 -0.6566
 8119SOL     OW26224   4.829   8.294   0.417 -0.4782  0.1823 -0.2879
 8119SOL    HW126225   4.822   8.382   0.379  0.8352  0.0045 -0.9886
 8119SOL    HW226226   4.750   8.285   0.471 -1.5290  1.0880 -1.6226
 8120SOL     OW26227   8.088   0.155   3.087  0.2707  0.4358 -0.1560
 8120SOL    HW126228   8.135   0.080   3.051 -0.2816  0.3233 -0.6741
 8120SOL    HW226229   8.010   0.163   3.032  0.9117  2.1421 -0.8764
 8121SOL     OW26230   5.854   1.352   2.190 -0.5706 -0.4487 -0.1914
 8121SOL    HW126231   5.929   1.298   2.214  0.4387  0.7070 -0.6150
 8121SOL    HW226232   5.787   1.290   2.160  0.9193 -1.4215 -1.6827
 8122SOL     OW26233   4.109   4.460   6.509  0.9011  0.1767  0.6395
 8122SOL    HW126234   4.076   4.490   6.593  0.5824 -0.6020  0.8039
 8122SOL    HW226235   4.161   4.382   6.530  1.7842  0.6368  0.2376
 8123SOL     OW26236   4.087   2.477   1.559 -0.4711 -0.2568  0.2354
 8123SOL    HW126237   4.004   2.502   1.598  0.4563  1.2183  1.3780
 8123SOL    HW226238   4.137   2.559   1.554  0.2601 -0.7649 -2.1104
 8124SOL     OW26239   3.075   3.014   0.572 -0.1853  0.5691  0.2550
 8124SOL    HW126240   3.079   2.920   0.591  0.1611  0.4836 -0.2300
 8124SOL    HW226241   2.982   3.031   0.556 -0.5635  0.7256  2.3825
 8125SOL     OW26242   5.290   2.157   8.061  0.0447 -0.0650  0.0275
 8125SOL    HW126243   5.345   2.143   8.138 -1.1575  0.2398  0.9831
 8125SOL    HW226244   5.211   2.199   8.096 -0.8837 -0.6722 -1.2456
 8126SOL     OW26245   3.264   1.226   8.597 -0.1587  0.0095  0.1528
 8126SOL    HW126246   3.280   1.174   8.517 -1.4743  0.5158 -0.4779
 8126SOL    HW226247   3.208   1.170   8.651 -0.3036  0.1582  0.1581
 8127SOL     OW26248   2.672   8.047   2.464 -0.6902 -0.1054  0.2668
 8127SOL    HW126249   2.586   8.042   2.506 -1.1942 -2.3922 -0.8899
 8127SOL    HW226250   2.732   8.004   2.524 -0.8948 -0.9284 -0.1026
 8128SOL     OW26251   5.367   8.509   8.835  0.4744 -0.3248 -0.0445
 8128SOL    HW126252   5.296   8.492   8.898 -1.2573 -0.9716 -2.0628
 8128SOL    HW226253   5.373   8.604   8.830  2.6079 -0.1390  3.0975
 8129SOL     OW26254   3.111   0.371   4.878 -0.1419 -0.0433 -0.5305
 8129SOL    HW126255   3.205   0.383   4.865 -0.3979  2.5695 -0.5857
 8129SOL    HW226256   3.099   0.375   4.973 -0.3756  1.9521 -0.6034
 8130SOL     OW26257   4.745   6.085   5.847  0.2690  0.3602  0.5669
 8130SOL    HW126258   4.826   6.039   5.826  0.9329  1.1315  1.3712
 8130SOL    HW226259   4.728   6.139   5.769  0.4642  0.1041  0.3440
 8131SOL     OW26260   3.329   1.008   4.249 -0.4117 -0.4789  0.6079
 8131SOL    HW126261   3.378   1.090   4.256 -0.6127 -0.1406 -1.4064
 8131SOL    HW226262   3.289   0.998   4.335  0.2989  1.0899  1.1808
 8132SOL     OW26263   3.765   0.949   8.142  0.0736  0.1668 -0.3036
 8132SOL    HW126264   3.835   0.908   8.192 -0.5491  0.0798  0.5135
 8132SOL    HW226265   3.700   0.881   8.130 -1.1093  0.9528  1.3291
 8133SOL     OW26266   5.114   5.716   3.155 -0.3565  0.2318 -0.0569
 8133SOL    HW126267   5.178   5.698   3.087 -0.6747 -1.5738  0.0864
 8133SOL    HW226268   5.166   5.739   3.233  0.0276  1.0606 -0.5413
 8134SOL     OW26269   6.436   8.264   3.681  0.3583 -0.0883  0.2929
 8134SOL    HW126270   6.514   8.295   3.727  0.9936  0.2470 -0.9408
 8134SOL    HW226271   6.368   8.326   3.704  1.0716  1.0033 -0.4416
 8135SOL     OW26272   5.247   7.957   1.768 -0.0672 -0.1824 -0.1793
 8135SOL    HW126273   5.287   7.952   1.681 -0.4202  0.8455 -0.4110
 8135SOL    HW226274   5.182   7.886   1.768 -0.5325  0.2261 -1.0021
 8136SOL     OW26275   6.610   1.475   7.138  0.2629  0.3010 -0.4253
 8136SOL    HW126276   6.683   1.487   7.199 -0.8172 -2.2283  1.5394
 8136SOL    HW226277   6.531   1.489   7.192 -0.7975  2.1645 -2.2975
 8137SOL     OW26278   6.861   7.394   8.276  0.2501 -0.1016  0.1545
 8137SOL    HW126279   6.833   7.469   8.224  1.5322  0.4763  0.2749
 8137SOL    HW226280   6.940   7.362   8.232  0.0129 -1.0664  0.3984
 8138SOL     OW26281   4.161   5.624   0.928 -0.3538 -0.0122  0.0053
 8138SOL    HW126282   4.206   5.550   0.888  0.8284  0.5581  0.2457
 8138SOL    HW226283   4.224   5.695   0.925 -0.8042  0.4742  1.4665
 8139SOL     OW26284   0.722   8.772   4.817 -0.5101  0.5467 -0.1812
 8139SOL    HW126285   0.671   8.846   4.850 -0.5711  0.4458 -0.0474
 8139SOL    HW226286   0.751   8.726   4.895 -0.8215  0.1969 -0.2665
 8140SOL     OW26287   5.054   0.920   0.111 -0.2861 -0.7876  0.0478
 8140SOL    HW126288   5.023   0.975   0.039  3.0824 -1.1688 -1.8862
 8140SOL    HW226289   5.131   0.967   0.145  0.3332 -2.4034  0.9769
 8141SOL     OW26290   2.248   1.906   6.491  0.2766 -0.1550 -0.1841
 8141SOL    HW126291   2.271   1.999   6.489 -0.1294 -0.0630 -0.6920
 8141SOL    HW226292   2.155   1.905   6.513  0.7040 -0.5256  1.7512
 8142SOL     OW26293   0.752   7.828   3.599 -0.0227  0.0857  0.5723
 8142SOL    HW126294   0.806   7.813   3.522 -1.4216  0.8181 -0.6145
 8142SOL    HW226295   0.795   7.899   3.646  0.9784 -0.5324  0.6164
 8143SOL     OW26296   7.512   4.161   7.353 -0.0570 -0.1692  0.1776
 8143SOL    HW126297   7.434   4.145   7.300 -0.2045 -0.8330  0.5878
 8143SOL    HW226298   7.565   4.081   7.343 -0.2669 -0.4666  1.3370
 8144SOL     OW26299   2.201   5.976   5.943  0.4912 -0.6608 -0.5411
 8144SOL    HW126300   2.196   5.975   6.039  2.6911 -1.5810 -0.3589
 8144SOL    HW226301   2.292   5.998   5.924 -0.5306  2.5369 -2.5466
 8145SOL     OW26302   2.742   2.267   5.733 -0.7591 -0.1042  1.0460
 8145SOL    HW126303   2.738   2.361   5.716  1.9265  0.1026  1.2076
 8145SOL    HW226304   2.726   2.227   5.647  0.6483  0.6057  0.4179
 8146SOL     OW26305   0.659   6.087   7.217  0.3809  0.2735  0.1561
 8146SOL    HW126306   0.660   6.098   7.122  1.5430 -0.1731  0.1068
 8146SOL    HW226307   0.747   6.057   7.239  0.5375  1.6506  1.5406
 8147SOL     OW26308   5.033   7.979   6.298  0.3488 -0.8233  0.6107
 8147SOL    HW126309   4.990   8.064   6.288 -1.7203 -1.8276  0.3240
 8147SOL    HW226310   5.082   7.968   6.216 -2.0591 -1.2767 -0.8740
 8148SOL     OW26311   2.546   3.889   7.515  0.2246  0.0205  0.3192
 8148SOL    HW126312   2.479   3.921   7.455 -0.1674 -0.5598  0.4325
 8148SOL    HW226313   2.532   3.794   7.518  2.0449 -0.3177 -0.8487
 8149SOL     OW26314   8.899   6.399   6.742  0.5000  0.1347  0.0886
 8149SOL    HW126315   8.813   6.362   6.721 -0.1293  1.1106  0.8484
 8149SOL    HW226316   8.938   6.418   6.657  0.4296 -1.2830 -0.2958
 8150SOL     OW26317   5.183   7.989   4.718 -0.2870 -0.3497  0.3984
 8150SOL    HW126318   5.167   8.048   4.644  2.5771  0.0164 -0.0491
 8150SOL    HW226319   5.159   7.903   4.685 -0.9290  0.0666 -0.2591
 8151SOL     OW26320   4.118   1.681   1.235 -0.4714  0.0296  0.1822
 8151SOL    HW126321   4.153   1.765   1.264 -1.1813  0.3630  0.0999
 8151SOL    HW226322   4.165   1.662   1.154 -1.4114  1.1390 -0.6658
 8152SOL     OW26323   2.548   1.933   2.992 -0.5227  0.2053 -0.2252
 8152SOL    HW126324   2.562   2.024   2.966  0.7971 -0.4627 -2.0860
 8152SOL    HW226325   2.478   1.902   2.936 -1.6874  0.3183  1.1169
 8153SOL     OW26326   7.561   6.504   5.324 -0.1581 -0.2503  0.3461
 8153SOL    HW126327   7.647   6.545   5.326 -1.0370  1.6877  1.7439
 8153SOL    HW226328   7.570   6.432   5.262  2.4336 -0.0706  0.4059
 8154SOL     OW26329   1.962   7.498   5.194  0.0192  0.2963  0.6930
 8154SOL    HW126330   1.997   7.585   5.213  1.4855 -0.3135  0.9322
 8154SOL    HW226331   1.897   7.483   5.263 -1.7805  1.9899 -0.5302
 8155SOL     OW26332   0.544   5.720   1.696 -0.1486 -0.7695 -0.1140
 8155SOL    HW126333   0.555   5.640   1.644  1.6344 -0.4801 -0.2628
 8155SOL    HW226334   0.592   5.702   1.777 -0.5472 -0.1942  0.2527
 8156SOL     OW26335   3.122   4.039   3.428 -0.0884  0.4202  0.2475
 8156SOL    HW126336   3.089   4.068   3.343  0.0154 -0.7693 -0.2122
 8156SOL    HW226337   3.097   3.947   3.434 -0.9953  0.7336  1.9551
 8157SOL     OW26338   7.377   4.810   2.432 -0.1340  0.2801 -0.2674
 8157SOL    HW126339   7.386   4.901   2.460 -0.6637  0.5463 -0.9097
 8157SOL    HW226340   7.282   4.796   2.430 -0.0363 -0.6021  0.7780
 8158SOL     OW26341   0.412   2.970   6.717 -0.6610 -0.3064 -0.3355
 8158SOL    HW126342   0.391   3.017   6.798  2.6732  0.1416  0.4170
 8158SOL    HW226343   0.438   3.039   6.656  0.3608 -0.8755 -0.5588
 8159SOL     OW26344   2.588   2.722   3.746 -0.6133 -0.3494  0.2682
 8159SOL    HW126345   2.682   2.714   3.729 -0.4621  2.5123 -0.6828
 8159SOL    HW226346   2.550   2.646   3.702  1.2437 -1.8425  1.0932
 8160SOL     OW26347   0.528   5.140   8.756  0.0343 -0.2428 -0.7445
 8160SOL    HW126348   0.605   5.189   8.726 -0.3856  0.2886 -0.9463
 8160SOL    HW226349   0.548   5.049   8.733  1.1652 -0.3063  0.3394
 8161SOL     OW26350   7.254   6.493   2.297  0.0372  0.2744 -0.2533
 8161SOL    HW126351   7.212   6.511   2.213  1.6400  1.7404 -0.7898
 8161SOL    HW226352   7.215   6.556   2.358 -0.3187 -0.0453 -0.1438
 8162SOL     OW26353   1.027   3.886   0.318 -0.2192 -0.1721  0.5305
 8162SOL    HW126354   1.030   3.795   0.287  1.6462 -0.6753  2.0137
 8162SOL    HW226355   0.956   3.887   0.382 -1.2606 -0.1690 -0.5819
 8163SOL     OW26356   7.170   5.056   8.554 -0.1583 -0.0705 -0.0353
 8163SOL    HW126357   7.086   5.028   8.519 -0.9900 -0.0360  1.8423
 8163SOL    HW226358   7.150   5.093   8.640  1.7302  0.2898  0.3080
 8164SOL     OW26359   7.187   5.573   0.718  0.3090  0.1392 -0.7558
 8164SOL    HW126360   7.101   5.613   0.707  0.2949  0.3957  0.2633
 8164SOL    HW226361   7.176   5.507   0.786  0.9618  0.3078 -0.4748
 8165SOL     OW26362   7.637   1.485   5.512  0.1102 -0.6454  0.1139
 8165SOL    HW126363   7.636   1.389   5.513 -0.3914 -0.6407  0.8562
 8165SOL    HW226364   7.649   1.508   5.420  4.2385 -1.4333  0.2327
 8166SOL     OW26365   3.472   1.914   0.854  0.2093  0.2208  0.1950
 8166SOL    HW126366   3.485   1.868   0.771  2.1349  0.4231  0.3412
 8166SOL    HW226367   3.430   1.996   0.829 -2.5598 -1.1600 -0.1485
 8167SOL     OW26368   6.062   8.428   6.035  0.0504 -0.1286 -0.3850
 8167SOL    HW126369   5.981   8.410   5.988 -0.1605  1.2951 -0.5850
 8167SOL    HW226370   6.062   8.522   6.051  1.1774 -0.2430  0.5228
 8168SOL     OW26371   5.981   2.389   1.661  0.0925  0.4109  0.0544
 8168SOL    HW126372   5.924   2.416   1.589 -1.2415 -0.9477  0.5345
 8168SOL    HW226373   5.956   2.298   1.678  0.2700  0.7213  2.3058
 8169SOL     OW26374   7.131   0.750   1.831 -0.4215 -0.4523 -0.5407
 8169SOL    HW126375   7.188   0.731   1.906 -0.5933 -0.3900 -0.3912
 8169SOL    HW226376   7.182   0.725   1.754  0.4541  1.1638 -0.5255
 8170SOL     OW26377   0.916   8.934   0.567 -0.0556 -0.0180 -0.1163
 8170SOL    HW126378   0.932   8.844   0.538  1.3104 -0.7775  2.6418
 8170SOL    HW226379   0.934   8.987   0.490  0.3614 -2.0306 -1.4893
 8171SOL     OW26380   5.724   7.063   8.064  0.4688 -0.1479  0.3591
 8171SOL    HW126381   5.756   7.041   7.976  0.3383  0.4200  0.1667
 8171SOL    HW226382   5.791   7.121   8.100 -1.0807  2.4767 -0.7012
 8172SOL     OW26383   0.040   1.503   7.465 -0.2163 -0.2266  0.4860
 8172SOL    HW126384   0.133   1.486   7.448 -0.2758  0.3319 -0.4386
 8172SOL    HW226385   0.013   1.432   7.523 -0.1416 -2.6022 -2.1688
 8173SOL     OW26386   7.948   7.138   0.574 -0.0483 -0.4746 -0.0601
 8173SOL    HW126387   7.891   7.210   0.545  0.9687  0.2754 -0.2669
 8173SOL    HW226388   7.987   7.104   0.493 -0.9278 -1.6337 -0.0187
 8174SOL     OW26389   3.353   6.632   0.954 -0.1819 -0.0532 -0.6363
 8174SOL    HW126390   3.297   6.569   0.909  1.1967 -1.4271 -0.5118
 8174SOL    HW226391   3.423   6.652   0.892  1.5122 -1.6523  0.6292
 8175SOL     OW26392   5.952   1.948   7.750  0.1239 -0.2976 -0.1960
 8175SOL    HW126393   5.932   1.865   7.707  1.3655  0.1246 -1.6363
 8175SOL    HW226394   6.043   1.940   7.776  0.2395  0.6028 -0.3147
 8176SOL     OW26395   8.184   2.274   3.067  0.0485 -0.7405  0.0079
 8176SOL    HW126396   8.116   2.225   3.020  0.5017 -1.0795 -0.3028
 8176SOL    HW226397   8.203   2.220   3.144 -1.5435  0.3797  1.2707
 8177SOL     OW26398   3.663   8.678   5.201 -0.1125  0.2764  0.1020
 8177SOL    HW126399   3.584   8.710   5.245  0.0004  0.1056  0.4299
 8177SOL    HW226400   3.698   8.755   5.157 -0.9812  0.1539 -0.8365
 8178SOL     OW26401   4.483   4.766   5.988  0.1176  0.1878  0.3095
 8178SOL    HW126402   4.390   4.778   5.967  0.2989  0.4088 -0.4050
 8178SOL    HW226403   4.507   4.684   5.944 -0.1101 -0.6955  1.7770
 8179SOL     OW26404   2.264   5.109   7.163 -0.1277  0.1031  0.5129
 8179SOL    HW126405   2.358   5.098   7.178 -0.2565  0.5662  1.7219
 8179SOL    HW226406   2.235   5.170   7.231 -1.5546 -1.0496  0.9824
 8180SOL     OW26407   8.055   2.253   0.133 -0.8242  0.6274  0.2125
 8180SOL    HW126408   8.013   2.168   0.149  1.5888 -1.1490 -2.0576
 8180SOL    HW226409   8.132   2.252   0.190  0.1590  0.4846 -1.0948
 8181SOL     OW26410   6.753   2.392   8.613 -0.2090 -0.1127 -0.1875
 8181SOL    HW126411   6.659   2.380   8.629 -0.2189  0.4705  0.1866
 8181SOL    HW226412   6.763   2.485   8.595  0.1830 -0.3144 -1.0453
 8182SOL     OW26413   1.133   7.873   6.028 -0.6730 -0.1674 -0.1112
 8182SOL    HW126414   1.079   7.795   6.043  1.2090 -1.6993 -0.8092
 8182SOL    HW226415   1.171   7.859   5.941 -0.0571  1.4112 -0.1274
 8183SOL     OW26416   0.764   7.338   4.986  0.0936 -0.1449 -0.6609
 8183SOL    HW126417   0.687   7.282   4.972  0.0529 -0.6381  1.3084
 8183SOL    HW226418   0.787   7.369   4.898 -1.0490 -1.7143 -1.5643
 8184SOL     OW26419   8.871   5.463   6.368  0.4240  0.1182  0.2381
 8184SOL    HW126420   8.795   5.520   6.375 -0.4728 -1.1345  1.3363
 8184SOL    HW226421   8.835   5.377   6.345  1.4549 -0.5755  1.0658
 8185SOL     OW26422   2.199   1.826   6.216 -0.5517 -0.1168  0.1053
 8185SOL    HW126423   2.248   1.880   6.278 -0.9771 -0.0507  0.3857
 8185SOL    HW226424   2.262   1.805   6.147 -0.3642  0.6650  0.0339
 8186SOL     OW26425   8.472   5.328   6.766  0.0111  0.4070 -0.4772
 8186SOL    HW126426   8.558   5.333   6.808 -0.6441  0.8669  0.8805
 8186SOL    HW226427   8.424   5.404   6.800 -1.5359 -0.8298  0.2704
 8187SOL     OW26428   3.570   0.176   4.396  0.2085 -0.7118  0.1679
 8187SOL    HW126429   3.532   0.156   4.481 -2.0554  0.4047 -0.5132
 8187SOL    HW226430   3.573   0.271   4.392  0.9029 -0.7551 -0.7542
 8188SOL     OW26431   0.178   1.088   0.909  0.7707 -0.1324 -0.3263
 8188SOL    HW126432   0.192   1.179   0.936  1.7287  0.2110 -1.8321
 8188SOL    HW226433   0.245   1.038   0.956  1.0131  0.1234 -0.3985
 8189SOL     OW26434   3.238   0.900   6.196 -0.1451  0.5132 -0.2551
 8189SOL    HW126435   3.228   0.816   6.240 -1.2972  1.1808  0.7989
 8189SOL    HW226436   3.156   0.912   6.148 -0.4845  1.5537  0.5468
 8190SOL     OW26437   3.934   7.694   1.177 -0.4002  0.0540  0.7655
 8190SOL    HW126438   3.900   7.733   1.257 -0.0438  0.2343  0.8281
 8190SOL    HW226439   3.891   7.609   1.172 -3.2766  1.4108 -0.7158
 8191SOL     OW26440   1.352   6.417   4.683  0.9032  0.2153 -0.2724
 8191SOL    HW126441   1.441   6.454   4.690  1.7628 -1.6156 -0.9834
 8191SOL    HW226442   1.305   6.481   4.630  1.6228  1.4846  0.5444
 8192SOL     OW26443   4.444   8.059   4.484 -0.1955  0.2964  0.1487
 8192SOL    HW126444   4.469   8.116   4.411  0.2772 -0.3026 -0.1653
 8192SOL    HW226445   4.420   7.976   4.443  1.7451 -0.6336  0.7478
 8193SOL     OW26446   6.594   1.038   4.523  0.3634 -0.4279 -0.6450
 8193SOL    HW126447   6.657   1.099   4.484  0.6175 -0.0154  0.3739
 8193SOL    HW226448   6.608   1.047   4.617 -1.5146 -0.0340 -0.3768
 8194SOL     OW26449   5.728   8.493   8.324  0.1084 -0.3290 -0.1134
 8194SOL    HW126450   5.725   8.576   8.277 -1.4221 -0.0098  0.4940
 8194SOL    HW226451   5.669   8.436   8.274  0.7295 -0.8868 -0.2159
 8195SOL     OW26452   6.935   5.279   4.157  0.0587  0.3105 -0.1065
 8195SOL    HW126453   6.857   5.331   4.137  1.2734  2.2308 -0.1146
 8195SOL    HW226454   6.988   5.285   4.077  0.4463 -0.5546  0.0799
 8196SOL     OW26455   5.883   5.212   1.604  0.2848  0.0901  0.2490
 8196SOL    HW126456   5.831   5.183   1.529 -0.8339  0.1249  0.9941
 8196SOL    HW226457   5.898   5.133   1.655 -0.2648  0.3079  0.7648
 8197SOL     OW26458   5.263   3.986   7.356  0.2118 -0.4490 -0.3628
 8197SOL    HW126459   5.271   3.993   7.261 -0.2620 -0.9893 -0.4475
 8197SOL    HW226460   5.202   4.056   7.380 -0.0525 -0.6231 -0.5197
 8198SOL     OW26461   2.153   5.572   7.376 -0.2178 -0.2981 -0.6247
 8198SOL    HW126462   2.232   5.625   7.379 -1.6311  1.8710  0.7253
 8198SOL    HW226463   2.103   5.598   7.453 -1.9222 -2.1579 -1.0070
 8199SOL     OW26464   4.232   6.139   7.222  0.1165  0.2275  0.2912
 8199SOL    HW126465   4.196   6.174   7.303  0.0990 -0.0362  0.3994
 8199SOL    HW226466   4.230   6.044   7.234  1.0982  0.2117  0.4012
 8200SOL     OW26467   8.197   0.022   8.402 -1.1616 -0.3477 -0.1733
 8200SOL    HW126468   8.166   0.099   8.354  3.8024  2.5657  0.5666
 8200SOL    HW226469   8.242  -0.030   8.336  0.1784  0.3483  0.1514
 8201SOL     OW26470   3.886   7.289   1.961  0.0483  0.0225  0.0020
 8201SOL    HW126471   3.874   7.384   1.962  1.3426  0.2112 -0.6943
 8201SOL    HW226472   3.820   7.258   1.899 -0.8319  0.3767  0.7317
 8202SOL     OW26473   6.589   7.508   3.120 -0.3820 -0.0800  0.5076
 8202SOL    HW126474   6.601   7.576   3.186  2.7410 -1.3748  1.4580
 8202SOL    HW226475   6.548   7.435   3.168 -1.1458  0.1135  0.1687
 8203SOL     OW26476   2.515   2.192   0.753 -0.5668  0.6059  0.5233
 8203SOL    HW126477   2.489   2.107   0.786  2.8184 -0.8841 -0.2460
 8203SOL    HW226478   2.532   2.177   0.660  1.2339  1.7777  0.6174
 8204SOL     OW26479   0.018   5.208   5.471  0.1494 -0.1562 -0.1289
 8204SOL    HW126480  -0.073   5.226   5.449  0.2180 -1.7842 -2.0665
 8204SOL    HW226481   0.067   5.285   5.441 -0.4601  0.2053 -0.1964
 8205SOL     OW26482   1.977   7.627   2.117 -0.3334 -0.5979  0.5660
 8205SOL    HW126483   1.932   7.665   2.041  3.6782 -0.3223 -1.9549
 8205SOL    HW226484   1.995   7.703   2.174  1.5022  0.2732 -1.0539
 8206SOL     OW26485   1.358   1.616   5.735  0.4351  0.3299  0.0260
 8206SOL    HW126486   1.400   1.544   5.781  1.2323 -0.5353 -1.9514
 8206SOL    HW226487   1.321   1.670   5.805  0.8580 -1.3253  1.6217
 8207SOL     OW26488   2.272   5.278   1.038 -0.5122 -0.7398  0.8958
 8207SOL    HW126489   2.212   5.324   1.097 -1.7031  0.2107 -0.9624
 8207SOL    HW226490   2.352   5.330   1.042 -0.8511 -0.2130  1.0660
 8208SOL     OW26491   5.770   5.475   7.996 -0.5826 -0.1634 -0.2094
 8208SOL    HW126492   5.762   5.380   7.999  1.7756 -0.3819  0.9621
 8208SOL    HW226493   5.738   5.504   8.081  0.0382 -0.0297 -0.0231
 8209SOL     OW26494   8.408   2.534   5.512  0.0511 -0.0554 -0.2576
 8209SOL    HW126495   8.468   2.588   5.563  0.8560 -0.8232 -0.3514
 8209SOL    HW226496   8.326   2.583   5.510  0.1813  0.2680  1.2635
 8210SOL     OW26497   4.200   7.038   1.961  0.7951 -0.4142 -0.4504
 8210SOL    HW126498   4.292   7.015   1.950  0.5933 -0.1776 -3.5240
 8210SOL    HW226499   4.201   7.127   1.997  1.8453  0.0014 -1.4388
 8211SOL     OW26500   3.901   0.263   4.478 -0.4025  0.1841 -0.3611
 8211SOL    HW126501   3.922   0.261   4.572  0.8018  0.6375 -0.6088
 8211SOL    HW226502   3.925   0.176   4.446 -0.2521  0.2267 -0.3645
 8212SOL     OW26503   5.355   6.643   5.487 -0.0167  0.8251 -0.0651
 8212SOL    HW126504   5.365   6.713   5.423 -1.2389 -0.2179 -1.4539
 8212SOL    HW226505   5.275   6.598   5.462  1.3480 -1.8585 -0.0286
 8213SOL     OW26506   5.023   0.911   7.887 -0.4997  0.1928 -0.6016
 8213SOL    HW126507   5.001   1.004   7.895  0.1569  0.2616  0.6326
 8213SOL    HW226508   4.960   0.877   7.823 -1.6567  1.1861 -0.0415
 8214SOL     OW26509   6.303   0.886   4.635 -0.1610  0.0691 -0.3296
 8214SOL    HW126510   6.370   0.820   4.651 -1.5440 -0.9528  1.6623
 8214SOL    HW226511   6.311   0.948   4.708 -0.6962  0.5065 -0.6294
 8215SOL     OW26512   2.004   0.884   8.434 -0.2471 -0.0935 -0.2690
 8215SOL    HW126513   1.933   0.941   8.465 -1.0320 -1.5367  0.7280
 8215SOL    HW226514   2.030   0.834   8.511 -0.5111 -1.9971 -1.3349
 8216SOL     OW26515   0.096   3.969   6.620  0.0721  0.4601  0.1163
 8216SOL    HW126516   0.085   3.978   6.525  0.0613 -0.2219  0.0480
 8216SOL    HW226517   0.016   4.007   6.656 -0.3404 -0.0925 -0.1890
 8217SOL     OW26518   7.790   5.995   6.496 -0.2154 -0.1219  0.1893
 8217SOL    HW126519   7.701   6.021   6.471  0.6396  0.2120 -2.8594
 8217SOL    HW226520   7.783   5.977   6.590 -3.3236  0.5566  0.2236
 8218SOL     OW26521   8.185   2.670   7.015 -0.0997 -0.0127  0.1719
 8218SOL    HW126522   8.130   2.610   6.964 -1.2509  3.1562 -2.7093
 8218SOL    HW226523   8.274   2.638   7.002 -0.6689 -1.1499 -1.1490
 8219SOL     OW26524   2.923   6.463   6.098 -0.2274 -0.3478 -0.0568
 8219SOL    HW126525   2.908   6.558   6.105  0.4433 -0.2118 -0.3313
 8219SOL    HW226526   2.964   6.452   6.012 -2.0676 -1.1311 -0.8948
 8220SOL     OW26527   2.040   2.863   8.523  0.1107 -0.0636  0.3247
 8220SOL    HW126528   2.083   2.862   8.438  0.4945 -1.0685  0.5253
 8220SOL    HW226529   1.950   2.838   8.505 -0.4296  1.9780 -0.0868
 8221SOL     OW26530   2.601   7.378   8.599  0.0992  0.3482  0.0405
 8221SOL    HW126531   2.657   7.316   8.551  0.4757 -1.1141  2.2124
 8221SOL    HW226532   2.618   7.463   8.558  0.8243 -0.6950 -1.9804
 8222SOL     OW26533   6.015   4.023   8.024  0.1195 -0.2880  0.9776
 8222SOL    HW126534   5.965   4.025   8.106  0.0649  1.5311  0.9429
 8222SOL    HW226535   6.033   3.931   8.010 -1.7138 -0.8522  1.9258
 8223SOL     OW26536   6.696   0.746   7.395 -0.6710  0.1026 -0.1115
 8223SOL    HW126537   6.777   0.776   7.354  0.1034  1.0935  2.0199
 8223SOL    HW226538   6.713   0.655   7.419  0.1831  0.5608  1.1211
 8224SOL     OW26539   3.921   5.540   4.964 -0.1365  0.6453  0.3905
 8224SOL    HW126540   3.834   5.580   4.967 -0.0273  1.3895 -2.6792
 8224SOL    HW226541   3.905   5.450   4.935  0.0857  0.6481  0.2562
 8225SOL     OW26542   7.005   1.339   5.620  0.5454  0.2095 -0.2839
 8225SOL    HW126543   6.977   1.275   5.555  0.8549 -1.5267  1.1786
 8225SOL    HW226544   7.067   1.395   5.574  1.1161 -1.2462 -1.3828
 8226SOL     OW26545   6.431   3.967   7.991  0.0642 -0.7327  0.2772
 8226SOL    HW126546   6.383   3.900   8.040 -0.3392 -1.2076 -0.7348
 8226SOL    HW226547   6.488   4.008   8.056 -0.0467 -1.7192  1.0221
 8227SOL     OW26548   5.642   7.096   2.050  0.6136 -0.3291 -0.1582
 8227SOL    HW126549   5.639   7.054   2.136  2.5435 -0.0413  0.1028
 8227SOL    HW226550   5.557   7.140   2.041 -0.3805 -1.9747  0.7273
 8228SOL     OW26551   8.499   5.822   2.902 -0.5391  0.2779 -0.5677
 8228SOL    HW126552   8.561   5.845   2.833  1.0397 -0.9192  0.3721
 8228SOL    HW226553   8.554   5.808   2.980 -1.9725 -0.9689  0.2739
 8229SOL     OW26554   3.519   7.401   8.745  0.1466 -0.4384  0.0024
 8229SOL    HW126555   3.519   7.496   8.750 -1.0629 -0.4502  0.9434
 8229SOL    HW226556   3.505   7.381   8.653  0.6403  0.2868 -0.2320
 8230SOL     OW26557   7.531   8.276   2.436 -0.1054 -0.4603 -0.1080
 8230SOL    HW126558   7.622   8.253   2.417  0.2600  0.8892 -0.0557
 8230SOL    HW226559   7.496   8.304   2.351 -0.5957 -1.3516 -0.2069
 8231SOL     OW26560   1.054   0.966   6.278  0.1707 -0.1523  0.5788
 8231SOL    HW126561   1.145   0.942   6.293 -0.2928 -1.1652  2.0094
 8231SOL    HW226562   1.015   0.968   6.366 -1.1598  0.3711  0.0050
 8232SOL     OW26563   5.789   0.698   5.730  0.3342  0.4551  0.4857
 8232SOL    HW126564   5.776   0.745   5.813  0.1140 -0.0331  0.7331
 8232SOL    HW226565   5.876   0.659   5.738  0.5775  0.9418  0.2195
 8233SOL     OW26566   8.442   5.537   8.496 -0.2448  0.5840  0.1300
 8233SOL    HW126567   8.425   5.470   8.430  1.0715  2.2479 -2.0641
 8233SOL    HW226568   8.400   5.616   8.460  3.4581  2.4330 -0.6968
 8234SOL     OW26569   0.173   3.762   5.635  0.4789  0.0562 -0.4722
 8234SOL    HW126570   0.118   3.686   5.615 -0.9925  0.8030  0.5747
 8234SOL    HW226571   0.251   3.724   5.676 -0.3821 -0.8946  0.3532
 8235SOL     OW26572   7.464   1.614   3.146 -0.0417  0.0718 -0.4778
 8235SOL    HW126573   7.557   1.611   3.170 -0.6585 -1.8443  2.0776
 8235SOL    HW226574   7.443   1.523   3.122 -1.4001  0.3569 -0.4057
 8236SOL     OW26575   3.819   2.769   1.010 -0.0145  0.1682  0.0729
 8236SOL    HW126576   3.800   2.680   1.040  2.7481 -0.5938 -0.1497
 8236SOL    HW226577   3.756   2.785   0.940 -1.0653 -1.2947  0.6399
 8237SOL     OW26578   5.067   3.186   5.957  0.3029  0.1008  0.0619
 8237SOL    HW126579   5.084   3.138   6.039  0.4710  0.6349  0.3446
 8237SOL    HW226580   4.979   3.221   5.968  0.7921  1.2209  0.5485
 8238SOL     OW26581   2.924   5.107   1.348  0.1481 -0.6094  0.3160
 8238SOL    HW126582   2.899   5.015   1.354 -1.0701 -0.5799 -2.7171
 8238SOL    HW226583   3.010   5.107   1.306 -1.5347 -0.4185 -3.4954
 8239SOL     OW26584   7.348   5.672   0.194 -0.0683  0.3261  0.4268
 8239SOL    HW126585   7.314   5.689   0.282 -1.8903  1.3278 -0.4043
 8239SOL    HW226586   7.277   5.699   0.135  0.9069 -0.7590 -1.3508
 8240SOL     OW26587   4.165   5.606   5.364  0.4173 -0.2496 -0.1370
 8240SOL    HW126588   4.087   5.660   5.350  0.5183 -0.2065 -0.5590
 8240SOL    HW226589   4.164   5.544   5.291  0.7119 -0.3306 -0.0743
 8241SOL     OW26590   1.610   4.647   3.836 -0.3641  0.4343  0.5824
 8241SOL    HW126591   1.680   4.608   3.889 -0.2372 -1.0627 -0.6332
 8241SOL    HW226592   1.567   4.573   3.794 -1.0601  1.5098 -0.6891
 8242SOL     OW26593   6.823   1.174   1.624  0.1481  0.2500 -0.1802
 8242SOL    HW126594   6.797   1.252   1.672  0.4878  0.9448 -1.0876
 8242SOL    HW226595   6.915   1.189   1.601  1.2895 -1.9023  2.4655
 8243SOL     OW26596   2.105   7.707   8.114  0.4307 -0.3735  0.4446
 8243SOL    HW126597   2.142   7.794   8.105 -1.1573  0.1918 -1.2936
 8243SOL    HW226598   2.080   7.700   8.206  1.0193  0.7931  0.7076
 8244SOL     OW26599   3.664   2.087   2.202  0.5791 -0.0381  0.2680
 8244SOL    HW126600   3.623   2.025   2.141 -1.0375 -0.5226  1.7610
 8244SOL    HW226601   3.744   2.043   2.230 -0.3589 -1.3297  1.0176
 8245SOL     OW26602   7.080   4.535   7.704  0.4084 -0.7423 -0.4756
 8245SOL    HW126603   6.986   4.550   7.715  0.4910 -1.1978  1.0450
 8245SOL    HW226604   7.089   4.440   7.699  0.5918 -0.6616 -3.0481
 8246SOL     OW26605   8.405   3.792   8.997 -0.0231  0.0531 -0.6194
 8246SOL    HW126606   8.415   3.760   9.087 -0.4924  0.0280 -0.5734
 8246SOL    HW226607   8.495   3.795   8.963  0.3409  1.5733  0.3700
 8247SOL     OW26608   2.681   6.211   2.369  0.1611 -0.4872  0.0194
 8247SOL    HW126609   2.622   6.187   2.440 -0.6206 -0.6740 -0.6694
 8247SOL    HW226610   2.768   6.206   2.407 -0.2831  0.2260  1.1905
 8248SOL     OW26611   2.252   5.958   8.715  0.0052  0.5752 -0.1091
 8248SOL    HW126612   2.254   5.874   8.669  1.0577 -0.2171  1.3076
 8248SOL    HW226613   2.166   5.960   8.757  0.2524 -0.1506  0.4480
 8249SOL     OW26614   7.021   2.200   2.667  0.0997  0.5071  0.4684
 8249SOL    HW126615   6.999   2.165   2.581 -0.4652  1.1214  0.3548
 8249SOL    HW226616   6.951   2.169   2.724  1.0456 -0.8178  0.9616
 8250SOL     OW26617   7.554   6.182   1.169  0.2272 -0.2946  0.0015
 8250SOL    HW126618   7.649   6.170   1.174  0.3271  0.3160 -0.3192
 8250SOL    HW226619   7.537   6.204   1.078 -0.1787 -0.0288  0.1386
 8251SOL     OW26620   0.794   0.334   8.495 -0.1136  0.3223 -0.4449
 8251SOL    HW126621   0.791   0.315   8.402  0.5947  0.1404 -0.4365
 8251SOL    HW226622   0.750   0.260   8.537  1.1958 -0.5226 -0.5164
 8252SOL     OW26623   1.381   6.555   0.960  0.2348 -0.4459  0.1859
 8252SOL    HW126624   1.406   6.600   1.040  2.6120 -1.8163  0.2823
 8252SOL    HW226625   1.335   6.476   0.990  0.1017 -0.3786  0.1594
 8253SOL     OW26626   4.765   0.258   8.940 -0.2360  0.3699 -0.0894
 8253SOL    HW126627   4.788   0.239   9.031 -0.5013  0.8458  0.0786
 8253SOL    HW226628   4.832   0.213   8.889 -1.4476 -1.9798  0.2463
 8254SOL     OW26629   0.194   5.373   1.149  0.2893 -0.3480 -0.1156
 8254SOL    HW126630   0.253   5.299   1.132 -1.1007 -1.3430 -0.7802
 8254SOL    HW226631   0.235   5.420   1.222  1.5791 -1.3444 -0.1568
 8255SOL     OW26632   4.331   4.926   3.235 -0.7387 -0.2280  0.1468
 8255SOL    HW126633   4.379   5.009   3.229 -0.5405 -0.2952  0.7276
 8255SOL    HW226634   4.300   4.923   3.326  1.0755 -1.7580  0.7750
 8256SOL     OW26635   4.277   7.206   5.258  0.2975  0.0171  0.1618
 8256SOL    HW126636   4.316   7.248   5.335  0.9343 -0.6370  0.2098
 8256SOL    HW226637   4.258   7.117   5.287 -0.7284  0.1614 -0.0355
 8257SOL     OW26638   7.160   3.037   5.292 -0.1946  0.6748  0.2074
 8257SOL    HW126639   7.155   2.993   5.376  0.0772  2.3671  1.1488
 8257SOL    HW226640   7.100   2.987   5.235  0.7089 -1.3647  0.9436
 8258SOL     OW26641   7.824   6.104   1.152 -0.3391  0.1028 -0.4810
 8258SOL    HW126642   7.817   6.049   1.074  0.7754  0.4400 -0.8298
 8258SOL    HW226643   7.853   6.044   1.221 -0.8252 -0.0878 -0.4330
 8259SOL     OW26644   6.151   4.149   4.453 -0.0058 -0.1362 -0.1622
 8259SOL    HW126645   6.236   4.184   4.480  0.0118  1.3088 -1.8891
 8259SOL    HW226646   6.109   4.124   4.535  1.7835 -0.1895  0.7915
 8260SOL     OW26647   4.896   7.879   8.878 -0.2097 -0.2718 -0.9632
 8260SOL    HW126648   4.990   7.889   8.893 -0.6715  1.3554  1.3736
 8260SOL    HW226649   4.877   7.789   8.906  0.3510  0.0724  0.6477
 8261SOL     OW26650   4.978   0.574   8.883 -0.0558 -0.4397  0.6286
 8261SOL    HW126651   4.943   0.485   8.883  3.1585 -1.8265  0.6389
 8261SOL    HW226652   5.073   0.563   8.876  0.6884  2.9049  2.9732
 8262SOL     OW26653   1.746   8.681   5.509 -0.3754 -0.2851 -0.2573
 8262SOL    HW126654   1.715   8.751   5.451 -1.4150  0.4752  1.1252
 8262SOL    HW226655   1.690   8.606   5.488 -2.1805  0.5993  1.0962
 8263SOL     OW26656   5.073   2.034   3.245  0.0130 -0.0589  0.0334
 8263SOL    HW126657   5.033   1.965   3.297 -0.6962  1.5808  1.8175
 8263SOL    HW226658   5.019   2.040   3.166 -1.6001  0.2552  1.1186
 8264SOL     OW26659   0.131   5.059   1.058  0.0385  0.1560 -0.3184
 8264SOL    HW126660   0.088   5.076   1.142  0.5559  1.1181 -0.2358
 8264SOL    HW226661   0.219   5.096   1.068 -0.1055  0.8903 -1.5024
 8265SOL     OW26662   6.848   7.329   3.951  0.1905  0.0940 -0.8854
 8265SOL    HW126663   6.804   7.276   3.884  1.0921  0.3560 -1.7062
 8265SOL    HW226664   6.907   7.386   3.901  1.9663 -0.7242  0.2105
 8266SOL     OW26665   3.919   1.358   3.330 -0.6490  0.0704 -0.5370
 8266SOL    HW126666   3.864   1.335   3.255  0.1064 -0.1441 -1.0375
 8266SOL    HW226667   3.962   1.276   3.354  0.3915  0.4807 -0.9401
 8267SOL     OW26668   1.138   1.701   5.276 -0.0895  0.0718  0.0256
 8267SOL    HW126669   1.152   1.684   5.369 -1.1132  1.2937  0.4359
 8267SOL    HW226670   1.065   1.763   5.274 -0.8006 -0.7480 -1.6344
 8268SOL     OW26671   1.170   3.048   1.045  0.1531  0.4050  0.3552
 8268SOL    HW126672   1.082   3.077   1.022  0.0549  0.0955  0.3365
 8268SOL    HW226673   1.228   3.108   0.998 -0.0435 -0.1683 -0.6618
 8269SOL     OW26674   7.488   8.927   2.625  0.1924 -0.4371  0.1383
 8269SOL    HW126675   7.485   8.972   2.709  0.6731 -0.4318  0.1553
 8269SOL    HW226676   7.554   8.858   2.637  1.8627  0.9130 -0.8904
 8270SOL     OW26677   2.216   6.280   6.783  0.5095 -0.6424  0.2485
 8270SOL    HW126678   2.305   6.303   6.758 -0.4010 -0.0487 -2.8536
 8270SOL    HW226679   2.166   6.280   6.701 -2.2044 -1.7372  1.7344
 8271SOL     OW26680   5.797   2.621   2.504 -0.3739  0.2620  0.2636
 8271SOL    HW126681   5.831   2.647   2.419  0.4057 -0.3823  0.3681
 8271SOL    HW226682   5.805   2.700   2.558 -0.8217  0.6565 -0.2346
 8272SOL     OW26683   6.448   8.145   7.900 -0.1122  0.3602 -0.0680
 8272SOL    HW126684   6.425   8.054   7.879  2.1579 -0.3360  0.1265
 8272SOL    HW226685   6.376   8.176   7.954  0.2209 -2.2151  2.0756
 8273SOL     OW26686   3.245   1.497   5.128 -0.1227 -0.0612  0.0029
 8273SOL    HW126687   3.263   1.499   5.034 -1.6774 -0.5835 -0.3404
 8273SOL    HW226688   3.176   1.563   5.140  0.6710  0.6205  0.9317
 8274SOL     OW26689   7.510   6.261   4.401 -0.0866 -0.8053 -0.3806
 8274SOL    HW126690   7.532   6.339   4.453  0.2161 -1.7656  0.9974
 8274SOL    HW226691   7.518   6.290   4.310  0.2544  0.7010  0.0908
 8275SOL     OW26692   6.013   1.103   6.917 -0.3313 -0.1295  0.1308
 8275SOL    HW126693   6.096   1.063   6.945 -0.1805  0.7392  0.9850
 8275SOL    HW226694   6.032   1.141   6.832  0.0364 -0.2723  0.1454
 8276SOL     OW26695   5.632   5.709   1.045  0.2264  0.3577  0.5105
 8276SOL    HW126696   5.721   5.743   1.059  0.5287 -0.3684  0.3845
 8276SOL    HW226697   5.634   5.671   0.957  0.2493 -1.0336  1.0786
 8277SOL     OW26698   6.691   2.836   3.420  0.1687 -0.3526 -0.3532
 8277SOL    HW126699   6.769   2.886   3.443  0.3590 -0.1964 -1.3125
 8277SOL    HW226700   6.619   2.899   3.431  0.3062 -0.1448 -0.6337
 8278SOL     OW26701   5.567   4.568   3.554  0.0008  0.1147  0.4684
 8278SOL    HW126702   5.616   4.508   3.609 -1.9588 -0.8997  1.2076
 8278SOL    HW226703   5.475   4.552   3.576 -0.9427 -0.4499 -3.1788
 8279SOL     OW26704   4.558   0.506   8.284 -0.3429  0.0721 -0.0212
 8279SOL    HW126705   4.617   0.510   8.209  1.8764 -0.7838  1.5584
 8279SOL    HW226706   4.583   0.581   8.338 -1.5093  0.3436  0.1688
 8280SOL     OW26707   7.498   7.830   1.776 -0.0293 -0.2443  0.5621
 8280SOL    HW126708   7.433   7.760   1.787  0.7646 -0.7865  2.1117
 8280SOL    HW226709   7.546   7.805   1.697 -0.6080 -0.7310  0.3476
 8281SOL     OW26710   8.198   5.074   4.698  0.2052 -0.0884 -0.1204
 8281SOL    HW126711   8.123   5.110   4.652  1.0015  0.5915 -0.9356
 8281SOL    HW226712   8.163   5.042   4.781 -1.2061 -1.0919 -1.0769
 8282SOL     OW26713   8.279   4.423   5.703 -0.1031  0.4311 -0.6475
 8282SOL    HW126714   8.319   4.349   5.658  1.0583 -0.2457  1.3730
 8282SOL    HW226715   8.326   4.499   5.671  0.3523  0.0244 -0.9667
 8283SOL     OW26716   0.441   6.608   2.274  0.4586  0.6782 -0.2301
 8283SOL    HW126717   0.403   6.610   2.186 -1.1229 -0.3793  0.3896
 8283SOL    HW226718   0.367   6.594   2.332  1.6626 -0.2724  1.1544
 8284SOL     OW26719   3.721   2.790   4.809 -0.6262 -0.5492 -0.0251
 8284SOL    HW126720   3.765   2.803   4.725 -1.5186 -0.3010 -0.4579
 8284SOL    HW226721   3.672   2.708   4.798 -0.3912 -0.7567  0.4145
 8285SOL     OW26722   7.176   8.217   0.299 -0.7467  0.1977  0.0554
 8285SOL    HW126723   7.217   8.157   0.236 -1.9518  0.1357 -0.6897
 8285SOL    HW226724   7.248   8.274   0.327 -0.3626  0.8362 -2.0802
 8286SOL     OW26725   1.180   2.995   1.794 -0.0815  0.1785  0.2966
 8286SOL    HW126726   1.225   3.056   1.851 -1.8239  0.5533  1.3383
 8286SOL    HW226727   1.194   3.030   1.706  3.5040 -0.9673  0.2520
 8287SOL     OW26728   2.306   6.099   7.599  0.3874 -0.2376  0.0500
 8287SOL    HW126729   2.401   6.092   7.590  0.4993  1.4883 -0.3747
 8287SOL    HW226730   2.284   6.041   7.673  1.5916 -1.5958 -0.6190
 8288SOL     OW26731   3.429   1.576   4.348  0.3952 -0.2467  0.6013
 8288SOL    HW126732   3.394   1.624   4.274  0.9313 -0.2356  0.3510
 8288SOL    HW226733   3.466   1.496   4.309  0.0256 -0.5865  0.9414
 8289SOL     OW26734   4.645   7.974   5.700  0.1974 -0.1656 -0.4188
 8289SOL    HW126735   4.653   7.940   5.611  1.1011  1.1907 -0.8908
 8289SOL    HW226736   4.554   8.004   5.706  0.0565 -0.5080 -0.7844
 8290SOL     OW26737   6.487   1.648   4.181  0.1077  0.0265 -0.4282
 8290SOL    HW126738   6.542   1.686   4.113 -0.6080  0.3263 -0.8496
 8290SOL    HW226739   6.547   1.630   4.253  0.8599 -0.2295 -1.1122
 8291SOL     OW26740   2.898   3.880   2.406  0.0887  0.2987 -0.0568
 8291SOL    HW126741   2.856   3.794   2.408 -0.8251  0.6955 -1.2795
 8291SOL    HW226742   2.826   3.942   2.409  0.5060  1.0022 -2.5066
 8292SOL     OW26743   1.271   6.786   0.332 -0.2110  0.9741  0.0443
 8292SOL    HW126744   1.322   6.724   0.384 -1.4250  1.6814  2.2277
 8292SOL    HW226745   1.202   6.816   0.392 -1.4315  2.2053 -1.8724
 8293SOL     OW26746   0.702   0.072   8.663  0.0083 -0.9923 -0.0820
 8293SOL    HW126747   0.779   0.018   8.646  0.2284 -0.6322 -0.2435
 8293SOL    HW226748   0.641   0.013   8.707  0.5823 -1.1395  0.5295
 8294SOL     OW26749   4.059   2.424   3.532 -0.2432 -0.1187 -0.0144
 8294SOL    HW126750   4.031   2.514   3.519 -0.6399 -0.2744 -0.2782
 8294SOL    HW226751   4.039   2.405   3.623  2.6645  1.0217  0.9803
 8295SOL     OW26752   1.235   2.570   5.140 -0.3528  0.0388  0.3647
 8295SOL    HW126753   1.259   2.609   5.056 -0.1117 -1.3296 -0.2268
 8295SOL    HW226754   1.166   2.506   5.119 -1.3443  0.7017  1.4218
 8296SOL     OW26755   2.428   3.793   8.777  0.0925 -0.0719 -0.1941
 8296SOL    HW126756   2.341   3.759   8.797  0.8277 -1.5787  0.6301
 8296SOL    HW226757   2.453   3.841   8.856  0.5562 -0.8733  0.1681
 8297SOL     OW26758   2.816   0.998   7.267  0.0347  0.0874 -0.2455
 8297SOL    HW126759   2.851   1.009   7.355  0.8391 -1.0465 -0.4173
 8297SOL    HW226760   2.722   0.984   7.280 -0.2801  2.2102  0.2655
 8298SOL     OW26761   0.164   8.340   5.174 -0.2445  0.2162  0.6368
 8298SOL    HW126762   0.187   8.291   5.095 -0.2494  0.4598  0.4811
 8298SOL    HW226763   0.084   8.298   5.206  0.1468 -0.3220  0.9052
 8299SOL     OW26764   6.953   1.526   8.374  0.5649  0.2019  0.5542
 8299SOL    HW126765   7.005   1.451   8.403 -1.6986 -0.8511  2.2583
 8299SOL    HW226766   7.004   1.603   8.400  2.3308 -0.7254 -0.0471
 8300SOL     OW26767   3.918   2.130   4.949  0.2779  0.1535  0.0503
 8300SOL    HW126768   3.958   2.205   4.992  0.5159  0.1880 -0.2281
 8300SOL    HW226769   3.853   2.098   5.011  0.2764  0.5028  0.2281
 8301SOL     OW26770   8.817   8.601   2.705 -0.4369 -0.2313  0.0339
 8301SOL    HW126771   8.824   8.696   2.695  0.5502 -0.0941  1.6698
 8301SOL    HW226772   8.792   8.588   2.796 -1.1356 -1.5432 -0.3205
 8302SOL     OW26773   0.170   4.865   2.206 -0.0062 -0.3894  0.3472
 8302SOL    HW126774   0.122   4.858   2.124 -1.2165  1.0656  0.8757
 8302SOL    HW226775   0.225   4.942   2.195 -0.2339 -0.1378  0.9179
 8303SOL     OW26776   1.334   1.687   5.097  0.1232  0.1109  0.3766
 8303SOL    HW126777   1.252   1.688   5.146 -1.4615 -0.3468 -2.0576
 8303SOL    HW226778   1.397   1.731   5.154 -1.4555 -0.6549  2.8821
 8304SOL     OW26779   4.088   8.065   6.535  0.4179  0.7556 -0.0392
 8304SOL    HW126780   4.041   8.142   6.566 -1.1521 -0.1240 -0.1326
 8304SOL    HW226781   4.161   8.100   6.483 -0.6230  2.1716 -0.6016
 8305SOL     OW26782   6.235   5.450   4.035 -0.6873  0.0603  0.5874
 8305SOL    HW126783   6.210   5.395   3.961 -1.3935  1.3401 -0.1812
 8305SOL    HW226784   6.292   5.395   4.088  0.0332 -0.8398 -1.0236
 8306SOL     OW26785   7.841   2.076   4.824 -0.4454 -0.1398  0.2756
 8306SOL    HW126786   7.915   2.106   4.877 -0.2456 -1.2849  0.6817
 8306SOL    HW226787   7.770   2.136   4.846  0.2180  0.6732  0.2507
 8307SOL     OW26788   2.528   2.574   4.177 -0.1038 -0.2503  0.0949
 8307SOL    HW126789   2.513   2.514   4.104 -0.4591 -1.4341  1.1072
 8307SOL    HW226790   2.511   2.660   4.140 -2.3625 -0.9517 -0.7203
 8308SOL     OW26791   2.368   7.701   2.580 -0.4351 -0.6295  0.3509
 8308SOL    HW126792   2.374   7.669   2.670  1.0715 -0.7042  0.2485
 8308SOL    HW226793   2.447   7.753   2.567  0.4351 -2.3070 -1.5682
 8309SOL     OW26794   1.927   1.000   8.795  0.7487  0.4944 -1.0338
 8309SOL    HW126795   1.965   1.087   8.811  1.4602 -0.0874  0.6859
 8309SOL    HW226796   1.843   1.002   8.841  0.1929  0.6508 -2.0203
 8310SOL     OW26797   4.666   3.686   7.785 -0.1852  0.3375 -0.5050
 8310SOL    HW126798   4.719   3.752   7.740  2.8706 -0.7192  1.2441
 8310SOL    HW226799   4.596   3.736   7.829 -0.1161  1.9204 -2.1159
 8311SOL     OW26800   2.510   3.933   0.997  0.1104  0.2724 -0.2649
 8311SOL    HW126801   2.579   3.935   0.931 -0.5168  1.1812 -0.9076
 8311SOL    HW226802   2.552   3.894   1.074  1.6900  1.9178 -0.2364
 8312SOL     OW26803   1.565   6.225   3.774  0.4996 -0.4255 -0.4066
 8312SOL    HW126804   1.600   6.199   3.859  0.3556 -0.6935 -0.4261
 8312SOL    HW226805   1.510   6.301   3.792  1.1513  0.0467 -0.3874
 8313SOL     OW26806   4.535   1.033   0.348  0.1611 -0.3610  0.1853
 8313SOL    HW126807   4.602   0.982   0.394 -1.2879 -0.2801  2.5875
 8313SOL    HW226808   4.481   0.968   0.304 -1.2901 -1.0296  2.7075
 8314SOL     OW26809   8.349   5.708   1.693  0.5561  0.1387  0.6016
 8314SOL    HW126810   8.339   5.642   1.762  0.9954  0.5761  1.0973
 8314SOL    HW226811   8.260   5.730   1.667  0.2476  1.6635  2.6792
 8315SOL     OW26812   1.573   0.002   8.327 -0.3324 -0.0238  0.5566
 8315SOL    HW126813   1.540  -0.086   8.306 -1.5706  0.2462  1.2808
 8315SOL    HW226814   1.607  -0.005   8.416 -0.9392  0.3528  0.8231
 8316SOL     OW26815   8.842   7.513   1.233 -0.1934  0.2699  0.4315
 8316SOL    HW126816   8.863   7.479   1.146  0.2545  0.7469  0.3487
 8316SOL    HW226817   8.753   7.483   1.250 -0.2673  0.1409 -0.1802
 8317SOL     OW26818   1.171   2.500   1.530 -0.4535  0.7172 -0.3141
 8317SOL    HW126819   1.221   2.549   1.464  0.1792  0.5484  0.0345
 8317SOL    HW226820   1.216   2.417   1.537 -1.2192  0.2723 -0.5188
 8318SOL     OW26821   8.331   4.904   0.805  0.5583  0.9275  0.0257
 8318SOL    HW126822   8.406   4.908   0.746 -0.5299  2.3842 -1.3711
 8318SOL    HW226823   8.282   4.984   0.786 -0.6299  0.7008  1.8849
 8319SOL     OW26824   6.314   4.395   3.610 -0.3565 -0.4400 -0.2297
 8319SOL    HW126825   6.366   4.392   3.529  0.8494 -0.1660  0.5006
 8319SOL    HW226826   6.231   4.435   3.584  0.0558 -0.2399 -1.3070
 8320SOL     OW26827   7.540   5.749   2.428 -0.0248  0.6224  0.6327
 8320SOL    HW126828   7.460   5.697   2.436 -1.6429  2.7424 -0.7827
 8320SOL    HW226829   7.569   5.762   2.518  0.4653 -2.6231  1.0450
 8321SOL     OW26830   2.521   4.553   6.374  0.2047 -0.2612 -0.4530
 8321SOL    HW126831   2.493   4.463   6.390 -0.3500 -0.1437 -0.7523
 8321SOL    HW226832   2.594   4.566   6.435  0.3451 -0.9392 -0.4675
 8322SOL     OW26833   1.825   8.692   2.738 -0.1939 -0.1228  0.0835
 8322SOL    HW126834   1.874   8.722   2.815  2.0942  1.5709 -1.8977
 8322SOL    HW226835   1.734   8.715   2.758  0.3287  0.3136  2.2500
 8323SOL     OW26836   7.532   6.209   6.855  0.1978 -0.3104  0.1935
 8323SOL    HW126837   7.448   6.255   6.847  0.2098 -0.1108  1.1384
 8323SOL    HW226838   7.594   6.263   6.806  0.2824  0.8744  1.5499
 8324SOL     OW26839   7.575   5.938   0.441  0.7279 -0.3548 -0.2625
 8324SOL    HW126840   7.618   5.853   0.436  0.2915 -0.5036 -1.9581
 8324SOL    HW226841   7.603   5.974   0.525  3.6225 -0.6996 -0.9889
 8325SOL     OW26842   4.614   3.024   3.085  0.2828 -0.3839  0.0619
 8325SOL    HW126843   4.680   2.960   3.060 -0.5545 -1.5221  0.6339
 8325SOL    HW226844   4.656   3.109   3.074  1.3292 -1.0222 -0.9923
 8326SOL     OW26845   2.463   7.854   4.844  0.2599  0.8159  0.0746
 8326SOL    HW126846   2.400   7.838   4.913  0.4310  2.2718  0.5995
 8326SOL    HW226847   2.507   7.936   4.869  0.7500  1.0560 -1.4316
 8327SOL     OW26848   6.422   4.105   3.725  0.1637  1.1195 -0.5118
 8327SOL    HW126849   6.506   4.058   3.726 -1.8801 -2.9559 -0.6340
 8327SOL    HW226850   6.412   4.136   3.635  0.2398 -1.0859 -1.3227
 8328SOL     OW26851   0.097   8.398   4.366 -0.0270 -0.2778 -0.3797
 8328SOL    HW126852   0.047   8.316   4.355 -1.2221  0.3572  0.1158
 8328SOL    HW226853   0.100   8.436   4.278  0.5431 -0.8573 -0.6146
 8329SOL     OW26854   0.135   4.390   4.239  0.1972 -0.1395 -0.3000
 8329SOL    HW126855   0.072   4.318   4.245  0.2080 -0.0775  0.7071
 8329SOL    HW226856   0.220   4.348   4.246  0.1958 -0.0164  0.6638
 8330SOL     OW26857   8.551   7.947   7.522  0.2516 -0.0075  0.4707
 8330SOL    HW126858   8.567   8.032   7.562  1.7315 -0.4697  0.9125
 8330SOL    HW226859   8.589   7.954   7.435 -2.3946  0.7797 -0.7186
 8331SOL     OW26860   7.171   1.749   6.489  0.5097  0.0087 -0.2750
 8331SOL    HW126861   7.170   1.713   6.401 -1.4466 -0.3127 -0.1670
 8331SOL    HW226862   7.094   1.806   6.492  0.1289 -0.5384  1.4156
 8332SOL     OW26863   8.288   4.924   6.655  0.1115 -0.7117  0.3570
 8332SOL    HW126864   8.267   4.832   6.640  0.2011 -0.7945  0.7419
 8332SOL    HW226865   8.221   4.955   6.716 -0.4421 -0.2898 -0.4470
 8333SOL     OW26866   5.968   6.011   8.633  0.2667 -0.2820 -0.3515
 8333SOL    HW126867   5.929   6.010   8.545 -1.7260 -1.0955  0.4750
 8333SOL    HW226868   5.916   6.076   8.681 -1.6751 -2.8880  1.3794
 8334SOL     OW26869   4.080   0.712   6.433 -0.2285 -0.3266  0.0411
 8334SOL    HW126870   4.124   0.796   6.442 -0.0609 -0.5471  1.4024
 8334SOL    HW226871   4.112   0.677   6.349  1.1016  0.1459  0.3316
 8335SOL     OW26872   8.308   1.255   6.470 -0.2329  0.0710  0.0384
 8335SOL    HW126873   8.318   1.202   6.549 -0.4206  0.0503  0.0495
 8335SOL    HW226874   8.270   1.338   6.501 -2.2941 -0.6849 -0.2630
 8336SOL     OW26875   0.236   8.306   5.474 -0.1033  0.1893  0.1476
 8336SOL    HW126876   0.201   8.352   5.397 -0.1805  0.2626  0.2263
 8336SOL    HW226877   0.233   8.214   5.450  2.1159  0.3114 -0.9091
 8337SOL     OW26878   2.517   2.497   8.536  0.1692  0.1018 -0.7349
 8337SOL    HW126879   2.488   2.459   8.453 -1.3372  0.2621 -0.3172
 8337SOL    HW226880   2.441   2.488   8.594  1.4390 -0.7893  0.9009
 8338SOL     OW26881   4.753   7.335   4.850 -0.4274  0.5334  0.3088
 8338SOL    HW126882   4.691   7.325   4.778 -1.5053  0.9807  1.1586
 8338SOL    HW226883   4.754   7.250   4.894  0.7467  0.0437 -0.6104
 8339SOL     OW26884   1.918   1.788   2.532  0.2964 -0.0018 -0.1746
 8339SOL    HW126885   1.883   1.793   2.621  1.0312  0.3693  0.1000
 8339SOL    HW226886   1.966   1.705   2.530 -1.5037 -1.0844 -0.9036
 8340SOL     OW26887   3.617   8.769   7.598 -0.2373 -0.0371 -0.0725
 8340SOL    HW126888   3.528   8.804   7.588 -0.5321 -1.0049 -0.9507
 8340SOL    HW226889   3.607   8.694   7.656 -0.1768 -0.8105 -1.0427
 8341SOL     OW26890   2.202   0.970   7.727  0.1901 -0.0491  0.4642
 8341SOL    HW126891   2.157   1.052   7.748 -0.1042 -0.6778  2.5045
 8341SOL    HW226892   2.285   0.976   7.775  1.6939  0.4415 -2.0355
 8342SOL     OW26893   3.055   0.501   6.161 -0.4327  0.2591 -0.3122
 8342SOL    HW126894   3.036   0.479   6.070  0.2999  2.5157 -1.0607
 8342SOL    HW226895   3.020   0.589   6.174  1.4743  0.9277  0.8739
 8343SOL     OW26896   5.440   2.050   6.397  0.2910  0.5640  0.1018
 8343SOL    HW126897   5.518   2.004   6.366  0.6797  1.8667 -0.9934
 8343SOL    HW226898   5.378   2.045   6.324 -0.7258 -0.5698  1.0116
 8344SOL     OW26899   1.849   6.152   6.814  0.5702 -0.3495  0.3875
 8344SOL    HW126900   1.922   6.142   6.875 -0.4803  1.6932  2.0876
 8344SOL    HW226901   1.778   6.102   6.853  0.6744 -1.3379 -0.6469
 8345SOL     OW26902   8.180   4.654   0.602 -0.2257 -0.0629  0.1156
 8345SOL    HW126903   8.195   4.673   0.694  1.1038 -0.5572  0.0342
 8345SOL    HW226904   8.191   4.559   0.595 -3.1936 -0.4600 -0.0865
 8346SOL     OW26905   5.228   6.135   8.733  0.1250  0.7291  0.3378
 8346SOL    HW126906   5.174   6.143   8.812 -0.2397  1.5551  0.0161
 8346SOL    HW226907   5.314   6.167   8.761  0.4392 -0.4547  0.8102
 8347SOL     OW26908   1.039   3.375   7.946 -0.1259 -0.6543 -0.1013
 8347SOL    HW126909   0.973   3.444   7.938 -1.6993 -2.1218 -0.4658
 8347SOL    HW226910   1.122   3.422   7.955 -1.2046  1.2705  0.4568
 8348SOL     OW26911   5.542   2.163   5.612  0.0826 -0.1343 -0.4709
 8348SOL    HW126912   5.617   2.211   5.577  0.3413 -0.5602 -0.5025
 8348SOL    HW226913   5.544   2.179   5.706  1.8822 -2.4019 -0.0300
 8349SOL     OW26914   1.915   8.473   6.176 -0.0166 -0.2304 -0.4657
 8349SOL    HW126915   1.914   8.395   6.121 -1.7998  0.7127 -1.8649
 8349SOL    HW226916   2.002   8.511   6.161  0.8311 -1.8195  0.1408
 8350SOL     OW26917   8.831   5.147   6.025 -0.0588 -0.2474 -0.5460
 8350SOL    HW126918   8.762   5.192   5.976 -0.7684 -0.6380  0.0811
 8350SOL    HW226919   8.898   5.215   6.039  0.7455 -0.3937 -3.0627
 8351SOL     OW26920   8.728   3.851   8.741  0.7747 -0.2875  0.0246
 8351SOL    HW126921   8.823   3.849   8.726  0.7357  1.3376 -0.6693
 8351SOL    HW226922   8.716   3.801   8.822  2.6219  1.8932  1.7934
 8352SOL     OW26923   3.252   6.619   2.863  0.1627 -0.0086  0.0835
 8352SOL    HW126924   3.290   6.653   2.782 -1.2043  2.2614  0.3084
 8352SOL    HW226925   3.327   6.600   2.919  1.1028 -0.9764 -1.4469
 8353SOL     OW26926   5.542   1.826   4.505  0.1370 -0.1338 -0.0880
 8353SOL    HW126927   5.559   1.826   4.599 -0.0099 -1.5135 -0.0300
 8353SOL    HW226928   5.575   1.910   4.474 -0.8110  0.8009  1.3493
 8354SOL     OW26929   5.240   0.922   3.586 -0.4192 -0.1136 -0.0058
 8354SOL    HW126930   5.201   0.842   3.621 -3.2306  0.6875 -1.0306
 8354SOL    HW226931   5.258   0.976   3.663  1.6652 -1.6908  0.7066
 8355SOL     OW26932   4.010   5.067   0.309 -0.6444 -0.1011  0.2848
 8355SOL    HW126933   4.047   5.033   0.228  1.6782  0.3287  1.0768
 8355SOL    HW226934   3.988   5.158   0.290 -0.4341 -0.1067  0.0102
 8356SOL     OW26935   5.576   6.077   2.315 -0.1288  0.0384 -0.3877
 8356SOL    HW126936   5.654   6.054   2.366 -0.2614  0.2564 -0.0840
 8356SOL    HW226937   5.529   6.140   2.370 -0.3016  0.2336 -0.7566
 8357SOL     OW26938   6.709   6.389   0.080 -0.1648 -0.3497 -0.3527
 8357SOL    HW126939   6.722   6.346  -0.004  1.1370 -0.8921  0.0922
 8357SOL    HW226940   6.616   6.410   0.083 -0.1513  0.0977 -2.1156
 8358SOL     OW26941   4.861   5.050   7.289  0.2088 -0.0271  0.8084
 8358SOL    HW126942   4.895   4.990   7.223 -0.5280 -0.5735  0.9042
 8358SOL    HW226943   4.927   5.052   7.357  1.2020  0.9083 -0.1318
 8359SOL     OW26944   0.837   1.826   8.253 -0.4515  0.1477 -0.0359
 8359SOL    HW126945   0.835   1.905   8.199 -1.9945  1.1897  1.4343
 8359SOL    HW226946   0.850   1.858   8.342  0.1976 -1.3837  0.4623
 8360SOL     OW26947   6.248   4.360   2.688  0.9455 -0.5011  0.1347
 8360SOL    HW126948   6.167   4.363   2.636  1.7599  0.1982 -1.1450
 8360SOL    HW226949   6.297   4.437   2.660  1.9105 -0.7179  1.1669
 8361SOL     OW26950   2.934   0.741   1.680  0.5393 -0.4498  0.0166
 8361SOL    HW126951   2.996   0.781   1.619 -0.6430  0.1751 -0.8129
 8361SOL    HW226952   2.986   0.723   1.759  1.6105  0.6827 -0.3967
 8362SOL     OW26953   6.325   2.896   7.242 -0.5306  0.1478  0.3400
 8362SOL    HW126954   6.417   2.902   7.213 -0.7024  0.2548 -0.2010
 8362SOL    HW226955   6.278   2.865   7.165 -0.7972 -0.9811  0.9351
 8363SOL     OW26956   0.650   5.209   6.003 -0.2349 -0.5197 -0.4319
 8363SOL    HW126957   0.701   5.283   6.033  0.2223  0.5365 -3.4896
 8363SOL    HW226958   0.715   5.144   5.975 -0.6067 -0.8514 -0.5436
 8364SOL     OW26959   1.148   5.009   3.516 -0.0699 -0.2964 -0.2017
 8364SOL    HW126960   1.181   4.930   3.560  0.8206  0.3901  0.3964
 8364SOL    HW226961   1.134   4.981   3.425 -0.8507 -1.4330  0.2424
 8365SOL     OW26962   7.257   2.093   3.501  0.1629 -0.2491 -0.2399
 8365SOL    HW126963   7.199   2.020   3.481  0.7912 -0.4123 -1.5551
 8365SOL    HW226964   7.230   2.163   3.441  0.1144  0.3227  0.4289
 8366SOL     OW26965   0.453   2.207   0.689  0.6746  0.4153 -0.0177
 8366SOL    HW126966   0.397   2.132   0.670  0.2345  0.2861  1.6589
 8366SOL    HW226967   0.542   2.172   0.689  0.3453 -0.7887  3.3443
 8367SOL     OW26968   3.859   8.159   3.423  0.2992 -0.2996  0.1749
 8367SOL    HW126969   3.785   8.164   3.363  0.3496 -1.2867  0.0174
 8367SOL    HW226970   3.916   8.232   3.397  0.0537 -0.3808 -0.6150
 8368SOL     OW26971   4.117   0.503   2.945 -0.1755 -0.1405  0.0272
 8368SOL    HW126972   4.201   0.485   2.988  0.5213 -0.1097 -1.2706
 8368SOL    HW226973   4.052   0.459   3.000  0.8747 -1.7334  0.0605
 8369SOL     OW26974   1.736   8.144   5.831  0.5307 -0.2225 -0.2264
 8369SOL    HW126975   1.695   8.119   5.913  1.5018 -1.2754 -0.0324
 8369SOL    HW226976   1.808   8.081   5.820  1.2820  0.7631 -1.1782
 8370SOL     OW26977   3.505   8.579   0.916 -0.2348  0.7851 -0.0142
 8370SOL    HW126978   3.519   8.508   0.852  1.4606  0.3893  0.7458
 8370SOL    HW226979   3.438   8.545   0.975  0.4530 -0.1553  0.2544
 8371SOL     OW26980   4.037   0.935   8.922  0.0946  0.3929 -0.1072
 8371SOL    HW126981   4.048   0.923   9.017 -0.7178  1.0114  0.0733
 8371SOL    HW226982   4.126   0.945   8.889  0.5040 -1.2878  0.3766
 8372SOL     OW26983   5.743   6.992   0.112  0.1026 -0.4594 -0.1686
 8372SOL    HW126984   5.743   7.032   0.025  0.5391  0.2394  0.1491
 8372SOL    HW226985   5.835   6.984   0.136 -0.0236  0.7814  0.8660
 8373SOL     OW26986   0.539   8.402   6.014 -0.3748 -0.1762  0.4217
 8373SOL    HW126987   0.475   8.465   5.978  2.0078  1.6938 -0.8339
 8373SOL    HW226988   0.530   8.325   5.957 -0.9252  0.3981 -0.2999
 8374SOL     OW26989   2.302   3.413   3.504 -0.0144 -0.0493 -0.1254
 8374SOL    HW126990   2.380   3.366   3.534 -0.6274 -0.8725  0.2323
 8374SOL    HW226991   2.331   3.463   3.428  0.2889 -2.4210 -1.6772
 8375SOL     OW26992   1.573   5.795   7.397 -0.4641 -0.2875  0.1202
 8375SOL    HW126993   1.491   5.800   7.348  1.1337 -0.3923 -2.7757
 8375SOL    HW226994   1.632   5.744   7.341  2.0294  0.9916  1.3873
 8376SOL     OW26995   8.768   1.857   1.214 -0.2892 -0.9392 -0.1810
 8376SOL    HW126996   8.835   1.836   1.149  1.2782 -0.9337  1.3367
 8376SOL    HW226997   8.729   1.773   1.237  0.9550 -1.3171  0.6786
 8377SOL     OW26998   5.575   2.668   5.973  0.4202 -0.3440 -0.5089
 8377SOL    HW126999   5.664   2.649   5.943  0.0580 -1.1664 -1.1038
 8377SOL    HW227000   5.583   2.679   6.068  1.3258  0.6956 -0.6937
 8378SOL     OW27001   8.871   3.423   3.132 -0.3356  0.6212  0.1781
 8378SOL    HW127002   8.882   3.360   3.204 -1.4473 -0.4045 -0.5027
 8378SOL    HW227003   8.779   3.447   3.135 -0.2201  1.1605 -0.4262
 8379SOL     OW27004   5.540   3.631   3.929  0.2358  0.0858  0.0124
 8379SOL    HW127005   5.492   3.676   3.860  1.7468 -0.4145 -1.4224
 8379SOL    HW227006   5.524   3.538   3.913  1.0217 -0.0537 -0.0118
 8380SOL     OW27007   4.710   0.174   5.775  0.1238 -0.0240  0.4506
 8380SOL    HW127008   4.642   0.133   5.722 -0.1660  0.8413  0.1296
 8380SOL    HW227009   4.679   0.164   5.865 -0.9885  1.2866  0.2482
 8381SOL     OW27010   7.054   3.955   4.973  0.7877 -0.0406  0.2304
 8381SOL    HW127011   7.068   4.014   5.047 -1.0674 -0.7280  1.2026
 8381SOL    HW227012   6.962   3.927   4.982  0.3847  0.1175 -2.5339
 8382SOL     OW27013   3.535   1.357   2.547 -0.1648 -0.2783 -0.2386
 8382SOL    HW127014   3.579   1.422   2.601 -0.4497  0.5991 -1.0558
 8382SOL    HW227015   3.605   1.313   2.499 -0.1145  0.7384 -1.1220
 8383SOL     OW27016   4.431   4.439   7.208 -0.4195  0.3276 -0.3449
 8383SOL    HW127017   4.456   4.347   7.210 -0.3356  0.3550  0.1058
 8383SOL    HW227018   4.505   4.483   7.165 -0.3932  0.2058 -0.4236
 8384SOL     OW27019   5.087   7.655   8.565 -0.7727 -0.1081  0.5929
 8384SOL    HW127020   5.026   7.592   8.528 -0.3762  0.0269 -0.3069
 8384SOL    HW227021   5.173   7.625   8.536 -0.5565  0.6900  0.3899
 8385SOL     OW27022   4.232   8.655   8.496  0.5308  0.5383 -0.2543
 8385SOL    HW127023   4.278   8.684   8.417  2.3937  2.9041  1.5775
 8385SOL    HW227024   4.142   8.639   8.466  1.5551 -0.4639 -3.1769
 8386SOL     OW27025   1.139   3.432   2.529 -0.1316  0.5010 -0.2156
 8386SOL    HW127026   1.211   3.401   2.584 -2.0107 -1.2363  1.4651
 8386SOL    HW227027   1.180   3.491   2.466  2.8701 -1.0555  0.0970
 8387SOL     OW27028   7.211   2.687   8.783  0.1216 -0.1666  0.2346
 8387SOL    HW127029   7.133   2.743   8.787 -0.5447 -1.0561  0.0690
 8387SOL    HW227030   7.176   2.598   8.786  1.1659 -0.5761  0.5368
 8388SOL     OW27031   2.499   3.435   6.599 -0.0004 -0.3151  0.1996
 8388SOL    HW127032   2.463   3.386   6.524  1.4253 -0.9415 -0.1048
 8388SOL    HW227033   2.447   3.516   6.601 -0.2403 -0.3916 -1.3176
 8389SOL     OW27034   4.180   8.293   7.686 -0.5679 -0.2720  0.9110
 8389SOL    HW127035   4.177   8.259   7.775  2.0288 -1.2187  0.7187
 8389SOL    HW227036   4.273   8.300   7.666 -1.0129 -1.8265 -2.3684
 8390SOL     OW27037   5.379   8.662   8.201  0.4561 -0.4095 -0.6279
 8390SOL    HW127038   5.327   8.739   8.181  0.1754 -0.7920 -1.3977
 8390SOL    HW227039   5.315   8.591   8.207  0.7479 -0.6479 -0.2589
 8391SOL     OW27040   0.045   0.140   0.606  0.1984  0.1257  0.5072
 8391SOL    HW127041   0.112   0.181   0.662 -0.4878  0.5504  1.0355
 8391SOL    HW227042   0.079   0.052   0.589  1.7558  0.9199 -0.7418
 8392SOL     OW27043   8.210   8.779   8.995 -0.1060  0.3485  0.0286
 8392SOL    HW127044   8.259   8.697   9.000  0.8037  0.8919  0.4888
 8392SOL    HW227045   8.268   8.838   8.946 -1.9262 -0.0495 -2.8360
 8393SOL     OW27046   5.418   4.872   6.770 -0.3790 -0.0698  0.4760
 8393SOL    HW127047   5.440   4.871   6.863  0.3333 -1.0081  0.3134
 8393SOL    HW227048   5.437   4.783   6.740 -0.9159  0.1307 -0.4976
 8394SOL     OW27049   5.659   5.449   4.570  0.2654 -0.6326  0.4223
 8394SOL    HW127050   5.746   5.450   4.609  0.7204 -2.6388 -0.4386
 8394SOL    HW227051   5.657   5.370   4.517 -1.5929  0.1323 -0.7455
 8395SOL     OW27052   2.620   6.458   5.125 -0.3621 -0.1596 -0.3182
 8395SOL    HW127053   2.538   6.434   5.168 -1.7269 -0.2798 -2.8202
 8395SOL    HW227054   2.615   6.417   5.039  3.3522 -2.0549  0.1575
 8396SOL     OW27055   0.514   6.656   5.412  0.1717  0.3426  0.0497
 8396SOL    HW127056   0.441   6.657   5.351 -0.5555 -2.1215  0.7522
 8396SOL    HW227057   0.591   6.642   5.357 -0.1870  0.4403 -0.4833
 8397SOL     OW27058   4.582   2.706   5.231  0.2149  0.1676  0.2554
 8397SOL    HW127059   4.518   2.689   5.162  1.0838  1.7567 -0.9938
 8397SOL    HW227060   4.666   2.686   5.192  0.6416 -0.0834  1.2717
 8398SOL     OW27061   3.460   3.066   3.076  0.3959 -0.1171  0.6239
 8398SOL    HW127062   3.547   3.066   3.116  0.8931 -0.6359 -0.4223
 8398SOL    HW227063   3.421   3.149   3.105  1.8223  0.8608 -0.1241
 8399SOL     OW27064   2.339   1.206   7.003 -0.5879  0.2250 -0.6230
 8399SOL    HW127065   2.355   1.277   6.940 -1.1067  0.5554 -0.3917
 8399SOL    HW227066   2.280   1.146   6.956 -2.7463  1.5416  0.2433
 8400SOL     OW27067   4.961   2.274   0.376  0.0988 -0.2473 -0.5640
 8400SOL    HW127068   4.911   2.282   0.458 -1.3059  0.5533 -1.4509
 8400SOL    HW227069   5.024   2.204   0.393 -0.2116 -0.1654  1.1666
 8401SOL     OW27070   7.981   2.600   3.920  0.0717  0.4429  0.6628
 8401SOL    HW127071   8.041   2.673   3.935  0.0705  0.5972 -0.0250
 8401SOL    HW227072   7.964   2.564   4.007  0.3823  1.0153  0.9673
 8402SOL     OW27073   8.313   5.252   3.709  0.4771  0.3702  0.2783
 8402SOL    HW127074   8.277   5.250   3.798  0.6134 -1.7284  0.3502
 8402SOL    HW227075   8.256   5.192   3.660  1.6315 -0.0962 -0.5244
 8403SOL     OW27076   3.619   3.522   5.617 -0.6495 -0.0121  0.0659
 8403SOL    HW127077   3.551   3.461   5.644  0.4344 -0.9174  0.8424
 8403SOL    HW227078   3.625   3.510   5.522 -0.0179 -1.6031  0.2858
 8404SOL     OW27079   7.485   7.477   2.009 -0.0416  0.0523 -0.0555
 8404SOL    HW127080   7.408   7.427   2.037 -0.0627  0.0473 -0.1225
 8404SOL    HW227081   7.558   7.437   2.057 -0.1079  0.1826  0.1543
 8405SOL     OW27082   4.782   5.260   1.914 -0.4403 -0.2702  0.3217
 8405SOL    HW127083   4.810   5.348   1.941  0.1881 -0.5471  0.5959
 8405SOL    HW227084   4.716   5.276   1.847  1.2930  0.4260 -1.3130
 8406SOL     OW27085   7.988   6.484   6.303 -0.1277 -0.2205  0.0583
 8406SOL    HW127086   8.058   6.496   6.367  1.6064 -1.0198 -1.5941
 8406SOL    HW227087   7.927   6.424   6.346  2.2660 -2.8184  0.1470
 8407SOL     OW27088   7.453   7.203   2.748  0.5175  0.0010  0.1356
 8407SOL    HW127089   7.539   7.187   2.789  0.6716 -0.3926 -0.3343
 8407SOL    HW227090   7.471   7.266   2.679  0.5964 -0.7872 -0.5726
 8408SOL     OW27091   5.628   8.024   0.633 -0.4988 -0.5765  0.1436
 8408SOL    HW127092   5.609   7.956   0.697  0.2130 -0.1436  0.8433
 8408SOL    HW227093   5.664   8.096   0.685 -0.7512  0.1301 -0.6430
 8409SOL     OW27094   4.707   1.597   4.013 -0.1118 -0.0781 -0.1095
 8409SOL    HW127095   4.756   1.620   3.934  2.6057 -0.9627  1.1863
 8409SOL    HW227096   4.747   1.515   4.043  0.7177  1.4308  3.4819
 8410SOL     OW27097   0.310   4.193   8.027  0.4964  0.2648 -0.5542
 8410SOL    HW127098   0.353   4.274   8.053  1.8505 -0.2982 -0.9316
 8410SOL    HW227099   0.291   4.205   7.934 -0.7194  0.7323 -0.2627
 8411SOL     OW27100   2.869   6.816   5.500  0.5882 -0.3528 -0.6423
 8411SOL    HW127101   2.777   6.788   5.499  0.2577  0.6412  0.5330
 8411SOL    HW227102   2.903   6.787   5.415 -0.5196 -1.6512 -0.6820
 8412SOL     OW27103   6.824   2.026   8.224 -0.2641  0.2107  0.2134
 8412SOL    HW127104   6.826   2.106   8.276 -1.1703 -0.1963  0.8973
 8412SOL    HW227105   6.910   1.986   8.239 -0.1790  0.5615  0.6674
 8413SOL     OW27106   6.214   0.732   1.058  0.0725  0.6172  0.5546
 8413SOL    HW127107   6.203   0.811   1.111 -0.5010  1.2291 -0.4528
 8413SOL    HW227108   6.180   0.756   0.972  1.3933 -0.2287 -0.2198
 8414SOL     OW27109   6.149   7.064   6.309 -0.0491 -0.7264  0.4899
 8414SOL    HW127110   6.135   7.102   6.222  0.2232 -0.1322  0.7067
 8414SOL    HW227111   6.126   7.134   6.370 -1.4460 -1.5302  0.9302
 8415SOL     OW27112   6.148   7.974   8.827 -0.5902  0.2766  0.4319
 8415SOL    HW127113   6.188   8.051   8.788  0.7817  0.5390  2.2276
 8415SOL    HW227114   6.054   7.991   8.825 -0.5493  0.5516 -2.0482
 8416SOL     OW27115   0.453   5.903   3.558  0.5252 -1.0980  0.0043
 8416SOL    HW127116   0.488   5.831   3.506  1.3846 -0.3790 -0.4478
 8416SOL    HW227117   0.361   5.910   3.531  0.9513 -0.7360 -1.4641
 8417SOL     OW27118   0.411   2.385   4.043  0.4422 -0.4213 -0.2008
 8417SOL    HW127119   0.376   2.316   4.100 -2.3910  0.4994 -0.7263
 8417SOL    HW227120   0.407   2.347   3.955 -2.1450  0.6742 -0.6348
 8418SOL     OW27121   3.594   3.271   7.536 -0.2965 -0.1073  0.0879
 8418SOL    HW127122   3.542   3.350   7.518  0.3038  0.6048  1.3320
 8418SOL    HW227123   3.533   3.211   7.578 -0.2037  0.6588  1.3832
 8419SOL     OW27124   6.637   1.085   6.958 -0.5351 -0.3077 -0.4737
 8419SOL    HW127125   6.556   1.107   7.004 -0.1087  0.1536  0.0676
 8419SOL    HW227126   6.658   0.996   6.986 -0.1978  0.0231  0.3594
 8420SOL     OW27127   4.158   2.917   4.590 -0.3196  0.3281  0.0195
 8420SOL    HW127128   4.150   2.824   4.570 -0.3163 -0.0688  1.6729
 8420SOL    HW227129   4.244   2.942   4.557  1.5722 -1.3593  3.2195
 8421SOL     OW27130   5.423   4.414   4.463 -0.0471 -0.1200 -0.2971
 8421SOL    HW127131   5.485   4.477   4.426  0.2400 -0.6040 -0.6537
 8421SOL    HW227132   5.430   4.337   4.407  0.7705 -1.0728  1.0342
 8422SOL     OW27133   3.849   4.099   3.856  0.1207  0.2510  0.5416
 8422SOL    HW127134   3.802   4.022   3.889  1.4699  0.0323  2.0728
 8422SOL    HW227135   3.857   4.084   3.762 -0.0039 -1.2794  0.7556
 8423SOL     OW27136   1.867   5.416   5.983 -0.2192  0.0225 -0.3151
 8423SOL    HW127137   1.808   5.360   5.932  1.2140 -2.1092  0.2431
 8423SOL    HW227138   1.931   5.447   5.919  1.5470 -2.6047  0.0196
 8424SOL     OW27139   2.710   6.474   3.274 -0.2474 -0.4364  0.8791
 8424SOL    HW127140   2.657   6.516   3.206  0.0879  1.3561  1.6854
 8424SOL    HW227141   2.793   6.456   3.230 -0.2436  0.1470  0.6326
 8425SOL     OW27142   8.467   4.405   3.968 -0.1866  0.1662  0.2446
 8425SOL    HW127143   8.421   4.488   3.981  0.6894  0.6910  0.0548
 8425SOL    HW227144   8.545   4.411   4.024  1.2157  0.5589 -1.6438
 8426SOL     OW27145   3.300   6.105   6.550 -0.9017  0.4838 -0.0809
 8426SOL    HW127146   3.387   6.121   6.514 -0.3705 -0.3067  0.7854
 8426SOL    HW227147   3.251   6.185   6.531 -0.0986  0.8065 -0.8887
 8427SOL     OW27148   7.927   1.511   8.722 -0.3455 -0.5721 -0.3485
 8427SOL    HW127149   8.009   1.475   8.688  1.5252  0.1699  2.9787
 8427SOL    HW227150   7.859   1.461   8.677  1.9610 -3.4385 -0.9675
 8428SOL     OW27151   4.111   1.691   3.298  0.7274  0.2908 -0.1120
 8428SOL    HW127152   4.130   1.706   3.390 -0.4636 -0.6768  0.3190
 8428SOL    HW227153   4.120   1.597   3.286  0.8303  0.4033 -0.9775
 8429SOL     OW27154   3.493   5.792   8.046 -0.2891  0.1023  0.7991
 8429SOL    HW127155   3.540   5.717   8.009  0.5952 -0.2669  2.5908
 8429SOL    HW227156   3.411   5.796   7.997  0.3573 -1.0277 -0.4189
 8430SOL     OW27157   0.111   7.552   5.324 -0.1376 -0.4276 -0.2043
 8430SOL    HW127158   0.202   7.565   5.348  0.2537 -2.1768 -0.5864
 8430SOL    HW227159   0.061   7.606   5.385  1.1480  0.8342 -0.2197
 8431SOL     OW27160   5.551   3.801   7.613  0.1901  0.3631 -0.0733
 8431SOL    HW127161   5.631   3.780   7.662  0.5218 -1.3063 -1.2526
 8431SOL    HW227162   5.480   3.772   7.671  0.3279  2.5864  1.3307
 8432SOL     OW27163   1.802   0.268   0.582  0.1532  0.0720 -0.3459
 8432SOL    HW127164   1.749   0.337   0.623  1.7205  0.3170  1.3762
 8432SOL    HW227165   1.773   0.266   0.491 -2.1251  0.8404  0.3027
 8433SOL     OW27166   5.703   3.600   1.912 -0.4985 -0.4116  0.0939
 8433SOL    HW127167   5.728   3.518   1.954 -0.3878 -0.0613  0.7255
 8433SOL    HW227168   5.612   3.615   1.938 -0.2546  0.0929  0.6882
 8434SOL     OW27169   6.830   0.293   5.602  0.2030  0.0448  0.0822
 8434SOL    HW127170   6.842   0.230   5.673 -1.1792  0.8339  1.0756
 8434SOL    HW227171   6.763   0.253   5.546 -0.2813  0.3771  0.4178
 8435SOL     OW27172   5.996   3.125   2.258 -0.1774  0.3246 -0.1930
 8435SOL    HW127173   6.033   3.041   2.232  0.9650  0.8362 -0.2511
 8435SOL    HW227174   5.929   3.143   2.191  1.7060  0.9119 -2.0167
 8436SOL     OW27175   1.456   0.596   1.533 -0.4570  0.2162  0.4566
 8436SOL    HW127176   1.443   0.679   1.579 -0.4694  1.2098 -1.2473
 8436SOL    HW227177   1.405   0.533   1.583  0.7744  0.8764  2.6869
 8437SOL     OW27178   4.131   1.047   7.341  0.4632  0.1556  0.3223
 8437SOL    HW127179   4.179   1.031   7.422  1.0638 -1.7194 -0.3365
 8437SOL    HW227180   4.076   0.969   7.331 -1.9822  1.7491  0.4903
 8438SOL     OW27181   5.519   4.357   3.857  0.3130 -0.0781  0.7185
 8438SOL    HW127182   5.591   4.384   3.800  0.3987  0.4715  1.0818
 8438SOL    HW227183   5.562   4.329   3.938  0.1911 -0.8531  0.5285
 8439SOL     OW27184   0.427   2.029   5.466 -0.2803 -0.6370 -0.2873
 8439SOL    HW127185   0.498   1.984   5.513  1.6532  1.5697 -0.9044
 8439SOL    HW227186   0.452   2.023   5.374 -1.7350 -1.1226 -0.6770
 8440SOL     OW27187   1.958   1.880   1.127 -0.0547  0.3575 -0.5634
 8440SOL    HW127188   1.874   1.910   1.093  0.3611  2.1031 -0.1421
 8440SOL    HW227189   2.008   1.855   1.050  0.0727  2.1433 -1.1049
 8441SOL     OW27190   2.841   6.206   0.802  0.4257  0.5265  0.5650
 8441SOL    HW127191   2.773   6.147   0.771  1.0754  0.5704 -1.0420
 8441SOL    HW227192   2.794   6.277   0.845 -0.5109  0.2429  0.0326
 8442SOL     OW27193   4.901   1.075   3.193 -0.1040  0.2444 -0.2736
 8442SOL    HW127194   4.930   1.051   3.281 -0.5720  0.1735 -0.1391
 8442SOL    HW227195   4.855   0.998   3.161 -1.8953  1.0169  0.2799
 8443SOL     OW27196   2.085   1.770   7.229 -0.6069 -0.2131  0.0081
 8443SOL    HW127197   2.100   1.725   7.146 -0.8038 -0.7368  0.2512
 8443SOL    HW227198   2.083   1.699   7.295 -1.3248  0.1084  0.3398
 8444SOL     OW27199   3.454   2.034   2.994  0.6543 -0.3869  0.1088
 8444SOL    HW127200   3.425   1.990   3.074 -1.0059 -0.9635 -0.7656
 8444SOL    HW227201   3.537   1.992   2.972  0.1334 -1.6269  0.4481
 8445SOL     OW27202   5.569   6.438   0.803  0.2671  0.3874  0.3619
 8445SOL    HW127203   5.507   6.503   0.772  0.4536  1.4225  2.0513
 8445SOL    HW227204   5.655   6.475   0.782  0.3647  0.3429  0.6912
 8446SOL     OW27205   0.798   5.144   8.353 -0.2242 -0.6297 -0.3957
 8446SOL    HW127206   0.732   5.098   8.301 -0.6993 -0.4172  0.0115
 8446SOL    HW227207   0.881   5.109   8.321 -0.5465 -1.2539 -0.5847
 8447SOL     OW27208   2.816   0.016   0.728 -0.1437  0.6542  0.4668
 8447SOL    HW127209   2.907   0.010   0.698 -0.5636  0.9728 -0.9270
 8447SOL    HW227210   2.795  -0.072   0.759  0.2094  0.2161 -0.5054
 8448SOL     OW27211   3.268   6.967   6.624  0.3651 -0.4235  0.2622
 8448SOL    HW127212   3.219   6.897   6.579  0.1754 -0.3219  0.3115
 8448SOL    HW227213   3.217   7.046   6.607 -0.4632 -0.5927  1.8193
 8449SOL     OW27214   6.765   3.305   5.897  0.0142 -0.2929 -0.3555
 8449SOL    HW127215   6.783   3.391   5.859 -0.6629 -0.0720 -0.1829
 8449SOL    HW227216   6.693   3.270   5.846  0.2191 -0.7182 -0.3570
 8450SOL     OW27217   1.120   6.995   4.752 -0.0847  0.2776 -0.0659
 8450SOL    HW127218   1.027   7.000   4.774 -0.1097 -0.1649 -0.0515
 8450SOL    HW227219   1.127   7.041   4.669 -0.2846  0.4826  0.0303
 8451SOL     OW27220   8.744   7.153   6.617 -0.3128  0.1760 -0.1742
 8451SOL    HW127221   8.820   7.143   6.675 -0.4214 -1.5391 -0.2889
 8451SOL    HW227222   8.782   7.167   6.530 -0.0985 -1.5414 -0.3758
 8452SOL     OW27223   4.199   3.292   3.897  0.0736  0.6212  0.0518
 8452SOL    HW127224   4.148   3.259   3.971  1.8586 -0.1755  0.9877
 8452SOL    HW227225   4.136   3.297   3.825 -0.8203 -2.7733  0.4459
 8453SOL     OW27226   7.664   1.675   5.018 -0.3067  0.0290 -0.0654
 8453SOL    HW127227   7.744   1.711   4.979 -0.1712 -1.0723 -0.8413
 8453SOL    HW227228   7.602   1.747   5.016  0.7605  1.0349  0.9135
 8454SOL     OW27229   8.220   7.905   7.007  0.6780 -0.0396 -0.0381
 8454SOL    HW127230   8.213   7.871   7.097  4.1983 -2.5588 -0.5053
 8454SOL    HW227231   8.308   7.881   6.979  0.6755  2.9698 -3.3419
 8455SOL     OW27232   5.714   1.666   5.208  0.3610  0.1728  0.5272
 8455SOL    HW127233   5.788   1.702   5.257  0.8748  1.1315 -0.8959
 8455SOL    HW227234   5.754   1.600   5.151 -0.1150 -0.3634  0.7995
 8456SOL     OW27235   3.384   7.216   2.100 -0.5734  0.1211  0.0183
 8456SOL    HW127236   3.319   7.279   2.130  0.6260  1.4233  0.0141
 8456SOL    HW227237   3.424   7.183   2.180 -0.9703 -0.3968  0.0079
 8457SOL     OW27238   4.270   1.458   6.272 -0.0943 -0.0663 -0.0602
 8457SOL    HW127239   4.282   1.533   6.330  0.9733 -0.0903 -0.2269
 8457SOL    HW227240   4.305   1.384   6.320  1.0475 -0.0382 -0.8218
 8458SOL     OW27241   0.574   5.864   2.413 -0.0235 -0.0120 -0.6520
 8458SOL    HW127242   0.489   5.824   2.394  1.0608 -2.5330 -0.5003
 8458SOL    HW227243   0.571   5.885   2.506  0.7561 -3.5805  0.3107
 8459SOL     OW27244   4.823   1.245   6.513 -0.2126 -0.0388 -0.3056
 8459SOL    HW127245   4.759   1.225   6.581 -0.1954  1.8541  0.3406
 8459SOL    HW227246   4.771   1.279   6.440 -0.0746 -0.0409 -0.4053
 8460SOL     OW27247   3.794   3.082   3.677  0.3378 -0.2422 -0.3637
 8460SOL    HW127248   3.827   2.993   3.666 -0.7475 -0.6896 -0.1645
 8460SOL    HW227249   3.716   3.085   3.621  1.9126  1.5012 -2.6319
 8461SOL     OW27250   0.511   4.657   8.873  0.2805  0.7863  0.5483
 8461SOL    HW127251   0.556   4.731   8.832  0.4911 -0.8537 -2.4862
 8461SOL    HW227252   0.418   4.671   8.854  0.3884 -0.0368 -0.7172
 8462SOL     OW27253   1.520   3.365   6.799 -0.2012 -0.8642  0.3179
 8462SOL    HW127254   1.464   3.384   6.874 -0.1200  2.6790 -0.3484
 8462SOL    HW227255   1.479   3.289   6.758 -1.9811 -1.0617  2.2406
 8463SOL     OW27256   6.145   1.377   0.375 -0.1204  0.2731 -0.2994
 8463SOL    HW127257   6.142   1.344   0.285 -0.2007  1.2959 -0.6838
 8463SOL    HW227258   6.096   1.312   0.426 -1.6920  0.6325 -1.2949
 8464SOL     OW27259   5.491   7.133   6.115  0.3646  0.5097  0.5345
 8464SOL    HW127260   5.418   7.080   6.149  1.3966 -1.4890 -0.2077
 8464SOL    HW227261   5.495   7.209   6.173 -0.2688 -0.9367  2.5771
 8465SOL     OW27262   2.090   8.757   7.535 -0.2480  0.5183  0.3915
 8465SOL    HW127263   2.066   8.848   7.547 -1.2252  0.5488 -1.5333
 8465SOL    HW227264   2.007   8.711   7.520  0.3955 -0.2657 -1.0159
 8466SOL     OW27265   5.287   7.439   5.193 -0.0452 -0.3065  0.2591
 8466SOL    HW127266   5.225   7.373   5.224  0.0577 -0.3799  0.3103
 8466SOL    HW227267   5.368   7.420   5.240  0.1416 -0.4813 -0.1220
 8467SOL     OW27268   6.912   1.246   2.618 -0.0908 -0.0377 -0.5792
 8467SOL    HW127269   6.844   1.188   2.581  0.2170  0.8775 -2.7368
 8467SOL    HW227270   6.987   1.189   2.631 -0.7252 -0.7190  0.2311
 8468SOL     OW27271   4.390   6.432   2.619  0.6010  0.0142 -0.3760
 8468SOL    HW127272   4.397   6.424   2.715  1.7221 -0.6669 -0.4990
 8468SOL    HW227273   4.366   6.524   2.605  1.2892  0.3573  0.5309
 8469SOL     OW27274   6.591   2.347   3.095 -0.2473  0.1680  0.6130
 8469SOL    HW127275   6.518   2.409   3.092  1.0084  1.7323  0.8430
 8469SOL    HW227276   6.622   2.350   3.185 -1.3610 -2.3463  1.1781
 8470SOL     OW27277   7.270   7.215   0.745 -0.4102 -0.6697 -0.0090
 8470SOL    HW127278   7.247   7.228   0.837  1.1381  0.7292  0.2285
 8470SOL    HW227279   7.242   7.125   0.726 -2.1169 -0.4836  1.3678
 8471SOL     OW27280   1.376   4.062   3.407  0.4292  0.6043  0.0503
 8471SOL    HW127281   1.285   4.070   3.438  0.4729  1.7006 -0.0532
 8471SOL    HW227282   1.400   4.151   3.381  0.9557  0.0357 -1.5690
 8472SOL     OW27283   4.646   2.461   6.354  0.0032  0.1600 -0.2847
 8472SOL    HW127284   4.678   2.402   6.422 -0.7338 -0.7506 -0.7004
 8472SOL    HW227285   4.557   2.483   6.381 -0.3528 -0.3325 -1.0202
 8473SOL     OW27286   7.195   8.662   0.467  0.3017 -0.1333 -0.6262
 8473SOL    HW127287   7.226   8.614   0.544 -0.7191 -0.9602 -0.7207
 8473SOL    HW227288   7.272   8.667   0.410  1.7296  2.4119  1.3182
 8474SOL     OW27289   4.514   8.301   8.461  0.1138  0.2793 -0.7022
 8474SOL    HW127290   4.486   8.261   8.378 -2.4218  2.2972 -0.9498
 8474SOL    HW227291   4.587   8.357   8.438  0.8778 -0.8559 -1.1225
 8475SOL     OW27292   5.898   3.922   2.145 -0.3829 -0.2587  0.2935
 8475SOL    HW127293   5.955   3.987   2.105 -0.0832  1.1035  2.6983
 8475SOL    HW227294   5.944   3.839   2.132  0.1332  0.2518 -1.2856
 8476SOL     OW27295   4.303   6.410   0.581 -0.6098 -0.6950 -0.7245
 8476SOL    HW127296   4.287   6.500   0.609  0.2829  0.4027 -3.4645
 8476SOL    HW227297   4.397   6.397   0.594 -0.3228 -0.4243 -2.3118
 8477SOL     OW27298   7.045   0.294   8.028 -0.0690 -0.2825 -0.4041
 8477SOL    HW127299   7.012   0.224   7.972  0.2939 -0.7706 -0.0112
 8477SOL    HW227300   6.983   0.366   8.014 -0.0755 -0.4472 -1.3048
 8478SOL     OW27301   7.259   6.739   4.817  0.2745 -0.6864  0.0597
 8478SOL    HW127302   7.185   6.751   4.757  0.3762 -1.3456 -0.2124
 8478SOL    HW227303   7.249   6.809   4.881 -0.4700 -0.6393 -0.0925
 8479SOL     OW27304   0.401   4.603   2.610 -0.1646 -0.5327  0.2536
 8479SOL    HW127305   0.395   4.619   2.516 -1.9334  0.0503  0.4275
 8479SOL    HW227306   0.444   4.518   2.617  1.1285 -0.0288 -1.0149
 8480SOL     OW27307   5.798   1.187   4.947  0.0477 -0.5887  0.6864
 8480SOL    HW127308   5.784   1.150   4.860  0.9549 -0.1355  0.3431
 8480SOL    HW227309   5.711   1.216   4.975 -0.4544 -1.7565  0.4134
 8481SOL     OW27310   5.937   1.855   8.375  0.1384 -0.2774 -0.6693
 8481SOL    HW127311   6.016   1.909   8.375 -0.1391  0.1378  0.0569
 8481SOL    HW227312   5.918   1.840   8.282  1.2732 -0.6907 -0.8508
 8482SOL     OW27313   1.099   6.316   6.047  0.1399 -0.1981  0.2148
 8482SOL    HW127314   1.044   6.387   6.080  0.0742  0.5722 -1.4347
 8482SOL    HW227315   1.042   6.239   6.051 -0.5937  0.3093 -0.1256
 8483SOL     OW27316   6.319   1.733   8.410  0.0462  0.6189 -0.1192
 8483SOL    HW127317   6.308   1.827   8.421 -1.5385  0.5117 -0.5033
 8483SOL    HW227318   6.350   1.722   8.321 -0.4347  0.7570 -0.3090
 8484SOL     OW27319   2.039   2.089   0.875 -0.1109 -0.3587 -0.2222
 8484SOL    HW127320   2.036   2.034   0.797  1.6517  0.5667 -0.9984
 8484SOL    HW227321   1.987   2.167   0.852  0.7346  0.0944 -0.6601
 8485SOL     OW27322   7.376   8.239   6.663  0.5303  0.0491  0.0530
 8485SOL    HW127323   7.471   8.240   6.679  0.6624 -1.7235 -0.3586
 8485SOL    HW227324   7.338   8.217   6.748  0.5367  0.0766  0.0632
 8486SOL     OW27325   7.048   6.065   5.158  0.0152 -0.1931  0.4254
 8486SOL    HW127326   7.063   6.108   5.242  0.4729  1.7782 -0.6241
 8486SOL    HW227327   7.114   5.995   5.155  1.4480  1.0968  0.7990
 8487SOL     OW27328   3.680   1.926   8.041 -0.6177 -0.3956 -0.1112
 8487SOL    HW127329   3.637   1.856   8.090  1.5723 -1.4946  0.3278
 8487SOL    HW227330   3.764   1.890   8.015 -0.2793  1.3862 -1.6869
 8488SOL     OW27331   5.198   0.109   8.875 -0.0174 -0.1441 -0.1938
 8488SOL    HW127332   5.238   0.165   8.809 -1.0260 -0.4036 -1.0584
 8488SOL    HW227333   5.271   0.066   8.919  0.6776 -1.1227 -2.1797
 8489SOL     OW27334   2.973   5.338   3.079  0.1250  0.2141  0.0334
 8489SOL    HW127335   3.016   5.419   3.106 -0.2203 -0.2301  2.0572
 8489SOL    HW227336   2.967   5.285   3.159 -3.3568 -0.1176 -0.2787
 8490SOL     OW27337   3.306   7.408   0.886 -0.4545  0.4873 -0.4432
 8490SOL    HW127338   3.320   7.370   0.799 -0.2710  0.3116 -0.3371
 8490SOL    HW227339   3.271   7.496   0.868  0.2683  0.7280 -0.7106
 8491SOL     OW27340   0.593   2.439   2.964  0.1898  0.2648 -0.0410
 8491SOL    HW127341   0.559   2.474   3.046 -1.0221 -2.6679  0.8593
 8491SOL    HW227342   0.682   2.473   2.959 -0.4893  2.4214  1.2442
 8492SOL     OW27343   6.961   3.757   6.824 -0.0435  0.1739 -0.0749
 8492SOL    HW127344   6.935   3.673   6.787  1.1781 -0.6241  0.7994
 8492SOL    HW227345   7.044   3.778   6.782 -0.2237  0.8375 -0.1134
 8493SOL     OW27346   4.135   0.929   6.655 -0.4466 -0.6203  0.0026
 8493SOL    HW127347   4.171   0.989   6.590 -2.6531 -2.1263 -2.8309
 8493SOL    HW227348   4.190   0.851   6.650 -1.3436 -1.2183 -1.0815
 8494SOL     OW27349   7.628   6.613   2.211  0.1272  0.7248 -0.8764
 8494SOL    HW127350   7.621   6.563   2.293  1.0927  0.6171 -0.8507
 8494SOL    HW227351   7.713   6.589   2.176 -0.8177 -0.2699 -2.6050
 8495SOL     OW27352   1.149   7.366   8.105  0.1618 -0.3856 -0.0738
 8495SOL    HW127353   1.142   7.457   8.077  0.9951 -0.3470 -0.1766
 8495SOL    HW227354   1.060   7.331   8.096 -0.1944  0.4541  0.1108
 8496SOL     OW27355   5.778   5.510   0.297  0.6546  0.2754 -0.2838
 8496SOL    HW127356   5.776   5.570   0.223 -1.8080  0.1453 -0.3849
 8496SOL    HW227357   5.731   5.433   0.267 -0.0371  0.0616  1.2525
 8497SOL     OW27358   3.848   5.674   2.812 -0.0373 -0.1108 -0.2417
 8497SOL    HW127359   3.820   5.762   2.835 -1.2726 -0.2637 -1.0413
 8497SOL    HW227360   3.940   5.683   2.787 -0.2459  1.0179 -0.6501
 8498SOL     OW27361   3.146   8.410   8.528  0.5275  0.1534  0.4999
 8498SOL    HW127362   3.088   8.481   8.555 -0.5347 -0.7518  0.6676
 8498SOL    HW227363   3.097   8.330   8.547  2.5021 -0.7312  2.2385
 8499SOL     OW27364   7.407   5.663   8.114 -0.0254 -0.4740  0.2435
 8499SOL    HW127365   7.354   5.726   8.162  1.1976  1.1068 -0.3667
 8499SOL    HW227366   7.345   5.616   8.059 -1.1203 -0.6306  1.5629
 8500SOL     OW27367   4.989   7.911   5.911  0.4609  0.5804  0.2794
 8500SOL    HW127368   4.909   7.934   5.958 -0.0218  0.8981 -0.6718
 8500SOL    HW227369   5.053   7.976   5.940 -0.0533  1.2646 -0.0912
 8501SOL     OW27370   7.946   0.973   1.371 -0.1869 -0.1239  0.1345
 8501SOL    HW127371   8.028   0.970   1.321  0.5362  0.0841  1.2601
 8501SOL    HW227372   7.881   1.005   1.310  0.4179 -0.9934 -1.0011
 8502SOL     OW27373   6.495   4.294   0.137 -0.1805  0.6156  0.0558
 8502SOL    HW127374   6.573   4.349   0.128  0.8286 -0.9668 -1.3706
 8502SOL    HW227375   6.466   4.280   0.047 -1.2841  0.0225  0.4974
 8503SOL     OW27376   7.738   5.668   7.388 -0.0988  0.0844  0.8357
 8503SOL    HW127377   7.798   5.742   7.396  0.4508 -0.1452 -0.7869
 8503SOL    HW227378   7.785   5.605   7.332 -1.9080 -0.0205 -0.6402
 8504SOL     OW27379   6.628   1.587   5.087 -0.0489  0.5735  0.3902
 8504SOL    HW127380   6.547   1.565   5.132  1.0592 -0.4988  2.0046
 8504SOL    HW227381   6.641   1.680   5.104 -2.4193  1.5835 -2.5222
 8505SOL     OW27382   5.321   1.659   6.372  0.2463  0.3952 -0.3259
 8505SOL    HW127383   5.304   1.640   6.464 -0.3916 -0.5476 -0.6251
 8505SOL    HW227384   5.257   1.606   6.324  1.8300 -0.6754 -1.3723
 8506SOL     OW27385   6.612   3.927   1.474  0.1521  0.0182  0.0351
 8506SOL    HW127386   6.698   3.943   1.513  0.2742  2.2666 -1.0197
 8506SOL    HW227387   6.621   3.842   1.432  2.0570  0.4433 -0.5184
 8507SOL     OW27388   4.083   1.102   2.309 -0.0883 -0.4056 -0.5887
 8507SOL    HW127389   4.005   1.060   2.344  1.0506 -1.2475  1.0845
 8507SOL    HW227390   4.153   1.038   2.323  1.3938  1.3293  0.3940
 8508SOL     OW27391   8.454   7.871   4.048  0.1708  0.0188 -0.2325
 8508SOL    HW127392   8.404   7.883   3.968 -0.8417  2.9553  0.6858
 8508SOL    HW227393   8.395   7.901   4.118  2.0367  0.4506  1.2444
 8509SOL     OW27394   6.737   2.627   2.712  0.0597 -0.2780 -0.6127
 8509SOL    HW127395   6.821   2.582   2.721  0.3184  0.2204 -0.5412
 8509SOL    HW227396   6.679   2.561   2.675  0.3227 -0.8136 -0.0999
 8510SOL     OW27397   5.015   5.713   4.465  0.5958  0.0826  0.2788
 8510SOL    HW127398   5.076   5.746   4.400  0.0863 -0.8268 -0.6881
 8510SOL    HW227399   5.029   5.619   4.466 -0.4926 -0.0897  0.3489
 8511SOL     OW27400   8.814   6.210   7.683 -0.0182 -0.3873  0.5399
 8511SOL    HW127401   8.729   6.171   7.705 -0.4399 -0.6665 -1.4473
 8511SOL    HW227402   8.803   6.303   7.703 -0.5357 -0.5423  1.0184
 8512SOL     OW27403   1.498   5.022   1.242 -0.3868 -0.1689 -0.1997
 8512SOL    HW127404   1.429   5.018   1.175 -0.8878  0.2944  0.2737
 8512SOL    HW227405   1.576   4.991   1.198 -0.9523 -0.9481 -0.6827
 8513SOL     OW27406   6.218   2.703   6.089 -0.1576 -0.1301  0.3276
 8513SOL    HW127407   6.297   2.752   6.112  0.3883 -1.7479  2.2624
 8513SOL    HW227408   6.155   2.727   6.158 -0.3991 -0.9205  0.3892
 8514SOL     OW27409   0.949   5.540   6.801  0.4256  0.2720  0.8416
 8514SOL    HW127410   0.918   5.616   6.849  1.0924  0.5395  0.8669
 8514SOL    HW227411   0.882   5.524   6.734 -0.9538 -0.6426  2.3655
 8515SOL     OW27412   2.116   8.352   7.752  0.0408  0.0185 -0.1301
 8515SOL    HW127413   2.169   8.309   7.818 -0.7506 -0.8989 -0.0737
 8515SOL    HW227414   2.103   8.441   7.786  2.7093  0.7713 -0.8313
 8516SOL     OW27415   3.818   2.177   3.987  0.3307 -0.8763 -0.3658
 8516SOL    HW127416   3.872   2.185   3.908 -1.2480  1.1831 -1.3263
 8516SOL    HW227417   3.820   2.264   4.026 -0.9014 -1.2164  0.5124
 8517SOL     OW27418   4.631   6.152   0.924  0.5272  0.5738 -0.0700
 8517SOL    HW127419   4.581   6.080   0.962  0.5066  0.8388  0.4061
 8517SOL    HW227420   4.651   6.209   0.998  0.3299  1.1882 -0.4869
 8518SOL     OW27421   0.530   0.064   7.666 -0.2786 -0.3064 -0.7065
 8518SOL    HW127422   0.475   0.092   7.740  1.3038 -0.2739  0.5227
 8518SOL    HW227423   0.536   0.141   7.610 -0.9174 -0.1061 -0.5184
 8519SOL     OW27424   0.199   4.293   2.502 -0.3057 -0.5192 -0.1341
 8519SOL    HW127425   0.254   4.334   2.436  0.0613 -1.2095 -0.2701
 8519SOL    HW227426   0.230   4.330   2.585  1.5277 -2.0766 -0.0302
 8520SOL     OW27427   3.137   5.093   4.814 -0.5931  0.4834  0.5823
 8520SOL    HW127428   3.134   5.002   4.844  0.2283  0.7277  1.4577
 8520SOL    HW227429   3.078   5.140   4.874 -1.4391  0.4490 -0.2050
 8521SOL     OW27430   2.910   5.183   3.494  0.1256 -0.7633 -0.1364
 8521SOL    HW127431   2.895   5.274   3.521  1.4703 -0.3577 -0.6920
 8521SOL    HW227432   2.828   5.138   3.515 -0.8755  0.7591 -0.6062
 8522SOL     OW27433   8.667   1.662   7.023 -0.1475 -0.1208  0.9796
 8522SOL    HW127434   8.650   1.569   7.037 -0.0360 -0.4273 -0.7197
 8522SOL    HW227435   8.614   1.685   6.947 -1.8339  1.7634  2.6330
 8523SOL     OW27436   3.094   1.938   5.670  0.1619 -0.1415 -0.2437
 8523SOL    HW127437   3.134   1.851   5.670 -0.5657 -0.4899 -0.6853
 8523SOL    HW227438   3.144   1.988   5.605  0.9804 -0.0318  0.4593
 8524SOL     OW27439   4.219   1.700   1.714 -0.1871 -0.5535 -0.3966
 8524SOL    HW127440   4.248   1.791   1.722  0.0635 -0.7189  0.8332
 8524SOL    HW227441   4.259   1.669   1.633  0.9647 -0.0005 -0.0707
 8525SOL     OW27442   7.646   5.265   6.254 -0.5861  0.6458 -0.6133
 8525SOL    HW127443   7.565   5.229   6.291 -0.7038  1.2308 -0.2845
 8525SOL    HW227444   7.693   5.189   6.221  1.2182 -0.5298  3.8936
 8526SOL     OW27445   3.731   2.997   8.031  0.7269  0.3465 -0.2558
 8526SOL    HW127446   3.770   3.079   8.063  1.7218 -0.1660 -0.1248
 8526SOL    HW227447   3.748   2.934   8.101 -0.6906  0.1757 -0.0186
 8527SOL     OW27448   3.877   4.956   4.845  0.1554 -0.1314  0.1374
 8527SOL    HW127449   3.828   5.027   4.802 -1.1935 -0.0039  1.7582
 8527SOL    HW227450   3.963   4.958   4.804 -0.0894  1.9502 -0.4057
 8528SOL     OW27451   7.814   8.165   4.480 -1.2420 -0.2679 -0.3427
 8528SOL    HW127452   7.765   8.220   4.541  0.1170 -1.6717  2.2381
 8528SOL    HW227453   7.895   8.143   4.528  0.4495 -0.6166 -3.1169
 8529SOL     OW27454   5.600   5.315   0.536  0.7121  0.1536  0.1461
 8529SOL    HW127455   5.692   5.311   0.511  1.0063 -0.7495  1.2804
 8529SOL    HW227456   5.573   5.223   0.543 -0.1017  0.4065  0.4419
 8530SOL     OW27457   4.519   7.111   1.524 -0.4546  0.0880  0.5637
 8530SOL    HW127458   4.439   7.160   1.507 -0.1176  0.2105 -0.8322
 8530SOL    HW227459   4.582   7.177   1.554 -0.7115  0.0847  1.1158
 8531SOL     OW27460   2.347   7.095   7.333 -0.4929 -0.2266 -0.4275
 8531SOL    HW127461   2.360   7.130   7.245  0.6585  0.6369  0.0633
 8531SOL    HW227462   2.292   7.160   7.377 -0.1067 -0.0835 -0.1550
 8532SOL     OW27463   2.822   0.776   0.541  0.0899 -0.2630 -0.0131
 8532SOL    HW127464   2.858   0.708   0.599  0.3284 -0.5051 -0.4437
 8532SOL    HW227465   2.747   0.734   0.499  0.0638 -0.1639 -0.0655
 8533SOL     OW27466   7.121   4.991   1.954 -0.4833 -0.6118 -0.3551
 8533SOL    HW127467   7.092   5.069   1.908  0.5301 -1.3496 -2.3392
 8533SOL    HW227468   7.195   5.021   2.007 -0.0856 -0.2071 -1.1202
 8534SOL     OW27469   3.487   3.807   5.256 -0.4372 -0.6324  0.1941
 8534SOL    HW127470   3.527   3.878   5.306 -0.5079 -0.3174 -0.1914
 8534SOL    HW227471   3.475   3.736   5.319  0.7395 -0.7407  0.3205
 8535SOL     OW27472   1.372   0.898   6.815 -0.1533  0.5395  0.1669
 8535SOL    HW127473   1.370   0.818   6.868  0.4506 -0.1009 -0.7273
 8535SOL    HW227474   1.289   0.898   6.768 -1.1939  1.7004  1.8845
 8536SOL     OW27475   8.018   5.831   7.244  0.0153 -0.1913  0.1377
 8536SOL    HW127476   8.076   5.891   7.196  0.7512 -1.5851 -0.7711
 8536SOL    HW227477   7.988   5.882   7.319  1.3808  0.9947 -0.0864
 8537SOL     OW27478   8.609   2.904   1.268  0.4506 -0.2305 -0.5849
 8537SOL    HW127479   8.549   2.829   1.264 -2.8803  2.1103  0.5951
 8537SOL    HW227480   8.665   2.887   1.343 -1.4572 -0.8237  0.7773
 8538SOL     OW27481   4.872   5.781   3.022  0.0472 -0.2843 -0.2898
 8538SOL    HW127482   4.875   5.749   2.932  1.4989 -0.8889 -0.0446
 8538SOL    HW227483   4.782   5.813   3.032 -0.7510 -1.9991 -1.3405
 8539SOL     OW27484   0.750   1.429   7.292 -0.4127 -0.0954  0.3048
 8539SOL    HW127485   0.779   1.338   7.279  0.6364  0.3196 -0.4701
 8539SOL    HW227486   0.803   1.460   7.366 -0.4128  0.0354  0.2490
 8540SOL     OW27487   0.178   3.679   3.623  0.1210  0.4487  0.5335
 8540SOL    HW127488   0.096   3.650   3.664  0.1902 -1.2621 -0.4272
 8540SOL    HW227489   0.236   3.604   3.632  0.4645  0.3794 -1.7345
 8541SOL     OW27490   5.244   3.916   8.571 -0.1647 -0.9254 -0.0948
 8541SOL    HW127491   5.279   4.003   8.552 -0.0546 -1.2461 -1.5428
 8541SOL    HW227492   5.149   3.926   8.566 -0.1849 -0.7152  0.6278
 8542SOL     OW27493   7.389   1.267   8.936  0.2921  0.4242 -0.0265
 8542SOL    HW127494   7.396   1.195   8.873  1.1457  0.6975 -0.2539
 8542SOL    HW227495   7.343   1.228   9.011 -0.5462  0.0417 -0.7247
 8543SOL     OW27496   1.251   7.470   2.139 -0.2018  0.0104 -0.4500
 8543SOL    HW127497   1.220   7.534   2.075  0.1247  1.7427  1.0226
 8543SOL    HW227498   1.346   7.476   2.135 -0.1161 -1.4725 -1.2935
 8544SOL     OW27499   6.544   1.385   8.916  0.4599  0.4289 -0.2874
 8544SOL    HW127500   6.536   1.463   8.861  0.3823 -0.0825 -1.0291
 8544SOL    HW227501   6.482   1.322   8.878  1.0755 -0.2559 -0.1957
 8545SOL     OW27502   4.977   4.233   2.573 -0.3300 -0.5320  0.6105
 8545SOL    HW127503   4.962   4.314   2.621 -1.5585 -0.9301  0.9650
 8545SOL    HW227504   4.995   4.168   2.642  0.5990 -0.5658  0.3346
 8546SOL     OW27505   4.527   4.214   8.011 -0.4820  0.1084  0.4112
 8546SOL    HW127506   4.519   4.153   8.085 -0.5662  0.7952  0.9728
 8546SOL    HW227507   4.438   4.248   7.999 -0.3249  0.5347  0.4601
 8547SOL     OW27508   2.516   5.380   1.791  0.4372 -0.1955  0.2362
 8547SOL    HW127509   2.433   5.333   1.788  1.8431 -2.9503  0.8211
 8547SOL    HW227510   2.556   5.363   1.706 -0.3409  2.8086 -0.8460
 8548SOL     OW27511   8.548   4.647   1.057  0.5269 -0.4914  0.0755
 8548SOL    HW127512   8.524   4.569   1.007 -1.6988  0.1583  0.0132
 8548SOL    HW227513   8.480   4.654   1.124 -1.8346  3.4965 -2.3034
 8549SOL     OW27514   5.555   6.352   8.222  0.1522  0.3784 -0.0457
 8549SOL    HW127515   5.553   6.306   8.138  0.5535 -0.7158  0.5119
 8549SOL    HW227516   5.633   6.406   8.218  0.4101 -0.0018 -0.2162
 8550SOL     OW27517   0.891   6.743   7.889  0.0195  0.2743 -0.1404
 8550SOL    HW127518   0.969   6.780   7.929 -0.7263  2.1962 -0.3640
 8550SOL    HW227519   0.906   6.649   7.888  1.6791  0.5012  1.1601
 8551SOL     OW27520   8.547   3.408   8.240 -0.3633  0.3107 -0.2845
 8551SOL    HW127521   8.571   3.465   8.167  2.8526 -0.8389 -0.3186
 8551SOL    HW227522   8.626   3.355   8.255 -2.3491 -2.4416  1.2918
 8552SOL     OW27523   1.895   6.402   0.412 -0.7266 -0.7453  0.0080
 8552SOL    HW127524   1.935   6.333   0.359  0.7940 -0.2212  0.4250
 8552SOL    HW227525   1.805   6.373   0.425 -0.5685 -1.8547 -1.1758
 8553SOL     OW27526   0.337   0.204   5.588  0.1488  0.3196 -0.2039
 8553SOL    HW127527   0.291   0.174   5.666 -0.1988 -2.2818 -1.3159
 8553SOL    HW227528   0.270   0.248   5.536 -0.6820 -1.6470 -0.8815
 8554SOL     OW27529   1.119   4.781   6.394 -0.5183 -0.2402 -0.1429
 8554SOL    HW127530   1.054   4.817   6.335 -1.3415 -1.7139 -0.1986
 8554SOL    HW227531   1.203   4.798   6.352 -0.8820  1.1790 -0.3483
 8555SOL     OW27532   7.194   7.481   4.001 -0.3601  0.1234  0.2629
 8555SOL    HW127533   7.225   7.531   3.926 -2.9981  0.4962 -0.6767
 8555SOL    HW227534   7.127   7.536   4.041 -0.9712 -1.2422  1.2247
 8556SOL     OW27535   5.018   8.203   2.969  0.1316 -0.4234 -0.3455
 8556SOL    HW127536   4.982   8.241   3.049  0.2363 -2.3274  0.6599
 8556SOL    HW227537   4.972   8.249   2.899 -0.8606  0.4390  0.8171
 8557SOL     OW27538   4.909   1.078   5.449  0.1551 -0.6114  0.0765
 8557SOL    HW127539   4.845   1.011   5.425  0.2380 -0.2182 -1.3321
 8557SOL    HW227540   4.856   1.151   5.481  0.0899 -1.5215  2.1974
 8558SOL     OW27541   3.914   3.186   6.922  0.0137  0.4195  0.1172
 8558SOL    HW127542   3.832   3.178   6.971 -0.1623  1.8957  0.1072
 8558SOL    HW227543   3.962   3.106   6.943 -1.0460 -0.0599  0.8344
 8559SOL     OW27544   5.632   1.835   4.774 -0.1714 -0.1636  0.2170
 8559SOL    HW127545   5.647   1.883   4.856 -0.4652 -1.4213  1.0286
 8559SOL    HW227546   5.718   1.832   4.732  0.0575  0.1640  0.6491
 8560SOL     OW27547   7.671   5.738   1.944 -0.5629 -0.0070  0.0910
 8560SOL    HW127548   7.586   5.721   1.905 -1.1780  0.3140  1.2548
 8560SOL    HW227549   7.652   5.789   2.023  0.8006  1.1740 -0.3002
 8561SOL     OW27550   6.907   7.008   4.517 -0.1207 -0.3031 -0.5178
 8561SOL    HW127551   6.832   7.026   4.575 -1.0121 -0.5428 -1.5638
 8561SOL    HW227552   6.947   7.093   4.502  0.5498 -0.3112  0.9728
 8562SOL     OW27553   4.303   2.883   8.640 -0.0801 -0.0672 -0.1956
 8562SOL    HW127554   4.264   2.967   8.615  0.7258  0.1014 -0.9355
 8562SOL    HW227555   4.237   2.818   8.616  0.3028  0.1638 -1.9951
 8563SOL     OW27556   0.134   1.181   1.237 -0.0405 -0.0530 -0.5355
 8563SOL    HW127557   0.180   1.216   1.313 -1.4648  0.8442 -0.0591
 8563SOL    HW227558   0.182   1.216   1.162  0.8639 -0.2542 -0.0727
 8564SOL     OW27559   1.066   3.840   0.963  0.0005  0.4698 -0.7999
 8564SOL    HW127560   1.068   3.757   1.009  1.3561 -0.3191 -2.1938
 8564SOL    HW227561   1.143   3.838   0.905  0.0355  2.6486 -0.9340
 8565SOL     OW27562   1.084   6.220   6.687  0.1454  0.1240  0.0287
 8565SOL    HW127563   1.129   6.234   6.770  0.2696  0.2742 -0.0628
 8565SOL    HW227564   1.026   6.146   6.703  0.8952 -0.4991 -0.0359
 8566SOL     OW27565   8.576   2.825   5.396 -0.0307 -0.2829 -0.5886
 8566SOL    HW127566   8.562   2.792   5.485  1.7152 -0.6288 -0.4108
 8566SOL    HW227567   8.498   2.878   5.378 -0.9875 -1.1870  0.6720
 8567SOL     OW27568   1.500   4.446   6.083  0.7898  0.1830  0.1615
 8567SOL    HW127569   1.440   4.464   6.156  0.7463 -1.9983  0.7125
 8567SOL    HW227570   1.480   4.357   6.057  3.8340 -0.6875  0.4066
 8568SOL     OW27571   5.017   0.563   2.540 -0.1630  0.3594 -0.0226
 8568SOL    HW127572   4.925   0.587   2.552  0.1799  2.2771 -0.8652
 8568SOL    HW227573   5.014   0.487   2.481 -1.1793  1.8757 -2.0553
 8569SOL     OW27574   3.986   7.659   3.464  0.0443 -0.4306 -0.3706
 8569SOL    HW127575   4.013   7.747   3.489  1.7176 -1.0836  0.2871
 8569SOL    HW227576   3.939   7.626   3.541  2.3907 -1.2904  0.7610
 8570SOL     OW27577   7.826   2.225   1.776 -0.0317  0.3051 -0.4255
 8570SOL    HW127578   7.733   2.236   1.791  0.0658  0.0025  0.3980
 8570SOL    HW227579   7.867   2.243   1.860  0.6340  0.1723 -0.7131
 8571SOL     OW27580   3.019   6.750   7.369  0.2549  0.0281  0.0523
 8571SOL    HW127581   2.936   6.718   7.332 -0.3962  0.3583  1.1822
 8571SOL    HW227582   3.060   6.672   7.408  0.2123 -0.0337 -0.0268
 8572SOL     OW27583   5.721   7.068   6.983 -0.0441 -0.3126 -0.2011
 8572SOL    HW127584   5.691   7.034   7.067  0.7225  1.9195  1.0651
 8572SOL    HW227585   5.789   7.006   6.955  0.6549 -0.3678  1.5201
 8573SOL     OW27586   1.289   5.238   3.470 -0.0671 -0.6739  0.4343
 8573SOL    HW127587   1.248   5.263   3.388 -0.5945 -1.4487  0.4485
 8573SOL    HW227588   1.240   5.160   3.499 -2.3778  1.6008  3.3330
 8574SOL     OW27589   2.229   8.587   3.100  0.3084  0.0275  0.3769
 8574SOL    HW127590   2.315   8.558   3.131  0.8234  0.5509 -0.5203
 8574SOL    HW227591   2.168   8.524   3.137  1.0578 -0.2466  1.1855
 8575SOL     OW27592   8.915   4.075   2.989 -0.8113  0.4647  0.2156
 8575SOL    HW127593   8.932   4.151   2.933 -1.7807  0.8477  0.4124
 8575SOL    HW227594   8.987   4.075   3.053  1.0349 -0.7113 -1.7255
 8576SOL     OW27595   0.092   1.951   7.009  0.2496  0.1644  0.6216
 8576SOL    HW127596   0.016   2.003   6.984  0.2309 -0.1777 -0.0640
 8576SOL    HW227597   0.088   1.947   7.104  0.0433  1.0923  0.6643
 8577SOL     OW27598   7.877   1.519   6.951 -0.1502  0.1842 -0.3606
 8577SOL    HW127599   7.858   1.427   6.935 -0.9846  0.2509  0.1548
 8577SOL    HW227600   7.815   1.567   6.896 -0.1371  0.4306 -0.1643
 8578SOL     OW27601   6.394   3.701   7.461 -0.7793  0.3468 -0.1006
 8578SOL    HW127602   6.365   3.789   7.437 -1.2886 -0.0097 -0.8255
 8578SOL    HW227603   6.412   3.706   7.555 -1.9458  0.9138  0.1038
 8579SOL     OW27604   0.346   6.960   4.157 -0.4072  0.4996 -0.1664
 8579SOL    HW127605   0.414   7.016   4.193 -0.1156  1.3602 -1.9348
 8579SOL    HW227606   0.264   7.008   4.172 -0.3797  0.5024 -0.0236
 8580SOL     OW27607   5.476   0.371   2.789  0.4654 -0.3044 -0.5901
 8580SOL    HW127608   5.553   0.373   2.733  1.1138  1.4318  0.2805
 8580SOL    HW227609   5.407   0.410   2.736  1.3670  2.4795  0.1193
 8581SOL     OW27610   1.586   5.623   1.367  0.3663 -0.0238 -0.2956
 8581SOL    HW127611   1.617   5.614   1.457  0.3021 -1.4682 -0.3903
 8581SOL    HW227612   1.554   5.713   1.361  0.0650 -0.0062  1.2242
 8582SOL     OW27613   7.340   7.199   6.230  0.4287 -0.6233  0.0834
 8582SOL    HW127614   7.298   7.238   6.307  2.0824 -1.4881  1.4906
 8582SOL    HW227615   7.432   7.225   6.238  0.6029 -0.5597 -1.7397
 8583SOL     OW27616   5.872   1.386   7.452  0.1843 -0.4115  0.3860
 8583SOL    HW127617   5.794   1.359   7.501  0.1827 -1.1619 -0.0235
 8583SOL    HW227618   5.854   1.477   7.427 -0.4963 -0.5332  0.4220
 8584SOL     OW27619   3.064   3.040   1.379 -0.8912  0.1742 -0.1425
 8584SOL    HW127620   3.144   3.061   1.427 -1.3874 -1.9524  1.8172
 8584SOL    HW227621   3.033   3.124   1.346 -0.8734  2.0561  3.9717
 8585SOL     OW27622   8.276   7.104   0.751  0.4374  0.3140  0.2453
 8585SOL    HW127623   8.208   7.166   0.778 -0.1924 -0.3259  0.1306
 8585SOL    HW227624   8.264   7.095   0.656  0.1509 -0.4320  0.3505
 8586SOL     OW27625   1.695   6.738   4.790  0.3910 -0.9704 -0.3994
 8586SOL    HW127626   1.622   6.774   4.739 -1.1170 -0.3305  2.0821
 8586SOL    HW227627   1.752   6.812   4.806 -0.2461 -0.6951  0.6413
 8587SOL     OW27628   3.789   1.851   0.095 -0.6313  1.0729 -0.5544
 8587SOL    HW127629   3.883   1.839   0.085 -0.7153  0.1752 -0.3616
 8587SOL    HW227630   3.780   1.931   0.148 -0.0026  1.5000 -1.0831
 8588SOL     OW27631   1.726   5.200   2.482 -0.1854  0.1461  0.4962
 8588SOL    HW127632   1.710   5.207   2.576  0.1572  1.0690  0.4969
 8588SOL    HW227633   1.665   5.262   2.442 -1.0125 -0.9271  0.0188
 8589SOL     OW27634   6.926   3.937   5.818  0.0740 -0.6942  0.2576
 8589SOL    HW127635   6.902   3.913   5.908 -0.0245 -1.6026 -0.0115
 8589SOL    HW227636   7.007   3.988   5.828 -1.0471  1.0435  1.0401
 8590SOL     OW27637   3.460   2.840   1.475 -0.0101 -0.1539  0.6521
 8590SOL    HW127638   3.496   2.836   1.563 -0.8155 -4.2538  0.9618
 8590SOL    HW227639   3.365   2.845   1.487 -0.0611  1.0575 -0.0519
 8591SOL     OW27640   4.533   5.483   2.865 -0.0239  0.2528 -0.6066
 8591SOL    HW127641   4.593   5.420   2.826  1.0710  0.3323  0.8959
 8591SOL    HW227642   4.448   5.440   2.861  0.2520 -0.2445 -1.9157
 8592SOL     OW27643   0.630   0.202   1.689  0.1632 -0.0621 -0.1155
 8592SOL    HW127644   0.554   0.243   1.728  0.1216  0.3729 -0.6494
 8592SOL    HW227645   0.622   0.109   1.712 -0.1424  0.1021  0.4383
 8593SOL     OW27646   8.056   1.238   7.354 -0.0309 -0.0198 -0.3257
 8593SOL    HW127647   8.095   1.159   7.390  0.5089  0.3581 -0.0638
 8593SOL    HW227648   8.042   1.295   7.430 -0.6785  0.0241 -0.4747
 8594SOL     OW27649   5.273   6.552   4.203 -0.1538  0.8177  0.0833
 8594SOL    HW127650   5.353   6.500   4.206 -0.2491  0.6894  0.5620
 8594SOL    HW227651   5.204   6.489   4.185 -0.2165  0.8382  0.2458
 8595SOL     OW27652   2.753   7.812   3.799  0.1888 -0.0383 -0.2642
 8595SOL    HW127653   2.811   7.778   3.867  0.2305  0.2137 -0.1753
 8595SOL    HW227654   2.689   7.742   3.786 -0.2357  0.1933  0.5284
 8596SOL     OW27655   7.248   5.601   6.453 -0.7995 -0.1280 -0.2227
 8596SOL    HW127656   7.291   5.671   6.502  1.4887  0.4338 -2.7734
 8596SOL    HW227657   7.242   5.528   6.515  2.4268  0.3386  0.8646
 8597SOL     OW27658   2.207   6.101   4.456 -0.5239  0.5053  0.2687
 8597SOL    HW127659   2.120   6.091   4.495 -0.8882  0.1716 -0.6161
 8597SOL    HW227660   2.268   6.074   4.525 -1.2010 -1.0857  0.2752
 8598SOL     OW27661   4.429   2.521   1.691 -0.2990  0.7052  0.2426
 8598SOL    HW127662   4.367   2.594   1.688  0.2282  1.1199 -1.3297
 8598SOL    HW227663   4.515   2.563   1.699 -0.1448  0.1471  1.9974
 8599SOL     OW27664   6.076   7.609   8.509  0.3349  0.1505  0.8148
 8599SOL    HW127665   6.102   7.636   8.597  0.6727  0.0915  0.7326
 8599SOL    HW227666   6.075   7.690   8.458  0.1526  0.1824  0.8672
 8600SOL     OW27667   1.655   6.408   4.561  0.4820 -0.0277  0.1184
 8600SOL    HW127668   1.622   6.440   4.645  0.7312 -0.5526  0.4198
 8600SOL    HW227669   1.694   6.323   4.582 -1.5363 -1.2624 -0.9276
 8601SOL     OW27670   1.795   1.494   3.080 -0.1642 -0.2959 -0.2718
 8601SOL    HW127671   1.853   1.432   3.036  1.6254  1.5119 -0.5963
 8601SOL    HW227672   1.835   1.580   3.064 -1.3782  0.7577  1.9344
 8602SOL     OW27673   8.804   1.559   0.812 -0.4655  0.0799 -0.3127
 8602SOL    HW127674   8.732   1.559   0.749 -0.1828  0.8949 -0.6591
 8602SOL    HW227675   8.882   1.573   0.759 -0.2804  1.3965  0.2513
 8603SOL     OW27676   3.954   4.211   1.787 -0.0325 -0.0646 -0.5236
 8603SOL    HW127677   4.039   4.201   1.829  0.1446  0.6585 -0.6956
 8603SOL    HW227678   3.892   4.175   1.850  0.2362  0.9589  0.3638
 8604SOL     OW27679   1.246   3.328   1.530 -0.3187 -0.2498  0.1925
 8604SOL    HW127680   1.220   3.237   1.539  0.4999 -0.4762  0.3688
 8604SOL    HW227681   1.334   3.324   1.491 -0.6339  0.4901 -0.6338
 8605SOL     OW27682   8.217   8.847   7.573 -1.1829  0.5148 -0.5891
 8605SOL    HW127683   8.214   8.894   7.656 -1.2087  0.7874 -0.7402
 8605SOL    HW227684   8.300   8.874   7.533 -0.8995 -0.0596 -0.4002
 8606SOL     OW27685   2.902   7.904   5.157 -0.3834  0.9551  0.1235
 8606SOL    HW127686   2.813   7.935   5.172 -0.6113  0.5514 -0.3338
 8606SOL    HW227687   2.946   7.977   5.112 -0.7925  0.7816 -0.5797
 8607SOL     OW27688   7.168   7.333   2.630  0.6477  0.4066  0.2366
 8607SOL    HW127689   7.130   7.298   2.710  2.5846  0.2809  1.1553
 8607SOL    HW227690   7.243   7.385   2.659  0.0664  2.2736 -1.3554
 8608SOL     OW27691   4.908   7.853   7.990  0.2196  0.0169  0.0231
 8608SOL    HW127692   4.813   7.862   7.985 -0.4977 -4.7011  0.1859
 8608SOL    HW227693   4.935   7.912   8.061 -2.7378  0.6435  0.7362
 8609SOL     OW27694   0.060   3.427   3.975 -0.4792  0.0519 -0.3962
 8609SOL    HW127695   0.147   3.421   4.014 -0.9692  0.7810  0.8896
 8609SOL    HW227696   0.002   3.443   4.050 -1.5159  1.1675 -1.4062
 8610SOL     OW27697   8.313   6.559   1.683 -0.2540 -0.0395  0.0661
 8610SOL    HW127698   8.403   6.529   1.676 -0.4011 -0.2117 -1.2777
 8610SOL    HW227699   8.268   6.520   1.608 -0.8904  1.9556 -0.6772
 8611SOL     OW27700   6.200   7.291   8.856  0.0440  0.2634  0.0221
 8611SOL    HW127701   6.108   7.289   8.884  0.1851  0.7576  0.5512
 8611SOL    HW227702   6.249   7.293   8.938  0.5317 -0.0150 -0.2595
 8612SOL     OW27703   0.638   8.696   6.469  0.3270  0.5487 -0.2678
 8612SOL    HW127704   0.644   8.782   6.512  1.1967  0.2652  0.2026
 8612SOL    HW227705   0.659   8.634   6.538  0.4779  0.0022 -0.8039
 8613SOL     OW27706   8.480   8.775   0.571 -0.1223 -0.0120  0.0867
 8613SOL    HW127707   8.478   8.867   0.598 -0.0915  0.3054 -0.9609
 8613SOL    HW227708   8.503   8.728   0.651 -3.1021  0.5655  1.3921
 8614SOL     OW27709   5.054   7.836   7.327  0.7652 -0.7261 -0.6981
 8614SOL    HW127710   5.000   7.802   7.255  0.6429 -1.9146 -0.0774
 8614SOL    HW227711   5.142   7.804   7.308  0.6673 -1.3394 -0.1522
 8615SOL     OW27712   8.005   3.974   6.252  0.2956  0.1422 -0.2624
 8615SOL    HW127713   8.074   3.999   6.191  0.5013 -0.9093 -0.4628
 8615SOL    HW227714   7.938   4.042   6.240  0.8985  0.6720 -0.7066
 8616SOL     OW27715   4.897   8.521   5.884 -0.0401 -0.0735 -0.5214
 8616SOL    HW127716   4.838   8.509   5.809 -0.9658  0.5451  0.0873
 8616SOL    HW227717   4.839   8.525   5.960  0.8754 -0.5058  0.2225
 8617SOL     OW27718   7.929   7.600   6.051 -0.1773 -0.4957  0.0311
 8617SOL    HW127719   7.845   7.611   6.006  0.1232 -2.2392 -1.0382
 8617SOL    HW227720   7.907   7.550   6.130 -0.2318 -0.3787  0.0904
 8618SOL     OW27721   5.218   4.712   6.110 -0.7086  0.1063  0.2500
 8618SOL    HW127722   5.304   4.735   6.076  0.6365 -1.7089  2.1869
 8618SOL    HW227723   5.186   4.644   6.050  0.5837 -1.3508  1.1338
 8619SOL     OW27724   8.683   4.840   8.097  0.4635 -0.4684  0.3550
 8619SOL    HW127725   8.760   4.875   8.140 -0.1104  1.9468 -0.4330
 8619SOL    HW227726   8.661   4.905   8.030 -1.2969 -1.8847 -0.5277
 8620SOL     OW27727   8.462   2.905   4.577  0.1912 -0.8624  0.2899
 8620SOL    HW127728   8.532   2.839   4.572  0.1771 -0.8244 -0.7083
 8620SOL    HW227729   8.482   2.955   4.656  1.5157 -0.6257 -0.1618
 8621SOL     OW27730   5.373   3.643   8.575  0.6777  0.0684 -0.1613
 8621SOL    HW127731   5.350   3.723   8.528  0.2489  0.6713  1.0389
 8621SOL    HW227732   5.317   3.575   8.537 -2.1814  1.2022  1.6715
 8622SOL     OW27733   7.039   8.320   4.851 -0.3166 -0.2877 -0.0877
 8622SOL    HW127734   6.962   8.338   4.797 -0.5047  0.4345  0.3979
 8622SOL    HW227735   7.030   8.228   4.876 -1.2337 -0.1095  0.2794
 8623SOL     OW27736   2.470   7.482   8.967 -0.6934  0.7404  0.1908
 8623SOL    HW127737   2.462   7.493   8.872  1.0436 -1.1287 -0.2373
 8623SOL    HW227738   2.387   7.443   8.994 -0.7684  0.1978 -0.7739
 8624SOL     OW27739   7.258   0.076   4.190 -0.2662 -0.0315 -0.0319
 8624SOL    HW127740   7.164   0.073   4.207 -0.3168 -0.4977 -0.3637
 8624SOL    HW227741   7.272   0.013   4.119  0.5277 -1.2452  1.1557
 8625SOL     OW27742   6.708   8.974   4.302 -0.8749 -0.0743  0.6260
 8625SOL    HW127743   6.681   8.895   4.255 -0.3198 -0.3079  0.6976
 8625SOL    HW227744   6.794   8.996   4.265 -0.6032 -0.0444  1.2640
 8626SOL     OW27745   6.773   3.471   4.738  0.3694 -0.6693  0.4038
 8626SOL    HW127746   6.838   3.533   4.771 -1.1861 -0.4167  3.3955
 8626SOL    HW227747   6.696   3.525   4.718  0.8703 -0.9797 -2.8463
 8627SOL     OW27748   7.551   8.120   3.103  0.6403 -0.9359 -0.0274
 8627SOL    HW127749   7.607   8.066   3.159  1.1764 -0.2442  0.1164
 8627SOL    HW227750   7.547   8.204   3.148  0.6708 -0.5291 -0.7847
 8628SOL     OW27751   7.733   6.639   2.777 -0.0452  0.5803 -0.4975
 8628SOL    HW127752   7.754   6.672   2.689 -1.6179  0.7037 -0.8488
 8628SOL    HW227753   7.676   6.564   2.761 -0.3517  0.6087  0.4280
 8629SOL     OW27754   4.160   0.440   4.011  0.7431 -0.0460  0.4980
 8629SOL    HW127755   4.255   0.433   3.997  0.6801  1.5392 -1.1713
 8629SOL    HW227756   4.130   0.349   4.019  2.2076 -0.6693 -0.5830
 8630SOL     OW27757   4.211   8.111   5.355  0.8050 -0.1289 -0.6668
 8630SOL    HW127758   4.168   8.150   5.279 -0.2777 -0.9611 -0.5094
 8630SOL    HW227759   4.197   8.017   5.344 -0.4884 -0.1939  1.2078
 8631SOL     OW27760   6.752   0.160   8.119 -0.3910  0.6596  0.0627
 8631SOL    HW127761   6.840   0.136   8.089 -0.7454 -0.8424  0.1618
 8631SOL    HW227762   6.694   0.100   8.073 -1.1175 -0.4113  2.2451
 8632SOL     OW27763   7.940   1.724   6.275  0.5548  0.7008 -0.0195
 8632SOL    HW127764   7.866   1.691   6.224  1.0749  0.1566 -0.4414
 8632SOL    HW227765   7.905   1.800   6.321 -0.0503  0.9250 -0.8273
 8633SOL     OW27766   0.822   0.529   7.536  0.3787 -0.1286  0.7523
 8633SOL    HW127767   0.802   0.567   7.622 -0.4854  1.7987 -0.2276
 8633SOL    HW227768   0.741   0.488   7.508 -0.2709  1.7023 -0.2759
 8634SOL     OW27769   6.645   5.427   0.053 -0.1029  0.5290  0.2075
 8634SOL    HW127770   6.571   5.397   0.001 -1.2785  0.9631  1.5632
 8634SOL    HW227771   6.641   5.523   0.048  1.2759  0.5587 -0.9053
 8635SOL     OW27772   3.201   0.649   0.267 -0.1489 -0.1182 -0.5384
 8635SOL    HW127773   3.108   0.633   0.253 -0.3382  1.1837 -0.8766
 8635SOL    HW227774   3.225   0.713   0.200  0.5756  0.9074  0.6726
 8636SOL     OW27775   1.924   3.853   8.921  0.3910 -0.4567  0.3088
 8636SOL    HW127776   1.920   3.781   8.983 -0.2178 -0.5001  0.2235
 8636SOL    HW227777   1.910   3.931   8.974 -0.4468 -0.5162  0.1926
 8637SOL     OW27778   1.528   4.574   8.191  0.4019 -0.2535 -0.4619
 8637SOL    HW127779   1.530   4.663   8.227  1.7328 -0.5131  0.1929
 8637SOL    HW227780   1.460   4.530   8.242  0.1451  0.2250 -0.3823
 8638SOL     OW27781   2.240   3.841   4.447 -0.2314  0.1836 -0.4429
 8638SOL    HW127782   2.268   3.902   4.515  0.0726  1.5905 -1.7817
 8638SOL    HW227783   2.318   3.828   4.392 -0.1252 -1.8723  0.0993
 8639SOL     OW27784   7.152   4.822   6.534  0.1457  0.6793 -0.0447
 8639SOL    HW127785   7.082   4.808   6.471  0.0457  0.9417  0.0083
 8639SOL    HW227786   7.159   4.739   6.581 -1.4574  1.2589  1.2919
 8640SOL     OW27787   6.703   2.324   6.170 -0.3873 -1.2126  0.4827
 8640SOL    HW127788   6.667   2.412   6.184  1.3099 -0.3981 -0.0615
 8640SOL    HW227789   6.664   2.271   6.239  1.7530  0.8990  3.5561
 8641SOL     OW27790   3.532   4.170   3.646  0.3972 -0.3003 -0.0084
 8641SOL    HW127791   3.612   4.118   3.637  0.2183 -0.7268  0.7857
 8641SOL    HW227792   3.480   4.147   3.568  0.2272 -1.4970  0.4316
 8642SOL     OW27793   3.146   6.417   7.088 -0.2844  0.3001  0.5473
 8642SOL    HW127794   3.230   6.451   7.120 -0.0868 -0.2185  0.5907
 8642SOL    HW227795   3.168   6.333   7.048 -0.2149  1.6633 -2.5767
 8643SOL     OW27796   3.880   1.145   8.394 -0.1045 -0.1150  0.3457
 8643SOL    HW127797   3.794   1.185   8.407 -0.1790 -0.1010 -0.1899
 8643SOL    HW227798   3.868   1.054   8.423  0.2308  0.3709  2.1768
 8644SOL     OW27799   6.214   1.005   6.486  0.0634 -0.4785  0.2258
 8644SOL    HW127800   6.294   1.034   6.529  0.4174 -1.5864  0.3450
 8644SOL    HW227801   6.222   1.037   6.396  0.9139 -1.0450  0.0872
 8645SOL     OW27802   7.415   8.844   1.507  0.0661 -0.2030  0.2234
 8645SOL    HW127803   7.378   8.756   1.502  0.6042 -0.3844 -0.9043
 8645SOL    HW227804   7.416   8.864   1.601  1.2961 -1.9885  0.6443
 8646SOL     OW27805   0.643   3.427   7.915 -0.0416  0.1036  0.0756
 8646SOL    HW127806   0.674   3.337   7.909  1.9949  0.7184  0.7668
 8646SOL    HW227807   0.571   3.423   7.979 -1.3274 -1.3140 -1.3953
 8647SOL     OW27808   5.555   5.160   1.135 -0.0705  0.8140 -0.3402
 8647SOL    HW127809   5.588   5.235   1.084 -0.7973  2.3402  1.3399
 8647SOL    HW227810   5.463   5.153   1.110 -0.2754  1.1809  0.2960
 8648SOL     OW27811   5.768   7.365   4.665  0.3034 -0.7710  0.4797
 8648SOL    HW127812   5.818   7.358   4.584 -1.3737 -0.8465 -0.6141
 8648SOL    HW227813   5.738   7.276   4.682  0.0533 -0.6332  0.7683
 8649SOL     OW27814   0.546   2.927   2.735  0.0065  0.6969 -0.0809
 8649SOL    HW127815   0.571   2.970   2.653  0.0370  0.0436 -0.4219
 8649SOL    HW227816   0.556   2.834   2.717 -3.4234  0.2664 -0.5452
 8650SOL     OW27817   6.768   4.569   3.085 -0.1347 -0.2914 -0.0428
 8650SOL    HW127818   6.747   4.619   3.006 -0.8014  0.7099  0.7459
 8650SOL    HW227819   6.845   4.613   3.121 -1.0455  0.5524  0.9478
 8651SOL     OW27820   5.784   2.912   0.772 -0.4655 -0.5397 -0.2295
 8651SOL    HW127821   5.768   2.994   0.819 -1.7024 -0.4304 -0.8177
 8651SOL    HW227822   5.731   2.919   0.693 -0.9490 -2.1022 -0.0669
 8652SOL     OW27823   4.774   8.118   1.707  0.9720  0.0059  0.3292
 8652SOL    HW127824   4.712   8.188   1.727 -0.6614 -1.1144 -0.6275
 8652SOL    HW227825   4.720   8.044   1.680  2.6862 -1.3603  0.4396
 8653SOL     OW27826   2.712   8.268   0.082  0.5799  0.1460  0.4263
 8653SOL    HW127827   2.673   8.183   0.104  1.5171 -0.3260  0.3134
 8653SOL    HW227828   2.673   8.291  -0.002 -0.2479  0.1952  0.8152
 8654SOL     OW27829   5.861   7.313   6.989 -0.3326  0.0551  0.1969
 8654SOL    HW127830   5.811   7.236   6.961 -0.6767  0.2180  0.3536
 8654SOL    HW227831   5.925   7.327   6.919 -0.1497 -0.4754  0.2507
 8655SOL     OW27832   0.462   8.412   8.392 -0.2904 -0.0553 -0.7000
 8655SOL    HW127833   0.385   8.458   8.359 -0.7419 -0.5794 -0.4012
 8655SOL    HW227834   0.480   8.344   8.326  0.2822  0.4355 -1.0654
 8656SOL     OW27835   8.719   6.679   4.720 -1.0694  0.3070 -0.2251
 8656SOL    HW127836   8.720   6.606   4.782 -1.5983  1.2939  1.0016
 8656SOL    HW227837   8.742   6.640   4.636  3.0459 -0.6072  1.0969
 8657SOL     OW27838   3.709   7.805   6.420 -0.5956 -0.3290 -0.3718
 8657SOL    HW127839   3.705   7.749   6.343  1.9350  1.4251 -1.9497
 8657SOL    HW227840   3.707   7.894   6.385 -0.3045  0.5511  1.6927
 8658SOL     OW27841   1.510   2.491   0.645  0.4511 -0.5329  0.4843
 8658SOL    HW127842   1.449   2.467   0.714 -0.0027 -0.1160  0.2442
 8658SOL    HW227843   1.597   2.472   0.680  0.3041  0.6827  1.5950
 8659SOL     OW27844   5.856   0.882   2.388  0.1546 -0.0433 -0.0142
 8659SOL    HW127845   5.940   0.865   2.346  0.2888  0.5200  0.0185
 8659SOL    HW227846   5.864   0.841   2.474  0.2089 -0.4248 -0.1988
 8660SOL     OW27847   7.471   2.869   8.803  0.5333 -0.5000 -0.3433
 8660SOL    HW127848   7.396   2.815   8.782  0.8138 -0.7914 -0.6155
 8660SOL    HW227849   7.536   2.808   8.838  0.0272 -0.0038  1.5850
 8661SOL     OW27850   4.347   7.689   0.392  0.4245  0.1879 -0.3910
 8661SOL    HW127851   4.422   7.727   0.438  1.5626 -1.2670 -0.9674
 8661SOL    HW227852   4.290   7.656   0.461  0.9635  0.1401  0.0332
 8662SOL     OW27853   7.296   3.491   6.570  0.1616  0.1833 -0.5826
 8662SOL    HW127854   7.287   3.498   6.475 -0.1591 -0.1524 -0.5815
 8662SOL    HW227855   7.361   3.557   6.593  0.8300 -0.2605 -1.1294
 8663SOL     OW27856   5.284   8.440   2.008  0.0537  0.3911  0.3137
 8663SOL    HW127857   5.216   8.478   1.953  0.7007 -0.4984 -1.1558
 8663SOL    HW227858   5.329   8.515   2.047  0.3978  1.1008 -1.3834
 8664SOL     OW27859   7.157   1.105   2.240 -0.2959  0.2061  0.0937
 8664SOL    HW127860   7.240   1.118   2.286  0.2132  0.9510 -1.0032
 8664SOL    HW227861   7.178   1.118   2.148 -1.4787 -0.3864 -0.2863
 8665SOL     OW27862   4.505   0.078   3.546 -0.3462 -0.0164 -0.1620
 8665SOL    HW127863   4.467  -0.009   3.555 -0.5406  0.0725 -0.1359
 8665SOL    HW227864   4.589   0.063   3.502  1.4752 -0.6583  3.2082
 8666SOL     OW27865   7.044   8.916   8.967  0.3305 -0.7805 -0.6048
 8666SOL    HW127866   7.040   8.859   8.890  1.6813 -0.5387 -0.8775
 8666SOL    HW227867   7.137   8.920   8.989  0.0303 -0.3310  0.6637
 8667SOL     OW27868   4.313   0.932   0.088  0.1151  0.0773  0.0496
 8667SOL    HW127869   4.318   0.859   0.026  0.6576  0.4130 -0.3055
 8667SOL    HW227870   4.382   0.992   0.061  1.0616 -0.2589  1.6206
 8668SOL     OW27871   4.535   6.487   5.722 -0.0028 -0.0539  0.0552
 8668SOL    HW127872   4.450   6.462   5.760 -0.3170  0.0744 -0.5568
 8668SOL    HW227873   4.569   6.554   5.782 -0.4702  0.1152  0.1365
 8669SOL     OW27874   0.976   1.578   7.466  0.4971 -0.0850 -0.3731
 8669SOL    HW127875   0.927   1.632   7.528  1.0688 -0.5693  0.5154
 8669SOL    HW227876   1.014   1.641   7.404 -0.5334  0.3539 -0.5753
 8670SOL     OW27877   7.969   4.539   5.361  0.9997 -0.3016  0.2910
 8670SOL    HW127878   7.898   4.600   5.380  0.0185 -0.9400 -1.1639
 8670SOL    HW227879   8.006   4.517   5.447 -0.6859 -0.1222  1.0939
 8671SOL     OW27880   8.867   6.002   2.497 -0.2362  0.5150  0.0247
 8671SOL    HW127881   8.953   6.037   2.474  0.0252 -0.5720 -0.7287
 8671SOL    HW227882   8.807   6.040   2.433  0.0370 -0.3278 -0.7518
 8672SOL     OW27883   3.543   6.239   6.621  0.2530 -0.4931  0.1460
 8672SOL    HW127884   3.494   6.272   6.697  0.1927  0.4193 -0.2765
 8672SOL    HW227885   3.630   6.277   6.631  0.0344  0.2452 -0.6231
 8673SOL     OW27886   8.329   3.591   4.978 -0.1189 -0.2859  0.5251
 8673SOL    HW127887   8.409   3.575   5.030  0.4754 -0.4699 -0.4279
 8673SOL    HW227888   8.320   3.686   4.978 -1.0230 -0.3189  2.2629
 8674SOL     OW27889   7.544   6.307   4.870  0.3775 -0.2810  0.3952
 8674SOL    HW127890   7.486   6.270   4.936  0.0511 -1.3191 -0.4408
 8674SOL    HW227891   7.534   6.402   4.880 -0.3085 -0.4304  1.2660
 8675SOL     OW27892   0.643   3.020   8.366  0.1462 -0.3546 -0.3814
 8675SOL    HW127893   0.704   2.986   8.301 -0.4284 -2.5823  0.1448
 8675SOL    HW227894   0.679   2.991   8.450 -0.9198 -0.5260  0.0339
 8676SOL     OW27895   6.175   0.460   0.955  0.0164  0.2006 -0.3360
 8676SOL    HW127896   6.193   0.495   0.868 -0.5663 -1.2480 -1.0893
 8676SOL    HW227897   6.157   0.536   1.009 -1.6552  1.0561 -1.9871
 8677SOL     OW27898   6.196   3.579   8.346 -0.4712 -0.3901 -0.1981
 8677SOL    HW127899   6.247   3.539   8.416 -1.4016 -0.7377  0.2994
 8677SOL    HW227900   6.238   3.551   8.265  0.9712  0.4826  0.2086
 8678SOL     OW27901   7.619   1.493   1.915 -0.4227 -0.0018 -0.4940
 8678SOL    HW127902   7.531   1.500   1.877 -0.2982 -0.3883 -0.8497
 8678SOL    HW227903   7.636   1.399   1.920 -0.0532  0.0698 -0.3600
 8679SOL     OW27904   2.285   0.292   7.255 -0.0616 -0.3120  0.2277
 8679SOL    HW127905   2.338   0.283   7.176  1.0724 -0.1342  0.9560
 8679SOL    HW227906   2.246   0.379   7.248  1.2059  0.3042  0.5468
 8680SOL     OW27907   6.073   0.951   4.507  0.1617  0.3972 -0.2043
 8680SOL    HW127908   6.163   0.940   4.539  0.0043 -0.0017  0.1121
 8680SOL    HW227909   6.019   0.906   4.572 -0.3734  1.6997  0.2780
 8681SOL     OW27910   6.733   3.721   1.345  0.2935  0.2632 -0.3408
 8681SOL    HW127911   6.750   3.646   1.288 -0.8867 -0.4648  0.2174
 8681SOL    HW227912   6.748   3.688   1.434 -0.2565  0.6614 -0.0881
 8682SOL     OW27913   5.871   3.447   5.310  0.7029 -0.6475  0.0697
 8682SOL    HW127914   5.781   3.431   5.337  0.4704  1.0143  0.3578
 8682SOL    HW227915   5.924   3.410   5.381  0.2087 -0.3177  0.6176
 8683SOL     OW27916   8.451   2.827   8.354 -0.3921  0.8777 -0.3220
 8683SOL    HW127917   8.389   2.755   8.365 -0.6981  1.1728 -0.0903
 8683SOL    HW227918   8.433   2.861   8.266  1.3080 -0.7810 -1.3940
 8684SOL     OW27919   4.622   1.117   0.864 -0.0593 -0.0498 -0.2531
 8684SOL    HW127920   4.563   1.084   0.931 -2.0774 -1.2024 -2.4355
 8684SOL    HW227921   4.576   1.193   0.827  1.0610  0.6274 -0.3108
 8685SOL     OW27922   1.710   8.059   0.094 -0.3613  0.2623  0.1385
 8685SOL    HW127923   1.742   7.970   0.106 -3.6452 -1.0901 -0.2259
 8685SOL    HW227924   1.712   8.073  -0.001 -0.8826  0.1331  0.1054
 8686SOL     OW27925   1.705   4.802   7.354  0.0879 -0.6642 -0.0351
 8686SOL    HW127926   1.775   4.739   7.374  0.8461  0.5478  1.3041
 8686SOL    HW227927   1.748   4.887   7.360 -0.7766  0.0143 -2.3803
 8687SOL     OW27928   0.368   8.599   1.879 -0.1936 -0.1811 -0.1192
 8687SOL    HW127929   0.360   8.678   1.932  0.1739  1.0884 -1.8504
 8687SOL    HW227930   0.412   8.536   1.935  0.3677  1.1708  0.9983
 8688SOL     OW27931   1.045   0.195   4.770 -0.3201 -0.3846  0.0961
 8688SOL    HW127932   0.980   0.261   4.792  0.7384  0.7910 -0.1954
 8688SOL    HW227933   1.041   0.132   4.843 -0.6722  0.5216  0.8741
 8689SOL     OW27934   6.928   5.299   7.086 -1.1136 -0.3182 -0.5048
 8689SOL    HW127935   6.843   5.255   7.090 -0.9477 -0.5724  0.6464
 8689SOL    HW227936   6.992   5.228   7.083 -0.8640 -0.1736  0.9099
 8690SOL     OW27937   5.690   0.979   8.753 -0.1494 -0.0167 -0.2376
 8690SOL    HW127938   5.761   0.975   8.817 -0.9314 -0.6435  0.6161
 8690SOL    HW227939   5.688   1.070   8.725 -0.7937  0.6574  1.8211
 8691SOL     OW27940   2.430   5.436   5.248 -0.3113  0.1921 -0.0317
 8691SOL    HW127941   2.420   5.481   5.165 -2.7200 -1.0703 -0.4807
 8691SOL    HW227942   2.358   5.374   5.252  1.0509 -1.4160  1.9868
 8692SOL     OW27943   7.589   0.193   7.562 -0.1682  0.2353  0.2798
 8692SOL    HW127944   7.628   0.250   7.629  0.1253 -0.1491  0.4400
 8692SOL    HW227945   7.501   0.228   7.549  0.1746  1.0245  0.0232
 8693SOL     OW27946   6.839   0.445   2.667 -0.2210  0.1842  0.2112
 8693SOL    HW127947   6.746   0.453   2.646 -0.4998  0.7248  1.5452
 8693SOL    HW227948   6.855   0.515   2.730  0.3893 -1.7183  2.2775
 8694SOL     OW27949   1.064   8.535   8.602 -0.0282 -0.1603 -0.5386
 8694SOL    HW127950   1.044   8.626   8.623 -0.0965 -0.3848  0.3949
 8694SOL    HW227951   1.056   8.531   8.507 -0.1954  0.7683 -0.5766
 8695SOL     OW27952   8.997   8.249   1.923 -0.0415 -0.2231  0.4942
 8695SOL    HW127953   9.069   8.192   1.950  0.9651  1.1579  0.9039
 8695SOL    HW227954   9.035   8.305   1.855 -0.9676 -0.0125  0.1317
 8696SOL     OW27955   6.005   3.678   2.169  0.1131 -0.1849 -0.7733
 8696SOL    HW127956   5.987   3.586   2.151  1.5539 -0.7798  0.5967
 8696SOL    HW227957   6.092   3.678   2.208 -0.0684  1.7072 -0.2901
 8697SOL     OW27958   4.901   2.397   7.855 -0.7336 -0.1062  0.1060
 8697SOL    HW127959   4.990   2.415   7.823 -0.3349  0.6292  1.5420
 8697SOL    HW227960   4.844   2.415   7.780  0.1415  1.6558 -0.1865
 8698SOL     OW27961   6.627   0.219   8.388  0.0183  0.1842  0.3630
 8698SOL    HW127962   6.640   0.215   8.293  0.1329  2.4280  0.2364
 8698SOL    HW227963   6.578   0.139   8.409 -0.9358  0.1670 -1.7309
 8699SOL     OW27964   7.348   8.785   3.457  0.1137 -0.1283 -0.0924
 8699SOL    HW127965   7.264   8.801   3.414  0.0700  1.1357  0.4344
 8699SOL    HW227966   7.326   8.769   3.549  0.3466 -1.1968 -0.2067
 8700SOL     OW27967   6.312   0.189   7.530  0.2981 -0.2773  0.4443
 8700SOL    HW127968   6.389   0.169   7.477 -0.8246 -0.5140 -1.1581
 8700SOL    HW227969   6.238   0.159   7.478 -0.9800  1.1592  1.3376
 8701SOL     OW27970   0.429   0.764   7.939 -0.0401 -0.1599 -0.1081
 8701SOL    HW127971   0.451   0.684   7.891  1.8050 -0.8095  1.6544
 8701SOL    HW227972   0.394   0.734   8.022 -1.5983  0.9184 -0.3386
 8702SOL     OW27973   1.169   0.080   5.048  0.1542 -0.4060 -0.6594
 8702SOL    HW127974   1.122  -0.002   5.061 -0.3835 -0.3092 -1.7872
 8702SOL    HW227975   1.227   0.088   5.123  1.1361 -2.4347 -1.1497
 8703SOL     OW27976   2.978   4.893   8.250  0.2602  0.3543 -0.2737
 8703SOL    HW127977   2.902   4.903   8.306 -0.1084 -2.4281 -0.1356
 8703SOL    HW227978   3.046   4.857   8.307  1.2433  1.4117 -0.7271
 8704SOL     OW27979   1.026   7.549   6.701  0.0256  0.1152 -0.1615
 8704SOL    HW127980   1.055   7.633   6.664  0.4466  0.2725  0.5126
 8704SOL    HW227981   1.081   7.484   6.658 -0.0286  0.2202 -0.3932
 8705SOL     OW27982   3.275   2.415   0.823 -0.3127  0.2827  0.0649
 8705SOL    HW127983   3.291   2.323   0.804  0.2680  0.9108 -2.9595
 8705SOL    HW227984   3.354   2.460   0.793 -0.2360  1.7354  2.2323
 8706SOL     OW27985   3.918   7.157   6.564 -0.7404 -0.1193 -0.2303
 8706SOL    HW127986   3.834   7.112   6.577  0.1321 -1.4338  1.2071
 8706SOL    HW227987   3.898   7.249   6.582 -1.8148 -0.4579  0.4879
 8707SOL     OW27988   1.154   1.677   5.552  0.0102 -0.2288  0.3998
 8707SOL    HW127989   1.101   1.597   5.559 -0.8681  0.2878 -0.1896
 8707SOL    HW227990   1.230   1.660   5.608  0.6626 -2.1362 -0.9558
 8708SOL     OW27991   6.920   8.508   6.805  0.4778 -0.0236  0.1338
 8708SOL    HW127992   6.918   8.604   6.812  0.3780 -0.0019 -0.1865
 8708SOL    HW227993   6.856   8.488   6.736  0.3952 -0.3303  0.2987
 8709SOL     OW27994   2.280   3.991   8.989  0.6784 -0.5346  0.2856
 8709SOL    HW127995   2.328   3.933   9.049 -0.5570 -0.9785  0.8703
 8709SOL    HW227996   2.219   4.038   9.046 -0.4977 -0.9373 -0.6135
 8710SOL     OW27997   8.881   7.909   7.407 -0.0354 -0.2482  0.5776
 8710SOL    HW127998   8.885   7.817   7.383  1.6709  0.3011 -1.6349
 8710SOL    HW227999   8.940   7.952   7.345 -1.4902  2.4526  0.9091
 8711SOL     OW28000   1.942   7.207   5.385 -0.3378  0.0625 -0.1323
 8711SOL    HW128001   1.877   7.274   5.362  0.4405  1.3228  1.1888
 8711SOL    HW228002   1.953   7.156   5.305 -2.5869  0.1186 -0.5304
 8712SOL     OW28003   4.661   3.272   8.067  0.1740  0.5260  0.1678
 8712SOL    HW128004   4.666   3.184   8.106 -2.0003  0.2365 -0.0825
 8712SOL    HW228005   4.747   3.310   8.084  1.2490 -1.7004  0.1434
 8713SOL     OW28006   7.010   4.548   1.128  0.9704  0.2265  0.1658
 8713SOL    HW128007   7.096   4.529   1.164  1.5905  0.7566 -0.9818
 8713SOL    HW228008   7.027   4.596   1.048 -0.3786 -0.3212 -0.4932
 8714SOL     OW28009   3.326   5.032   7.259 -0.0713  0.0001 -0.1930
 8714SOL    HW128010   3.365   4.948   7.234 -0.7330  0.4385 -2.9642
 8714SOL    HW228011   3.313   5.024   7.354  1.4869 -2.3174 -0.0777
 8715SOL     OW28012   0.489   8.878   5.845 -0.3198 -0.0883 -0.1057
 8715SOL    HW128013   0.577   8.911   5.829 -0.4415  0.2062 -0.1705
 8715SOL    HW228014   0.473   8.815   5.774 -0.2193 -0.0333 -0.1758
 8716SOL     OW28015   1.178   8.568   5.754  0.3251 -0.4340  0.9599
 8716SOL    HW128016   1.228   8.512   5.813 -1.5925 -3.8089 -0.3613
 8716SOL    HW228017   1.238   8.640   5.733  4.1205 -3.3853  0.6079
 8717SOL     OW28018   6.870   6.471   2.293  0.0685 -0.2197 -0.3182
 8717SOL    HW128019   6.788   6.508   2.262  0.4464  0.3367 -0.6760
 8717SOL    HW228020   6.845   6.391   2.340 -0.5886 -0.5557 -1.2265
 8718SOL     OW28021   6.117   4.488   5.501 -0.3917 -0.3911  0.1444
 8718SOL    HW128022   6.088   4.571   5.540  0.1826  0.7028 -1.6555
 8718SOL    HW228023   6.043   4.429   5.515 -2.0168  1.2422 -1.0278
 8719SOL     OW28024   4.729   0.049   0.912 -0.2748 -0.2151 -0.8673
 8719SOL    HW128025   4.792  -0.020   0.933  1.1488  0.6580 -2.0306
 8719SOL    HW228026   4.661   0.004   0.861 -0.2470 -1.0562 -0.1795
 8720SOL     OW28027   2.380   6.456   1.954 -0.0934  0.3734 -0.3595
 8720SOL    HW128028   2.444   6.457   2.026  0.9152  0.1893 -1.2242
 8720SOL    HW228029   2.304   6.503   1.989  1.3878  2.7409 -0.0900
 8721SOL     OW28030   7.445   4.628   5.844  0.5614 -0.5664 -0.0265
 8721SOL    HW128031   7.483   4.681   5.914 -1.1950 -0.0436  0.5674
 8721SOL    HW228032   7.514   4.564   5.823  2.6808  1.7499 -0.6234
 8722SOL     OW28033   7.069   6.424   5.692  0.1998 -0.6917  0.6305
 8722SOL    HW128034   7.160   6.432   5.720  0.5630 -0.4036 -0.6034
 8722SOL    HW228035   7.020   6.472   5.759  1.0260 -0.1828  0.8957
 8723SOL     OW28036   8.389   5.055   5.941 -0.7991  0.3439 -0.3258
 8723SOL    HW128037   8.415   5.079   6.030  0.4536 -1.2581 -0.2047
 8723SOL    HW228038   8.466   5.072   5.888 -0.8293 -0.6605 -0.7175
 8724SOL     OW28039   7.282   8.088   7.750  0.0203  0.3691 -0.0961
 8724SOL    HW128040   7.242   8.016   7.798 -1.3824 -0.5403 -2.4539
 8724SOL    HW228041   7.377   8.074   7.760 -0.1631 -2.4165 -1.2134
 8725SOL     OW28042   1.688   2.754   2.248  0.6443  0.5516 -0.0110
 8725SOL    HW128043   1.764   2.695   2.246  0.9367  0.7917  1.8547
 8725SOL    HW228044   1.706   2.818   2.179  2.4151  0.8859  0.6967
 8726SOL     OW28045   1.567   6.146   5.311 -0.4119 -0.3320 -0.1222
 8726SOL    HW128046   1.559   6.099   5.394 -1.3886  1.1412  0.6661
 8726SOL    HW228047   1.633   6.213   5.328 -0.5675 -0.0628 -0.5606
 8727SOL     OW28048   7.356   1.445   7.229  0.4570  0.4983 -0.1368
 8727SOL    HW128049   7.345   1.517   7.167 -0.2974 -0.1361 -0.7540
 8727SOL    HW228050   7.451   1.436   7.237  0.5892  2.2908  0.8392
 8728SOL     OW28051   5.197   2.523   7.780  0.7634  0.0484  0.2066
 8728SOL    HW128052   5.158   2.523   7.693  0.3544 -0.6848  0.3821
 8728SOL    HW228053   5.214   2.431   7.799  0.2776  0.1391  1.1466
 8729SOL     OW28054   3.455   2.562   7.183 -0.2434  0.2000 -0.0591
 8729SOL    HW128055   3.411   2.493   7.233 -1.8016  1.3224  0.1926
 8729SOL    HW228056   3.547   2.557   7.211 -0.7067 -0.4685  1.4491
 8730SOL     OW28057   2.734   4.418   0.369 -0.0134  0.0744 -0.0942
 8730SOL    HW128058   2.813   4.378   0.406  0.2424  1.8952  1.4714
 8730SOL    HW228059   2.763   4.503   0.337 -1.3025  0.7363  0.4316
 8731SOL     OW28060   2.485   2.805   7.615  0.0366  0.4523  0.4124
 8731SOL    HW128061   2.468   2.711   7.622 -0.7126  0.6424  1.2998
 8731SOL    HW228062   2.579   2.813   7.633 -0.0183 -0.0741  0.9901
 8732SOL     OW28063   7.671   5.912   5.706  0.2755 -0.1321  0.8312
 8732SOL    HW128064   7.592   5.942   5.662  0.8985 -1.1015 -1.0946
 8732SOL    HW228065   7.663   5.944   5.796 -2.6142 -0.7776  0.8977
 8733SOL     OW28066   0.134   5.293   1.973 -0.2860  0.3553 -0.4912
 8733SOL    HW128067   0.192   5.298   1.897  0.4979  1.0868  0.1432
 8733SOL    HW228068   0.057   5.344   1.947  0.1797  1.0100 -0.6271
 8734SOL     OW28069   0.088   5.050   1.645 -0.4879  0.7249  0.4503
 8734SOL    HW128070   0.118   5.108   1.576  2.1867  0.9051  1.6463
 8734SOL    HW228071   0.162   4.991   1.661 -1.6443 -0.3884  2.0181
 8735SOL     OW28072   6.088   8.976   7.814  0.6180  0.4853 -0.3157
 8735SOL    HW128073   6.086   8.902   7.754 -0.7057  1.1043 -1.0858
 8735SOL    HW228074   6.018   8.959   7.876 -0.2165  1.4344 -0.9632
 8736SOL     OW28075   7.115   1.644   6.268  0.4225 -0.9600 -0.1440
 8736SOL    HW128076   7.091   1.551   6.268  0.5348 -0.9950  0.8596
 8736SOL    HW228077   7.204   1.646   6.233  0.4178 -1.2249 -0.1722
 8737SOL     OW28078   8.890   7.498   7.897 -0.0375 -0.5356 -0.7812
 8737SOL    HW128079   8.892   7.499   7.801  0.3340 -1.0923 -0.7841
 8737SOL    HW228080   8.971   7.541   7.924  0.3532 -1.2980 -0.7260
 8738SOL     OW28081   3.917   3.425   2.041 -0.0900 -0.1957 -0.0956
 8738SOL    HW128082   3.896   3.497   2.101  0.4436  0.1510 -0.3136
 8738SOL    HW228083   4.012   3.429   2.032 -0.2036  0.0890 -1.3636
 8739SOL     OW28084   5.213   4.431   5.468  0.8184  0.3169  0.0707
 8739SOL    HW128085   5.295   4.426   5.419  1.4353  0.6105  1.0487
 8739SOL    HW228086   5.167   4.506   5.430 -0.1990 -1.3386 -2.2147
 8740SOL     OW28087   8.921   5.447   5.223  0.3121  0.3323  0.1872
 8740SOL    HW128088   8.870   5.517   5.265 -1.5808  0.6777 -2.4003
 8740SOL    HW228089   8.994   5.493   5.181 -0.3770  0.6859 -0.6739
 8741SOL     OW28090   6.729   5.331   3.438 -0.0376  0.1381  0.6470
 8741SOL    HW128091   6.683   5.258   3.479 -1.2657  0.6780  0.2670
 8741SOL    HW228092   6.783   5.367   3.508  1.8069 -2.0430  0.4836
 8742SOL     OW28093   4.676   8.269   5.998  0.0122  0.1810  0.5485
 8742SOL    HW128094   4.581   8.273   5.998 -0.1133 -1.1599 -1.7939
 8742SOL    HW228095   4.702   8.295   5.909  1.6364 -1.9160  0.3359
 8743SOL     OW28096   0.144   8.929   7.834 -0.4688 -0.0335  0.2056
 8743SOL    HW128097   0.104   8.898   7.916  0.7458 -0.7254  0.5696
 8743SOL    HW228098   0.238   8.914   7.846 -0.3463 -1.2465 -1.7527
 8744SOL     OW28099   0.086   6.595   0.547  0.3561 -0.0185  0.0990
 8744SOL    HW128100   0.043   6.608   0.462  0.4333 -1.4329 -0.1697
 8744SOL    HW228101   0.068   6.504   0.570  0.5350  0.2727  1.5052
 8745SOL     OW28102   7.463   2.244   7.906  0.0417  0.1029  0.3995
 8745SOL    HW128103   7.489   2.281   7.991  1.2258 -0.6907  0.4052
 8745SOL    HW228104   7.458   2.319   7.848 -3.2264  1.0456  1.6673
 8746SOL     OW28105   1.778   2.701   5.749  0.2424 -0.6692 -0.1170
 8746SOL    HW128106   1.688   2.672   5.763  0.6364 -1.1930  1.5329
 8746SOL    HW228107   1.828   2.621   5.734  0.6163 -0.4795  0.0860
 8747SOL     OW28108   7.464   2.473   1.313 -0.2094 -0.7409  0.8123
 8747SOL    HW128109   7.434   2.383   1.321 -0.8700 -0.9042 -2.2658
 8747SOL    HW228110   7.535   2.469   1.249 -0.2210  0.9006  0.6541
 8748SOL     OW28111   3.255   8.116   8.923  0.1269 -0.1713 -0.6242
 8748SOL    HW128112   3.262   8.062   9.002  0.6317  0.9972  0.1569
 8748SOL    HW228113   3.162   8.110   8.898  0.2537 -1.7204 -0.8121
 8749SOL     OW28114   2.294   7.102   0.130  0.5133  0.1549  0.1827
 8749SOL    HW128115   2.296   7.105   0.034  2.7529  1.6206  0.1982
 8749SOL    HW228116   2.341   7.021   0.152 -0.8551 -0.6928  0.0704
 8750SOL     OW28117   8.114   6.190   1.766  0.1449  0.1599 -0.4981
 8750SOL    HW128118   8.127   6.096   1.774  0.4874  0.0342 -2.2447
 8750SOL    HW228119   8.150   6.226   1.847  0.4717 -1.1594 -0.0342
 8751SOL     OW28120   5.338   2.810   3.642 -0.0690 -0.0077 -0.1812
 8751SOL    HW128121   5.345   2.755   3.720  0.2418 -1.9094 -1.4681
 8751SOL    HW228122   5.429   2.836   3.623 -0.2946  1.6526  0.8553
 8752SOL     OW28123   1.048   3.811   8.579 -0.0892  0.0249  0.2273
 8752SOL    HW128124   0.985   3.878   8.553 -0.8135 -0.8935 -0.4517
 8752SOL    HW228125   1.105   3.801   8.503 -1.9839 -2.4000 -1.0288
 8753SOL     OW28126   2.660   3.886   0.705  0.2076 -0.2726  0.1543
 8753SOL    HW128127   2.672   3.797   0.739  0.0532  0.1356  1.3123
 8753SOL    HW228128   2.565   3.896   0.698  0.1372  0.4776  1.9196
 8754SOL     OW28129   5.641   2.702   4.035 -0.0907 -0.0414  0.1816
 8754SOL    HW128130   5.562   2.724   3.987  0.5448 -0.6260 -1.1988
 8754SOL    HW228131   5.619   2.621   4.081 -0.4407  0.0438  0.1635
 8755SOL     OW28132   8.981   6.773   4.830  0.0282 -0.2300  0.3131
 8755SOL    HW128133   9.015   6.696   4.785 -0.0018 -0.2039  0.2464
 8755SOL    HW228134   8.888   6.774   4.809  0.2943  0.6874 -0.9496
 8756SOL     OW28135   3.629   0.608   7.624 -0.0396  0.7974 -0.6597
 8756SOL    HW128136   3.545   0.584   7.584  1.3000 -0.0368 -3.2000
 8756SOL    HW228137   3.693   0.596   7.554  1.9819  3.2971  0.6107
 8757SOL     OW28138   6.598   1.163   2.151 -0.0030 -0.2530 -0.1870
 8757SOL    HW128139   6.675   1.168   2.207  0.0541 -0.4547 -0.2451
 8757SOL    HW228140   6.549   1.242   2.170 -1.6986 -1.8560  2.6430
 8758SOL     OW28141   6.281   6.152   4.366  0.0361 -0.3714  0.7273
 8758SOL    HW128142   6.341   6.116   4.300 -1.0269 -1.2516  0.2072
 8758SOL    HW228143   6.284   6.091   4.439 -1.9637 -1.7664 -0.2594
 8759SOL     OW28144   4.415   0.302   5.868  0.0886  0.1345  0.2171
 8759SOL    HW128145   4.351   0.232   5.861  0.7327 -0.6327  1.5414
 8759SOL    HW228146   4.443   0.318   5.778 -1.1569 -0.2591 -0.2565
 8760SOL     OW28147   4.107   1.379   7.806 -0.1496  0.4581  0.1661
 8760SOL    HW128148   4.079   1.350   7.893  0.6769  2.0581  0.9929
 8760SOL    HW228149   4.202   1.384   7.811 -0.0473  0.0800 -1.0120
 8761SOL     OW28150   5.255   4.174   4.120  0.1846  1.2186  0.3665
 8761SOL    HW128151   5.274   4.105   4.057 -2.2307 -0.0315  0.8919
 8761SOL    HW228152   5.268   4.256   4.072 -0.2070  0.3306 -1.3030
 8762SOL     OW28153   8.172   3.810   3.150  0.5402  0.0184 -0.0235
 8762SOL    HW128154   8.186   3.840   3.240 -0.8557  0.0088  0.2199
 8762SOL    HW228155   8.077   3.818   3.137  0.5984 -0.9411 -1.1525
 8763SOL     OW28156   7.585   2.541   0.173 -0.2643  0.0427  0.1817
 8763SOL    HW128157   7.562   2.527   0.081  0.4970 -0.8119  0.1101
 8763SOL    HW228158   7.622   2.458   0.202  0.9913  0.7777  0.8029
 8764SOL     OW28159   2.946   2.648   7.139  0.4909 -0.0188 -0.2914
 8764SOL    HW128160   2.921   2.727   7.187 -0.3847 -0.3836 -0.1124
 8764SOL    HW228161   3.011   2.677   7.075  0.7235  0.7040  0.2662
 8765SOL     OW28162   1.946   1.469   0.879  0.3362 -0.2196 -0.2054
 8765SOL    HW128163   2.007   1.539   0.900  1.9964 -1.5063 -0.5156
 8765SOL    HW228164   1.908   1.494   0.795  0.1696  0.7663  0.1549
 8766SOL     OW28165   7.101   5.595   4.122  0.2169  0.2766  0.1750
 8766SOL    HW128166   7.055   5.636   4.196 -1.4978  0.1464 -0.7644
 8766SOL    HW228167   7.137   5.514   4.159 -1.9726 -0.5983  0.5870
 8767SOL     OW28168   5.690   4.128   8.062  0.6884  0.3407 -0.0411
 8767SOL    HW128169   5.638   4.077   8.124  0.4232  1.0972  0.3744
 8767SOL    HW228170   5.689   4.076   7.981 -0.0942 -0.0078  0.1804
 8768SOL     OW28171   2.526   8.604   8.078 -0.2616 -0.5453  0.1660
 8768SOL    HW128172   2.557   8.663   8.010 -1.9563  1.3058  0.8991
 8768SOL    HW228173   2.455   8.651   8.121 -1.0000 -2.7092  1.5195
 8769SOL     OW28174   7.063   2.590   3.833 -0.6076 -0.6369  0.6797
 8769SOL    HW128175   7.142   2.541   3.810  0.0320  0.5028  0.3524
 8769SOL    HW228176   7.008   2.584   3.755 -0.3864 -0.5535  0.5160
 8770SOL     OW28177   7.543   0.128   5.835 -0.0173  0.0957 -0.4010
 8770SOL    HW128178   7.622   0.099   5.882 -0.3137 -0.9742 -0.5331
 8770SOL    HW228179   7.570   0.129   5.743 -0.2549 -0.6503 -0.4864
 8771SOL     OW28180   2.343   0.584   0.152  0.2924 -0.2372  0.5799
 8771SOL    HW128181   2.264   0.561   0.202  0.4266  2.3878  2.1720
 8771SOL    HW228182   2.312   0.644   0.084  0.9784  1.8082  1.9818
 8772SOL     OW28183   1.475   4.337   8.025 -0.2955 -0.0681  0.0518
 8772SOL    HW128184   1.412   4.317   8.095 -0.1981 -0.6502 -0.0241
 8772SOL    HW228185   1.513   4.421   8.051 -0.5907 -0.0574  0.4636
 8773SOL     OW28186   7.362   5.189   7.252  0.2831 -0.1898  0.5009
 8773SOL    HW128187   7.411   5.244   7.312  0.9654  0.0396 -0.2488
 8773SOL    HW228188   7.422   5.117   7.231  0.0097 -0.3375  0.2068
 8774SOL     OW28189   8.782   5.968   5.512 -0.3713 -0.0967  0.1912
 8774SOL    HW128190   8.739   6.023   5.578  1.4643  0.6783  0.7788
 8774SOL    HW228191   8.772   5.879   5.546 -2.5834 -0.1046 -0.3231
 8775SOL     OW28192   7.652   1.748   8.849  0.3032 -0.1135  0.4092
 8775SOL    HW128193   7.715   1.715   8.785  2.3666  2.5238  0.8972
 8775SOL    HW228194   7.698   1.747   8.932 -0.6365  0.9170  0.9781
 8776SOL     OW28195   7.003   2.924   1.113 -0.3901  0.2883  0.9693
 8776SOL    HW128196   6.949   2.941   1.037 -0.9035 -1.8705  0.8064
 8776SOL    HW228197   6.955   2.859   1.164  1.8051 -1.3970  1.0330
 8777SOL     OW28198   7.680   2.806   2.022  0.0089 -0.4155 -0.3130
 8777SOL    HW128199   7.705   2.781   1.933  1.1175 -1.3367  0.2273
 8777SOL    HW228200   7.695   2.726   2.074 -2.5278 -0.5280  0.3738
 8778SOL     OW28201   8.798   5.732   5.668  0.0496  0.2256  0.3610
 8778SOL    HW128202   8.788   5.782   5.749  0.0158 -1.7180  1.6315
 8778SOL    HW228203   8.863   5.665   5.689  3.0671  1.9941 -2.4330
 8779SOL     OW28204   8.572   0.038   6.242  0.1878  0.0379 -0.2177
 8779SOL    HW128205   8.483   0.070   6.248 -0.1069 -0.8236  0.2650
 8779SOL    HW228206   8.613   0.090   6.173 -0.3775  1.1367  0.2615
 8780SOL     OW28207   4.851   3.849   1.417  0.5140  0.3606 -0.1470
 8780SOL    HW128208   4.810   3.933   1.435  0.6034  0.0951  1.4270
 8780SOL    HW228209   4.785   3.800   1.368  0.0519  0.9524 -0.1269
 8781SOL     OW28210   6.630   4.078   4.174  0.0182 -0.0369 -0.6241
 8781SOL    HW128211   6.672   3.992   4.182  0.4901  0.0207 -2.1192
 8781SOL    HW228212   6.687   4.127   4.113  0.0507  1.5253  0.6025
 8782SOL     OW28213   4.200   2.519   1.099 -0.5307  0.0842 -0.1055
 8782SOL    HW128214   4.106   2.506   1.083 -0.4104 -1.8662  0.4511
 8782SOL    HW228215   4.243   2.460   1.037  0.3146  0.6387 -0.0557
 8783SOL     OW28216   2.918   2.135   4.675 -0.6421 -0.1559  0.2994
 8783SOL    HW128217   2.989   2.078   4.707 -0.2683  0.1821  0.0857
 8783SOL    HW228218   2.905   2.199   4.746 -2.4535 -1.6836  1.4387
 8784SOL     OW28219   5.921   2.169   2.781 -0.3386 -0.0739 -0.3080
 8784SOL    HW128220   5.845   2.139   2.831 -0.0905 -1.8788 -0.9585
 8784SOL    HW228221   5.885   2.233   2.719 -1.5882 -1.8424 -1.4911
 8785SOL     OW28222   6.888   3.055   0.900 -0.3707  0.1593  0.1451
 8785SOL    HW128223   6.866   3.039   0.809 -0.8900  0.4828  0.2093
 8785SOL    HW228224   6.806   3.042   0.947 -1.1216  3.8161  0.1048
 8786SOL     OW28225   3.956   1.260   6.260 -0.2550  0.5471 -0.7237
 8786SOL    HW128226   3.916   1.186   6.306 -0.7114  0.2909 -1.5224
 8786SOL    HW228227   3.959   1.329   6.326 -0.1239 -0.0707 -0.0613
 8787SOL     OW28228   8.238   8.837   3.861  0.1935  0.2799 -0.2330
 8787SOL    HW128229   8.292   8.902   3.905  0.6990  0.2644 -0.8139
 8787SOL    HW228230   8.198   8.885   3.788 -0.0460  0.1258 -0.2043
 8788SOL     OW28231   8.314   5.656   2.765 -0.7920 -0.1384  0.4656
 8788SOL    HW128232   8.307   5.560   2.765 -0.2216 -0.2191 -1.5332
 8788SOL    HW228233   8.380   5.675   2.832  2.2602 -1.5177 -1.8904
 8789SOL     OW28234   0.284   1.501   4.592  0.3836  0.4537  0.1871
 8789SOL    HW128235   0.363   1.467   4.634  0.7213  0.2897 -0.5483
 8789SOL    HW228236   0.220   1.431   4.599  0.0670  0.8363  1.3826
 8790SOL     OW28237   4.478   2.948   7.514 -0.0862  0.3621 -0.3694
 8790SOL    HW128238   4.525   2.953   7.430  1.0405 -0.0466  0.2160
 8790SOL    HW228239   4.506   3.026   7.562  1.0005 -0.5110  0.4682
 8791SOL     OW28240   0.812   6.119   7.983 -1.0098 -0.1162 -0.0025
 8791SOL    HW128241   0.763   6.109   8.065 -0.6783  2.5267  0.6151
 8791SOL    HW228242   0.771   6.194   7.940  0.9184  0.6134 -0.6575
 8792SOL     OW28243   7.839   0.311   2.566 -0.2644  0.7411 -0.2273
 8792SOL    HW128244   7.835   0.384   2.627 -0.5065  1.7197 -1.3840
 8792SOL    HW228245   7.925   0.317   2.525 -0.2913  0.3962 -0.3440
 8793SOL     OW28246   2.332   1.511   8.680 -0.5069  0.3977  0.1444
 8793SOL    HW128247   2.337   1.462   8.763  0.1092  1.7401  0.9256
 8793SOL    HW228248   2.311   1.444   8.615  3.1657 -1.5029  0.6571
 8794SOL     OW28249   2.411   1.637   1.376 -0.1590  0.2154  0.2256
 8794SOL    HW128250   2.478   1.637   1.444  1.4186  0.5603 -1.2387
 8794SOL    HW228251   2.345   1.576   1.406  0.3224  0.6067  2.1982
 8795SOL     OW28252   2.613   6.949   7.667 -0.2442 -0.2117  0.1102
 8795SOL    HW128253   2.549   7.020   7.669  0.9221  0.9191 -0.8117
 8795SOL    HW228254   2.692   6.989   7.630  0.7533 -1.7550  0.4762
 8796SOL     OW28255   5.938   0.764   1.392 -0.5492 -0.4283  0.3562
 8796SOL    HW128256   5.854   0.735   1.358  0.4041 -2.6964 -0.2750
 8796SOL    HW228257   5.928   0.761   1.487 -1.1703 -0.6992  0.2885
 8797SOL     OW28258   1.411   0.751   1.813  0.1158  0.2296 -0.8368
 8797SOL    HW128259   1.324   0.730   1.782 -0.4428  3.7683 -2.0710
 8797SOL    HW228260   1.457   0.786   1.737  1.7235  0.8513  0.3455
 8798SOL     OW28261   6.036   6.702   4.747 -0.4507  0.0271 -0.1874
 8798SOL    HW128262   5.979   6.707   4.824  0.7312  1.3046  0.6428
 8798SOL    HW228263   6.018   6.616   4.710 -1.3848 -0.4376  1.2522
 8799SOL     OW28264   5.809   7.626   4.371 -0.2852 -0.4361 -0.7039
 8799SOL    HW128265   5.763   7.666   4.444  2.2155  2.7036 -0.6291
 8799SOL    HW228266   5.830   7.537   4.401 -0.1210  0.4429  2.0708
 8800SOL     OW28267   6.731   4.649   6.864 -0.1261  0.0211  0.0951
 8800SOL    HW128268   6.739   4.725   6.807 -1.0801 -1.5886 -2.3934
 8800SOL    HW228269   6.640   4.622   6.854 -0.1064 -0.8177  1.8163
 8801SOL     OW28270   3.339   8.885   5.855  0.0165  0.1895  0.0664
 8801SOL    HW128271   3.406   8.944   5.821 -0.8952  0.2418 -1.7654
 8801SOL    HW228272   3.292   8.854   5.777  0.6949 -3.2900  0.8489
 8802SOL     OW28273   8.906   1.886   0.775  0.0224 -0.9041 -0.2477
 8802SOL    HW128274   8.905   1.821   0.705  1.1603 -0.2077 -0.9300
 8802SOL    HW228275   8.928   1.968   0.731  0.6831 -0.4453  0.9071
 8803SOL     OW28276   6.944   7.958   6.523  0.0226  0.7088  0.2605
 8803SOL    HW128277   6.852   7.942   6.501  0.4290 -1.0488 -0.3337
 8803SOL    HW228278   6.992   7.910   6.455  1.4196  3.1378 -0.5791
 8804SOL     OW28279   1.805   4.614   8.642  0.9386 -0.6539 -0.0833
 8804SOL    HW128280   1.735   4.648   8.586  0.1379 -0.1592  1.1793
 8804SOL    HW228281   1.803   4.520   8.626 -0.5986 -0.7608  0.5412
 8805SOL     OW28282   2.248   4.260   2.076  0.1658 -0.3770  0.1925
 8805SOL    HW128283   2.327   4.208   2.065  1.0293  1.0717 -0.6847
 8805SOL    HW228284   2.272   4.348   2.047 -1.6318  0.2155  0.3609
 8806SOL     OW28285   1.968   8.144   1.193 -0.0913 -1.0789  0.0079
 8806SOL    HW128286   1.918   8.094   1.129 -0.7123  0.5719 -0.8733
 8806SOL    HW228287   1.911   8.147   1.270 -1.2603  0.4522 -0.8527
 8807SOL     OW28288   7.988   6.420   0.440 -0.0410 -0.2905  0.3340
 8807SOL    HW128289   8.003   6.339   0.391 -0.2541  0.0410 -0.2873
 8807SOL    HW228290   7.899   6.411   0.474 -0.3083 -0.0385 -0.2854
 8808SOL     OW28291   4.899   3.200   3.262  0.4319  0.0099 -0.1464
 8808SOL    HW128292   4.858   3.130   3.312  1.1497 -0.0862  0.3254
 8808SOL    HW228293   4.970   3.157   3.214 -0.1309  0.1301 -1.1291
 8809SOL     OW28294   8.848   5.451   5.817  0.6717  0.3543  0.1793
 8809SOL    HW128295   8.881   5.460   5.727 -0.3814 -1.5796 -0.4442
 8809SOL    HW228296   8.914   5.399   5.862  0.4789  0.0341  0.0946
 8810SOL     OW28297   5.648   5.088   3.207  0.1734  0.5868 -0.3296
 8810SOL    HW128298   5.685   5.061   3.291 -2.0052 -2.0920 -0.0753
 8810SOL    HW228299   5.722   5.088   3.147  1.2477 -0.8582  0.9126
 8811SOL     OW28300   3.584   0.507   4.785  0.0531  0.2646  0.1591
 8811SOL    HW128301   3.623   0.570   4.846  0.2413 -0.1341  0.4585
 8811SOL    HW228302   3.652   0.491   4.720 -0.4788  1.4192 -0.7300
 8812SOL     OW28303   2.226   7.819   0.998  0.2353  0.2799  0.8339
 8812SOL    HW128304   2.275   7.741   0.973  0.2304  0.5140  0.0596
 8812SOL    HW228305   2.139   7.806   0.962 -0.0057  0.2839  1.4044
 8813SOL     OW28306   6.809   0.121   2.727  0.2879 -0.5308 -0.7789
 8813SOL    HW128307   6.853   0.203   2.704  0.2077 -0.2626 -0.0288
 8813SOL    HW228308   6.864   0.053   2.690 -0.2191 -0.1168 -2.3559
 8814SOL     OW28309   2.404   1.097   6.742  0.0784 -0.0596 -0.4553
 8814SOL    HW128310   2.345   1.166   6.713 -0.6514  0.3399  1.7713
 8814SOL    HW228311   2.351   1.043   6.801  0.6640 -2.4967 -2.0210
 8815SOL     OW28312   1.702   0.579   6.351  0.0378 -0.3135 -0.7047
 8815SOL    HW128313   1.651   0.657   6.330 -0.4463 -0.3026  0.4707
 8815SOL    HW228314   1.766   0.608   6.415 -0.5832 -1.0129  0.2556
 8816SOL     OW28315   1.973   5.926   6.956  1.2130 -0.0211 -0.3927
 8816SOL    HW128316   1.884   5.925   6.990  0.7351 -0.0359 -1.5813
 8816SOL    HW228317   2.015   5.999   7.001  0.8733 -0.5361  0.8018
 8817SOL     OW28318   4.206   6.445   6.484 -0.4030 -0.3732 -0.0481
 8817SOL    HW128319   4.239   6.534   6.498 -1.8728  0.1638  0.1844
 8817SOL    HW228320   4.177   6.416   6.571 -0.7857 -0.7121 -0.2814
 8818SOL     OW28321   3.355   2.428   4.761 -0.2000  1.2346 -0.1002
 8818SOL    HW128322   3.363   2.516   4.723  0.9864  0.6965 -1.1469
 8818SOL    HW228323   3.407   2.372   4.704 -0.1659  0.0016  1.0920
 8819SOL     OW28324   7.805   4.444   2.081 -0.4045  0.0598 -0.4751
 8819SOL    HW128325   7.856   4.370   2.049 -1.8312 -1.6546  0.9583
 8819SOL    HW228326   7.838   4.460   2.169 -0.9167  0.2948 -0.3195
 8820SOL     OW28327   3.956   1.572   2.186 -0.1861  0.2648  0.2076
 8820SOL    HW128328   4.006   1.653   2.184 -0.7727  0.6090 -1.1270
 8820SOL    HW228329   3.957   1.539   2.096 -3.7195  1.1869 -0.3361
 8821SOL     OW28330   4.289   4.808   5.711  0.4079 -0.3429  0.1443
 8821SOL    HW128331   4.204   4.840   5.679  0.5660  0.3214  0.3599
 8821SOL    HW228332   4.269   4.723   5.750  0.2599 -1.2995 -1.8934
 8822SOL     OW28333   5.537   3.512   6.691 -0.1962 -0.5365 -0.2075
 8822SOL    HW128334   5.542   3.417   6.701 -0.3392 -0.5169  0.0448
 8822SOL    HW228335   5.521   3.545   6.779  2.5267 -0.0749  0.2091
 8823SOL     OW28336   2.530   7.306   1.059  0.0558  0.0719 -0.0489
 8823SOL    HW128337   2.567   7.394   1.063 -0.3934  0.4742 -2.8145
 8823SOL    HW228338   2.605   7.250   1.039  0.0476  0.0760 -0.0902
 8824SOL     OW28339   6.424   0.694   3.860 -0.2964  0.7910 -0.6211
 8824SOL    HW128340   6.406   0.729   3.773 -0.4019  1.6292 -0.2697
 8824SOL    HW228341   6.436   0.600   3.846  3.5163  1.3189 -2.1658
 8825SOL     OW28342   6.737   1.299   7.683 -0.3008 -0.0998  0.4088
 8825SOL    HW128343   6.658   1.319   7.734 -1.9863 -1.5767 -1.4689
 8825SOL    HW228344   6.745   1.204   7.687  1.9406  0.0556  1.2351
 8826SOL     OW28345   7.874   6.859   1.088 -0.3146 -0.5008  0.5235
 8826SOL    HW128346   7.959   6.852   1.130  0.1666 -1.5787 -0.5960
 8826SOL    HW228347   7.869   6.784   1.030 -0.3985  1.5606 -2.3422
 8827SOL     OW28348   1.276   5.567   1.133  0.5137  0.2818 -0.4117
 8827SOL    HW128349   1.272   5.529   1.045 -0.4528  1.8636 -1.0971
 8827SOL    HW228350   1.329   5.645   1.122  0.1513  0.6374  0.3482
 8828SOL     OW28351   6.559   4.394   5.626 -0.2179  0.3138  0.1606
 8828SOL    HW128352   6.564   4.455   5.699  0.8056  1.5227 -0.8528
 8828SOL    HW228353   6.645   4.399   5.584 -1.2972  1.0700 -2.1710
 8829SOL     OW28354   0.017   5.872   5.378  0.4832  0.6962 -0.2417
 8829SOL    HW128355  -0.051   5.897   5.441  0.8980  1.0028  0.0930
 8829SOL    HW228356   0.100   5.886   5.425  0.8041 -4.2925  1.1924
 8830SOL     OW28357   6.352   3.354   7.678 -0.1177  0.5620  0.4179
 8830SOL    HW128358   6.407   3.344   7.600 -0.9936  0.4396 -0.2030
 8830SOL    HW228359   6.411   3.339   7.751  0.3917 -0.9457 -0.2640
 8831SOL     OW28360   0.838   7.585   1.184 -0.3527  0.5753  0.9130
 8831SOL    HW128361   0.928   7.561   1.202  0.2571  1.1277 -1.1117
 8831SOL    HW228362   0.788   7.504   1.192  0.5391  0.0138  0.7994
 8832SOL     OW28363   5.571   8.626   1.568 -0.1646  0.0042 -0.2370
 8832SOL    HW128364   5.530   8.549   1.607  0.3323  0.5665  1.5333
 8832SOL    HW228365   5.507   8.660   1.506 -1.3349 -0.5451  0.6393
 8833SOL     OW28366   1.627   5.854   2.852  0.4334  0.1296  0.0432
 8833SOL    HW128367   1.672   5.920   2.799 -0.4291  0.2418 -0.5675
 8833SOL    HW228368   1.561   5.817   2.793 -0.0932 -0.2222  0.8383
 8834SOL     OW28369   5.931   5.663   2.826 -0.6845 -0.1675 -0.3566
 8834SOL    HW128370   5.986   5.699   2.896  1.6356 -0.8451 -1.7330
 8834SOL    HW228371   5.879   5.595   2.869 -0.2379  0.2767  0.9287
 8835SOL     OW28372   6.183   1.095   3.010 -0.4873 -0.3678  0.1611
 8835SOL    HW128373   6.151   1.106   3.100  0.0087 -0.0705  0.3055
 8835SOL    HW228374   6.244   1.022   3.014  1.4327  1.1519  0.5983
 8836SOL     OW28375   7.105   5.416   3.774  0.1867 -0.2867  0.0084
 8836SOL    HW128376   7.194   5.386   3.759  0.3130  0.0689  0.0427
 8836SOL    HW228377   7.112   5.512   3.780 -0.5652  0.0431 -2.8036
 8837SOL     OW28378   0.217   1.095   8.276 -0.0314  0.3543  0.0259
 8837SOL    HW128379   0.242   1.062   8.190  1.8862  0.0386  0.6463
 8837SOL    HW228380   0.269   1.043   8.337 -1.9249  0.0264  1.4492
 8838SOL     OW28381   0.413   3.958   3.220 -0.2039 -0.3915 -0.4658
 8838SOL    HW128382   0.328   3.966   3.178  0.6333  0.1438 -2.1315
 8838SOL    HW228383   0.425   4.040   3.267 -0.9819 -0.8453  0.5749
 8839SOL     OW28384   0.543   1.514   2.208  0.3060 -0.2479  0.0007
 8839SOL    HW128385   0.636   1.505   2.228  0.8928  1.3694 -1.6861
 8839SOL    HW228386   0.520   1.601   2.241 -0.3789 -0.2993 -0.3318
 8840SOL     OW28387   6.278   3.482   6.826  0.4245 -0.2018 -0.1895
 8840SOL    HW128388   6.188   3.504   6.849 -0.5163 -1.9998 -1.8147
 8840SOL    HW228389   6.318   3.455   6.909 -1.3459 -1.8656  0.1940
 8841SOL     OW28390   8.886   2.353   0.488  0.5256 -0.0805 -0.5804
 8841SOL    HW128391   8.814   2.414   0.480 -0.4721 -1.2165 -0.5521
 8841SOL    HW228392   8.899   2.342   0.582  1.1211  0.5318 -0.5787
 8842SOL     OW28393   2.202   1.302   2.180 -0.2444  0.1671 -0.5872
 8842SOL    HW128394   2.213   1.221   2.131  0.0796 -0.7025  0.8700
 8842SOL    HW228395   2.123   1.289   2.232  0.9455 -0.0915  1.2406
 8843SOL     OW28396   5.923   2.570   3.724  0.1136 -0.1856  0.1101
 8843SOL    HW128397   5.867   2.528   3.660  0.0294 -0.1730  0.1751
 8843SOL    HW228398   5.967   2.497   3.769 -1.2357 -0.2970  1.3289
 8844SOL     OW28399   1.390   8.132   6.247  0.1661  0.2606  0.1597
 8844SOL    HW128400   1.401   8.052   6.300  0.4141 -0.2147 -0.6006
 8844SOL    HW228401   1.400   8.203   6.310  1.9207 -0.2660  0.5265
 8845SOL     OW28402   8.314   1.035   6.698  0.7945 -0.2932  0.0243
 8845SOL    HW128403   8.329   0.955   6.648  0.9526 -0.7661  0.8192
 8845SOL    HW228404   8.298   1.005   6.787  0.7054  0.5534  0.2996
 8846SOL     OW28405   6.676   6.111   6.993  0.1063  0.1816 -0.0444
 8846SOL    HW128406   6.766   6.113   6.961  0.0009  4.3797 -0.5748
 8846SOL    HW228407   6.679   6.160   7.075 -1.6345 -0.1093  0.2338
 8847SOL     OW28408   0.896   4.185   5.436 -0.0128 -0.2639  0.6401
 8847SOL    HW128409   0.806   4.209   5.411  0.9584  1.7027 -1.3160
 8847SOL    HW228410   0.928   4.261   5.485  0.9520 -0.4343  0.2898
 8848SOL     OW28411   6.488   4.967   7.273  0.9989 -0.0497  0.2122
 8848SOL    HW128412   6.560   4.907   7.254  1.6162  0.8354 -0.3153
 8848SOL    HW228413   6.433   4.919   7.335  1.0322 -1.4674 -0.8116
 8849SOL     OW28414   3.852   8.982   8.783  0.0963 -0.3765 -0.2743
 8849SOL    HW128415   3.798   8.964   8.860  1.7880  0.5711  1.1955
 8849SOL    HW228416   3.864   9.077   8.783 -0.4432 -0.2771 -2.1383
 8850SOL     OW28417   0.035   7.976   0.790  0.1352  0.7561  0.7503
 8850SOL    HW128418   0.097   7.903   0.791  1.2330  1.6582  1.9375
 8850SOL    HW228419   0.089   8.054   0.788 -0.9875  1.5598  0.7769
 8851SOL     OW28420   5.747   0.894   4.246 -0.1003  0.1625 -0.4078
 8851SOL    HW128421   5.691   0.860   4.176  0.5649  0.1124 -0.9223
 8851SOL    HW228422   5.695   0.883   4.326  0.6039 -3.4742 -0.2829
 8852SOL     OW28423   8.199   6.753   0.854  0.3973  0.2116  0.7950
 8852SOL    HW128424   8.163   6.729   0.769  0.7322  2.3336  0.0070
 8852SOL    HW228425   8.130   6.730   0.917 -0.5019  0.1068 -0.2035
 8853SOL     OW28426   5.815   7.640   1.506 -0.1700  0.9752 -0.4237
 8853SOL    HW128427   5.801   7.664   1.598  0.9995  0.9402 -0.2158
 8853SOL    HW228428   5.904   7.604   1.505 -0.5839 -0.0491 -1.3772
 8854SOL     OW28429   3.644   8.368   3.637  0.1874 -0.0325 -0.0581
 8854SOL    HW128430   3.672   8.407   3.720  1.7058  1.7558 -1.3464
 8854SOL    HW228431   3.664   8.434   3.571 -0.1596 -1.7450 -1.9727
 8855SOL     OW28432   5.660   8.313   6.961 -0.0132 -0.4473  0.2091
 8855SOL    HW128433   5.580   8.273   6.995  0.7015  0.0530  2.6833
 8855SOL    HW228434   5.703   8.242   6.913 -1.1813 -1.1640  0.1758
 8856SOL     OW28435   6.845   4.081   7.713 -0.7315 -0.0018  0.3902
 8856SOL    HW128436   6.828   3.992   7.744 -1.1400 -0.0120  0.1477
 8856SOL    HW228437   6.894   4.122   7.784  0.6265 -0.8247 -0.0398
 8857SOL     OW28438   6.280   0.386   2.600 -0.1909 -0.1439  0.4084
 8857SOL    HW128439   6.249   0.324   2.666  1.5397 -1.1169  0.3685
 8857SOL    HW228440   6.338   0.334   2.544 -0.9190  0.8719 -1.3455
 8858SOL     OW28441   5.455   5.784   1.815 -0.4367  0.0796 -0.0702
 8858SOL    HW128442   5.498   5.862   1.849 -3.4937  2.6021 -1.4888
 8858SOL    HW228443   5.513   5.753   1.745  1.7540 -0.2085  1.7373
 8859SOL     OW28444   8.476   6.418   2.644  0.4126  0.1795  0.5032
 8859SOL    HW128445   8.383   6.395   2.647  0.3253  0.5664  0.8177
 8859SOL    HW228446   8.521   6.334   2.656  0.1547 -0.4711 -2.4015
 8860SOL     OW28447   7.810   5.149   5.913  0.0490  0.3608  0.4481
 8860SOL    HW128448   7.738   5.094   5.946  0.1220  0.1299  0.2255
 8860SOL    HW228449   7.768   5.233   5.892 -0.2881  0.0151 -0.3081
 8861SOL     OW28450   6.391   8.000   2.498 -0.8158  0.6199  0.3211
 8861SOL    HW128451   6.481   7.968   2.495 -0.6406  1.1149  0.3345
 8861SOL    HW228452   6.339   7.926   2.467 -0.4472  0.1819  0.7269
 8862SOL     OW28453   4.932   7.575   8.195 -0.7624  0.6658 -0.0884
 8862SOL    HW128454   5.022   7.608   8.199 -0.5711  0.1807 -0.4118
 8862SOL    HW228455   4.879   7.653   8.182 -0.5166  1.1336  1.5132
 8863SOL     OW28456   5.803   6.496   8.239  0.1950 -0.0730 -0.0688
 8863SOL    HW128457   5.771   6.522   8.326 -2.3163 -0.5770 -0.7551
 8863SOL    HW228458   5.890   6.460   8.256 -1.0269 -2.1645  2.6265
 8864SOL     OW28459   1.607   3.228   6.501  0.1117 -0.0098  0.4672
 8864SOL    HW128460   1.543   3.204   6.568  0.1554  0.5803  0.7256
 8864SOL    HW228461   1.555   3.237   6.421  0.0346 -0.5586  0.4514
 8865SOL     OW28462   0.490   8.369   1.554  0.2574  0.3277 -0.3789
 8865SOL    HW128463   0.585   8.356   1.560  0.3511  1.4655  1.3992
 8865SOL    HW228464   0.480   8.465   1.551 -0.9085  0.4250  2.9985
 8866SOL     OW28465   2.825   4.488   1.356 -0.1667 -0.5054  0.2877
 8866SOL    HW128466   2.902   4.486   1.413  0.4776  2.9668 -0.2511
 8866SOL    HW228467   2.807   4.396   1.337  2.5340 -1.5477  2.1356
 8867SOL     OW28468   6.738   6.521   4.864 -0.1213  0.0264  0.2479
 8867SOL    HW128469   6.668   6.586   4.857  0.2208  0.3994  0.2500
 8867SOL    HW228470   6.698   6.439   4.836 -0.8914 -0.0048  1.3737
 8868SOL     OW28471   7.536   8.465   6.914 -0.1672  1.1686  0.5655
 8868SOL    HW128472   7.458   8.520   6.924 -1.9824 -1.1021 -0.0213
 8868SOL    HW228473   7.588   8.508   6.847 -3.5593  0.2218 -3.0378
 8869SOL     OW28474   3.350   2.875   4.490 -0.3485  0.4224  0.5552
 8869SOL    HW128475   3.405   2.934   4.439 -0.9135 -0.2877 -0.9606
 8869SOL    HW228476   3.323   2.807   4.427 -1.3719 -0.3078  1.7228
 8870SOL     OW28477   5.019   6.230   0.825 -0.3435  0.1357  0.2878
 8870SOL    HW128478   4.951   6.291   0.796 -0.2730 -0.3361 -0.9698
 8870SOL    HW228479   4.991   6.145   0.790 -0.3416 -0.5290  1.8442
 8871SOL     OW28480   3.561   7.076   8.623 -0.1817 -0.4527  0.4579
 8871SOL    HW128481   3.544   7.145   8.558 -2.1266 -0.6966  0.6520
 8871SOL    HW228482   3.647   7.041   8.599 -0.1755  0.5046 -1.0440
 8872SOL     OW28483   3.401   0.550   8.763  0.0831 -0.3887 -0.1241
 8872SOL    HW128484   3.398   0.576   8.855 -0.1864  1.1450 -0.5482
 8872SOL    HW228485   3.365   0.624   8.715  2.9677  0.1523 -1.7121
 8873SOL     OW28486   6.490   2.710   5.598  0.3306 -0.3384 -0.3088
 8873SOL    HW128487   6.559   2.763   5.637  0.8258 -2.3329  1.7194
 8873SOL    HW228488   6.535   2.654   5.535  0.4618 -1.0625  0.4148
 8874SOL     OW28489   4.381   5.863   3.219 -0.1763 -1.0574  0.0279
 8874SOL    HW128490   4.406   5.948   3.182 -2.3428 -0.3788 -0.0149
 8874SOL    HW228491   4.459   5.834   3.266  0.4241  1.2998  0.6488
 8875SOL     OW28492   2.888   8.431   5.630  0.6083 -0.1229 -0.5126
 8875SOL    HW128493   2.901   8.470   5.543 -0.6498 -1.1505 -1.1780
 8875SOL    HW228494   2.846   8.500   5.681  0.5837  0.2040 -0.9679
 8876SOL     OW28495   8.201   1.012   4.349 -0.4357 -0.4992  0.4368
 8876SOL    HW128496   8.169   1.030   4.261  0.2745 -0.5459  0.1629
 8876SOL    HW228497   8.186   0.919   4.363  0.2707 -0.6869  0.0105
 8877SOL     OW28498   6.063   5.060   7.396  0.3061 -0.3986 -0.3431
 8877SOL    HW128499   6.148   5.071   7.352  0.5937 -3.6337 -0.8642
 8877SOL    HW228500   6.004   5.119   7.349  1.4847 -0.7829 -2.4339
 8878SOL     OW28501   4.379   8.208   0.085 -0.4566 -1.1452  0.2306
 8878SOL    HW128502   4.416   8.146   0.023 -0.7181 -1.0566 -0.0171
 8878SOL    HW228503   4.365   8.288   0.033 -0.7390 -1.0929  0.3852
 8879SOL     OW28504   8.341   7.174   1.931  0.0053  1.0028 -0.1284
 8879SOL    HW128505   8.408   7.216   1.877  0.9835  0.5986  0.7214
 8879SOL    HW228506   8.388   7.104   1.977 -0.0582  3.0696  3.4255
 8880SOL     OW28507   1.707   2.666   7.047  0.2132  0.6813  0.0755
 8880SOL    HW128508   1.718   2.680   7.141 -1.1017 -1.7107  0.6890
 8880SOL    HW228509   1.623   2.620   7.040 -0.2189  1.7201 -2.3886
 8881SOL     OW28510   2.442   7.131   0.554  0.1479  0.1648 -0.0030
 8881SOL    HW128511   2.470   7.210   0.602  0.2529  0.2534 -0.2120
 8881SOL    HW228512   2.402   7.165   0.474 -1.0115  0.0703  0.5093
 8882SOL     OW28513   1.457   3.540   0.757  0.4665 -0.1632 -0.5772
 8882SOL    HW128514   1.442   3.494   0.674  1.2875 -0.2481 -0.6948
 8882SOL    HW228515   1.551   3.530   0.772  0.0414 -1.9583  1.4321
 8883SOL     OW28516   8.732   2.530   4.846  0.9305 -0.5762 -0.2765
 8883SOL    HW128517   8.732   2.475   4.768  1.2659 -0.0545 -0.6530
 8883SOL    HW228518   8.640   2.536   4.872  0.3402  1.7881 -2.4911
 8884SOL     OW28519   5.010   6.017   0.618 -0.1665 -0.0650 -0.3192
 8884SOL    HW128520   4.979   6.089   0.563 -0.5907  0.5309  0.6591
 8884SOL    HW228521   4.931   5.985   0.662  0.1842 -0.4270  0.0581
 8885SOL     OW28522   1.985   7.786   6.191 -0.8654 -0.0502 -0.1596
 8885SOL    HW128523   1.966   7.878   6.171 -0.2363  0.1991  0.3508
 8885SOL    HW228524   2.009   7.748   6.107 -0.3739  0.4434 -0.2482
 8886SOL     OW28525   8.551   8.015   2.099  0.3151 -0.5565  0.4331
 8886SOL    HW128526   8.580   7.924   2.109  2.5867 -0.1266 -1.5003
 8886SOL    HW228527   8.628   8.062   2.070 -0.6298  2.1952  2.0261
 8887SOL     OW28528   3.430   1.948   8.360 -0.7812  0.0854 -0.4608
 8887SOL    HW128529   3.350   1.897   8.376 -1.8124  1.8965  0.5796
 8887SOL    HW228530   3.481   1.938   8.440 -0.1681 -0.6778 -0.9364
 8888SOL     OW28531   0.548   0.812   0.826 -0.0591  0.1966  0.2579
 8888SOL    HW128532   0.484   0.854   0.884 -0.3357  1.8494 -1.1592
 8888SOL    HW228533   0.517   0.721   0.818 -1.8610  0.7773  0.1604
 8889SOL     OW28534   8.931   8.285   2.715  0.0196  0.6573 -0.0664
 8889SOL    HW128535   8.953   8.343   2.642  2.4666  0.0228  0.0651
 8889SOL    HW228536   8.846   8.249   2.692  0.4114  0.9806 -2.2909
 8890SOL     OW28537   3.199   7.309   8.985 -0.6814  0.5045 -0.0780
 8890SOL    HW128538   3.184   7.216   8.966 -1.9955  0.8983 -1.1603
 8890SOL    HW228539   3.136   7.329   9.055 -0.1140  0.4959  0.4413
 8891SOL     OW28540   0.505   5.093   1.685 -0.0251  0.1254 -0.1659
 8891SOL    HW128541   0.596   5.089   1.656  0.3419  0.5373  0.8779
 8891SOL    HW228542   0.510   5.094   1.780 -0.9256  3.1060 -0.0371
 8892SOL     OW28543   2.168   4.717   2.879  0.2052  0.3124  0.2716
 8892SOL    HW128544   2.236   4.653   2.857 -0.2988  0.1924 -1.0158
 8892SOL    HW228545   2.109   4.715   2.804 -1.2426  0.3839  1.3785
 8893SOL     OW28546   1.863   0.063   4.371  0.6477 -0.1568  0.1890
 8893SOL    HW128547   1.893   0.149   4.344  0.5867 -0.5658 -1.3073
 8893SOL    HW228548   1.833   0.074   4.461 -1.0200  1.8182 -0.5319
 8894SOL     OW28549   7.499   0.858   1.832  0.5259 -0.0049  0.2380
 8894SOL    HW128550   7.465   0.847   1.920 -0.5044  0.4253 -0.0881
 8894SOL    HW228551   7.588   0.823   1.836  1.3025  1.9897  1.9830
 8895SOL     OW28552   6.188   5.745   3.563  0.3061  0.0582  0.1528
 8895SOL    HW128553   6.165   5.834   3.590 -1.5909  0.0445 -1.2289
 8895SOL    HW228554   6.159   5.690   3.636 -0.5733  0.3879  0.0562
 8896SOL     OW28555   5.140   2.448   7.036 -0.2781  0.7317 -0.1710
 8896SOL    HW128556   5.083   2.374   7.014 -1.0027  1.2849 -0.1810
 8896SOL    HW228557   5.213   2.408   7.084 -0.9536  0.0809  0.3458
 8897SOL     OW28558   2.569   3.158   2.502  0.1699 -0.0962 -0.1616
 8897SOL    HW128559   2.526   3.126   2.423  1.4496 -0.5164 -0.6983
 8897SOL    HW228560   2.496   3.181   2.560 -0.7890  0.2650 -1.4620
 8898SOL     OW28561   3.132   3.918   4.105 -0.1301  0.0858 -0.9468
 8898SOL    HW128562   3.087   3.837   4.129 -0.6828  1.5384  3.9806
 8898SOL    HW228563   3.062   3.984   4.104  0.8666  1.1891 -0.3949
 8899SOL     OW28564   1.902   7.716   1.663  0.0931 -0.4538 -0.0530
 8899SOL    HW128565   1.968   7.647   1.656 -1.3763 -1.8210 -1.1123
 8899SOL    HW228566   1.825   7.681   1.619 -1.8647  0.5008  2.3378
 8900SOL     OW28567   5.234   2.407   6.063 -0.0879 -0.5291 -0.4584
 8900SOL    HW128568   5.227   2.355   6.143 -1.3195 -2.6805 -1.8606
 8900SOL    HW228569   5.169   2.476   6.073  0.0735 -0.5116  0.5699
 8901SOL     OW28570   0.753   7.955   8.473  0.0170 -0.0628  0.0285
 8901SOL    HW128571   0.771   8.039   8.431  1.1513 -0.3844 -0.1734
 8901SOL    HW228572   0.839   7.925   8.505 -0.1204 -1.7080 -0.9865
 8902SOL     OW28573   2.329   6.917   8.353  0.3277 -0.0227  0.0942
 8902SOL    HW128574   2.250   6.959   8.388  0.2319  0.8127 -1.0673
 8902SOL    HW228575   2.299   6.832   8.322 -0.2380  0.4829 -0.7855
 8903SOL     OW28576   4.333   2.170   8.636  0.4841 -0.1965 -0.5638
 8903SOL    HW128577   4.315   2.080   8.665  1.0590  0.2015  1.1806
 8903SOL    HW228578   4.263   2.190   8.574 -0.0049 -1.6396 -0.5006
 8904SOL     OW28579   7.003   1.737   7.445 -0.3195  0.2909  0.2706
 8904SOL    HW128580   7.063   1.663   7.460  0.3350  0.8351  0.4060
 8904SOL    HW228581   7.005   1.787   7.527 -0.8742  0.3809  0.2319
 8905SOL     OW28582   5.595   4.077   2.148 -0.4611 -0.2738  0.1037
 8905SOL    HW128583   5.561   4.053   2.062 -1.0896 -0.3091  0.3528
 8905SOL    HW228584   5.580   4.000   2.202 -0.0316 -0.2648  0.2346
 8906SOL     OW28585   4.524   2.792   0.445  0.4617 -0.1450  0.1420
 8906SOL    HW128586   4.513   2.872   0.495  0.4943 -0.2577  0.3289
 8906SOL    HW228587   4.540   2.724   0.510  2.0492 -0.0313 -0.0807
 8907SOL     OW28588   1.654   7.839   6.731 -0.3751 -0.3602 -0.0030
 8907SOL    HW128589   1.597   7.908   6.765 -1.4118 -0.4769 -1.3930
 8907SOL    HW228590   1.740   7.857   6.770 -1.2966 -0.0949  2.0311
 8908SOL     OW28591   2.584   8.912   7.997 -0.1853 -0.1597  0.2682
 8908SOL    HW128592   2.551   8.989   8.043 -1.0767  0.0656 -0.7078
 8908SOL    HW228593   2.679   8.923   7.996 -0.2607  0.5925  0.7000
 8909SOL     OW28594   4.938   8.663   4.960 -0.1476  0.5071 -0.2688
 8909SOL    HW128595   4.866   8.603   4.976  0.0049  0.7211  1.3457
 8909SOL    HW228596   4.947   8.713   5.041  1.6605  0.6419 -0.5013
 8910SOL     OW28597   7.746   7.575   7.515  0.5804  0.3566  0.4634
 8910SOL    HW128598   7.794   7.560   7.596 -2.1410 -1.5132  1.9089
 8910SOL    HW228599   7.801   7.537   7.446  2.1859  0.4269  1.6542
 8911SOL     OW28600   0.844   2.875   4.688 -0.5481 -0.0398 -0.5430
 8911SOL    HW128601   0.920   2.836   4.732 -0.3813  1.8692  0.9912
 8911SOL    HW228602   0.844   2.835   4.601  1.1921 -1.3645 -0.0004
 8912SOL     OW28603   8.807   1.907   5.951 -0.0677 -0.6969  0.7028
 8912SOL    HW128604   8.738   1.853   5.911  0.7040 -1.8212  0.8291
 8912SOL    HW228605   8.812   1.874   6.041  0.1284 -0.1075  0.9082
 8913SOL     OW28606   7.690   7.228   4.115 -0.1091 -0.0106 -0.1605
 8913SOL    HW128607   7.719   7.145   4.152 -0.6886 -0.6474 -1.0999
 8913SOL    HW228608   7.683   7.287   4.190  1.0263 -0.5846  0.4248
 8914SOL     OW28609   5.974   1.638   4.714 -0.2892 -0.8516 -0.8036
 8914SOL    HW128610   5.933   1.717   4.679 -0.0768  0.3638  1.4762
 8914SOL    HW228611   5.977   1.578   4.640 -0.3792  1.2953 -2.6670
 8915SOL     OW28612   3.847   6.587   5.830 -0.0555 -0.0073 -0.3307
 8915SOL    HW128613   3.927   6.625   5.865 -0.0301  0.5746 -0.9853
 8915SOL    HW228614   3.822   6.646   5.758 -0.2683 -0.9754 -1.0790
 8916SOL     OW28615   5.354   2.153   2.996 -0.0513  0.0523 -0.4939
 8916SOL    HW128616   5.276   2.100   2.978  0.6992 -2.1129  2.0276
 8916SOL    HW228617   5.426   2.103   2.957  0.7809 -1.4477  2.6927
 8917SOL     OW28618   1.377   4.909   6.297 -0.2922  0.1749  0.2487
 8917SOL    HW128619   1.421   4.943   6.219 -0.1299 -0.9463 -0.1626
 8917SOL    HW228620   1.359   4.987   6.350  0.2691  0.8712 -0.5577
 8918SOL     OW28621   6.579   1.985   8.709 -0.7273 -0.2117  0.0341
 8918SOL    HW128622   6.668   1.972   8.677 -0.7874 -2.0298  0.4923
 8918SOL    HW228623   6.525   1.993   8.630 -0.3277 -0.3965 -0.2572
 8919SOL     OW28624   6.040   1.203   1.685 -0.1444 -0.3537 -0.0055
 8919SOL    HW128625   6.089   1.175   1.762  0.1263 -1.5109 -0.5898
 8919SOL    HW228626   5.980   1.270   1.718  1.8253  1.1336  0.7194
 8920SOL     OW28627   2.662   0.995   6.457 -0.6597  0.3378  0.0316
 8920SOL    HW128628   2.651   1.083   6.493 -1.9824  0.1978  0.0142
 8920SOL    HW228629   2.691   1.010   6.367  0.9208  0.7070  0.5617
 8921SOL     OW28630   7.746   7.644   6.617  0.4838  0.0279 -0.3460
 8921SOL    HW128631   7.759   7.738   6.634  0.2496  0.0908 -0.5121
 8921SOL    HW228632   7.659   7.638   6.579 -0.0599 -0.4058  0.9214
 8922SOL     OW28633   4.312   8.292   0.865  0.7666  0.0197 -0.4295
 8922SOL    HW128634   4.242   8.357   0.863 -0.2997 -1.0728 -0.0499
 8922SOL    HW228635   4.332   8.274   0.774 -0.8934 -1.1234 -0.6110
 8923SOL     OW28636   0.012   7.485   8.556 -0.6226 -0.0033  0.0195
 8923SOL    HW128637  -0.042   7.486   8.477 -1.4474  0.4644  0.5740
 8923SOL    HW228638   0.019   7.392   8.578  0.4980 -0.2346 -1.1674
 8924SOL     OW28639   7.936   4.940   7.985 -0.2907 -0.4327 -0.3575
 8924SOL    HW128640   7.851   4.942   7.939 -0.5965  1.7846  0.1575
 8924SOL    HW228641   7.995   4.988   7.927 -0.6159  2.1798  1.3202
 8925SOL     OW28642   0.996   2.622   6.934  0.0402 -0.1033  0.5069
 8925SOL    HW128643   0.921   2.582   6.977  0.5238 -0.3191  1.1699
 8925SOL    HW228644   0.980   2.716   6.939 -0.3500 -0.1596  0.3322
 8926SOL     OW28645   8.068   0.792   4.702  0.3095 -0.0404  0.1861
 8926SOL    HW128646   8.070   0.717   4.762  2.3740 -0.7770 -0.7237
 8926SOL    HW228647   8.066   0.869   4.759 -1.2833 -0.7284  1.1385
 8927SOL     OW28648   4.577   2.228   4.300 -0.0441  0.4000  0.2088
 8927SOL    HW128649   4.579   2.211   4.394 -1.5750  1.8923  0.5794
 8927SOL    HW228650   4.668   2.244   4.276  0.4760 -0.8544  1.2408
 8928SOL     OW28651   1.988   4.409   3.610  0.2528  0.5259 -0.3938
 8928SOL    HW128652   1.982   4.422   3.515  1.6489 -0.8196 -0.6968
 8928SOL    HW228653   1.987   4.497   3.647 -1.0694  1.0484 -1.5837
 8929SOL     OW28654   6.831   5.456   3.182 -0.5307  0.2616 -0.1329
 8929SOL    HW128655   6.807   5.411   3.263 -1.4563 -0.0820 -0.5833
 8929SOL    HW228656   6.749   5.461   3.132  0.2199 -0.4218 -1.4769
 8930SOL     OW28657   5.413   6.794   2.695  0.1750 -0.2710  0.0207
 8930SOL    HW128658   5.449   6.752   2.617 -0.0091  0.0528 -0.2386
 8930SOL    HW228659   5.432   6.887   2.684 -1.6032  0.0632 -0.6172
 8931SOL     OW28660   6.502   6.116   1.951 -0.0855 -0.0128 -0.0553
 8931SOL    HW128661   6.518   6.191   2.008 -0.2842 -1.4868  2.0575
 8931SOL    HW228662   6.444   6.149   1.883 -2.8646  1.0838  2.6131
 8932SOL     OW28663   7.270   2.067   4.378 -0.6725 -0.1139  0.1682
 8932SOL    HW128664   7.192   2.121   4.370  0.0251  0.6518 -2.4660
 8932SOL    HW228665   7.285   2.033   4.290  0.7062 -2.0742  1.0862
 8933SOL     OW28666   8.060   0.469   8.899 -0.4811 -0.0819  0.5376
 8933SOL    HW128667   8.130   0.535   8.894 -1.5040  0.9774 -0.2124
 8933SOL    HW228668   8.038   0.465   8.992  0.1899 -0.0093  0.7040
 8934SOL     OW28669   8.820   0.964   6.209  0.2395 -0.2407 -0.4273
 8934SOL    HW128670   8.783   0.900   6.148  0.2904 -0.9135  0.2382
 8934SOL    HW228671   8.856   0.911   6.280 -1.3889  0.5643  1.0856
 8935SOL     OW28672   0.706   5.332   0.540 -0.3580  0.0191  0.4142
 8935SOL    HW128673   0.629   5.284   0.571 -0.4111 -0.1625 -0.0022
 8935SOL    HW228674   0.682   5.363   0.453 -0.3556  0.8746  0.7066
 8936SOL     OW28675   0.051   5.658   2.932 -0.4306  0.1848 -0.2872
 8936SOL    HW128676   0.040   5.714   3.009  0.4420 -0.0677  0.0319
 8936SOL    HW228677  -0.002   5.581   2.951 -2.1439  1.1392 -1.0007
 8937SOL     OW28678   6.045   0.056   5.720 -0.3015  0.6417 -0.3287
 8937SOL    HW128679   5.999   0.081   5.800 -0.2705  1.5169 -0.5753
 8937SOL    HW228680   5.979   0.010   5.668 -0.8807  1.7220 -0.5959
 8938SOL     OW28681   5.912   3.133   7.819 -0.2646 -0.1069 -0.0624
 8938SOL    HW128682   5.989   3.080   7.840  0.3666  0.8924  0.2353
 8938SOL    HW228683   5.888   3.174   7.902 -0.9474 -0.1869 -0.2186
 8939SOL     OW28684   6.155   5.176   1.711  0.2081  0.2906 -0.4088
 8939SOL    HW128685   6.163   5.248   1.648  2.1113  1.0626  0.6544
 8939SOL    HW228686   6.063   5.180   1.739 -0.1962  1.0973 -1.7432
 8940SOL     OW28687   8.561   0.896   8.444  0.2493 -0.2548 -0.3550
 8940SOL    HW128688   8.656   0.912   8.450  0.2709 -0.6699  0.6786
 8940SOL    HW228689   8.526   0.934   8.525 -0.4666 -0.1297 -0.7231
 8941SOL     OW28690   7.016   2.098   0.317 -0.1620 -0.0927 -0.2428
 8941SOL    HW128691   6.990   2.011   0.344 -1.2627  0.3708  0.2411
 8941SOL    HW228692   7.069   2.132   0.389 -0.3924 -0.0702 -0.0835
 8942SOL     OW28693   7.013   0.624   6.995 -0.3332 -0.2778  0.6314
 8942SOL    HW128694   7.038   0.690   6.931 -0.5791 -1.6259 -0.9149
 8942SOL    HW228695   7.092   0.572   7.008 -0.9285 -1.5644 -0.5761
 8943SOL     OW28696   7.326   5.139   0.302 -0.1794 -0.3223 -0.6085
 8943SOL    HW128697   7.330   5.044   0.295  0.5805 -0.2396 -1.4966
 8943SOL    HW228698   7.283   5.168   0.222  1.1282  0.1663 -1.1637
 8944SOL     OW28699   3.211   1.561   5.801 -0.2747 -0.3555  0.0474
 8944SOL    HW128700   3.130   1.532   5.842 -1.4846 -0.7755 -2.4476
 8944SOL    HW228701   3.229   1.495   5.734 -0.1532  1.7940 -2.1789
 8945SOL     OW28702   1.277   2.158   7.327  0.0988  0.0906 -0.2303
 8945SOL    HW128703   1.342   2.221   7.357  0.3497  0.0739 -0.7336
 8945SOL    HW228704   1.274   2.169   7.232 -0.2845 -0.2425 -0.2624
 8946SOL     OW28705   6.398   7.296   3.179 -0.0646 -0.2818 -0.1189
 8946SOL    HW128706   6.399   7.256   3.266 -0.5468 -1.4314 -0.6090
 8946SOL    HW228707   6.432   7.227   3.121  0.2506  0.4650 -0.8323
 8947SOL     OW28708   7.332   6.608   3.562  0.2566  0.1863  0.2267
 8947SOL    HW128709   7.343   6.624   3.468 -0.2959  1.7042  0.3944
 8947SOL    HW228710   7.294   6.520   3.566 -0.7689  0.5210 -1.0567
 8948SOL     OW28711   7.671   5.057   2.661 -0.1185 -0.1875 -0.4383
 8948SOL    HW128712   7.649   5.059   2.568  1.9163  0.6354 -0.9588
 8948SOL    HW228713   7.602   5.109   2.703  0.2613  1.5493 -1.8390
 8949SOL     OW28714   4.241   5.719   2.617  0.3253  0.5113  0.3029
 8949SOL    HW128715   4.161   5.721   2.564  0.4577  0.4606  0.1046
 8949SOL    HW228716   4.269   5.811   2.621  0.0954  0.5736  0.6201
 8950SOL     OW28717   4.318   8.505   7.609  0.2602  0.0980  0.1411
 8950SOL    HW128718   4.230   8.467   7.610  0.6640 -0.9059  1.8045
 8950SOL    HW228719   4.304   8.599   7.597 -1.0059 -0.1054 -0.0780
 8951SOL     OW28720   8.741   0.431   7.358 -0.0534 -0.6217  0.2306
 8951SOL    HW128721   8.767   0.469   7.442 -0.8507 -1.9399  1.1199
 8951SOL    HW228722   8.645   0.430   7.362 -0.0883 -0.9619 -0.5871
 8952SOL     OW28723   0.703   7.883   0.271 -0.2475 -0.0933  0.2049
 8952SOL    HW128724   0.612   7.882   0.242 -0.2473  3.2607 -0.2658
 8952SOL    HW228725   0.702   7.931   0.354  1.1763  0.7649 -0.2406
 8953SOL     OW28726   5.063   5.939   2.210 -0.2982  0.5191 -0.4628
 8953SOL    HW128727   4.978   5.982   2.205 -0.0139  1.4801  1.9343
 8953SOL    HW228728   5.114   5.979   2.139 -1.5144  0.6425 -1.2964
 8954SOL     OW28729   8.831   8.256   5.950  0.4800  0.2946 -0.6145
 8954SOL    HW128730   8.844   8.204   5.871  0.0504  1.2179 -1.3197
 8954SOL    HW228731   8.892   8.329   5.941  3.1302 -1.4458  1.6944
 8955SOL     OW28732   8.508   1.164   6.300 -0.4807  0.3541  0.1263
 8955SOL    HW128733   8.513   1.071   6.319 -0.0499 -0.0633 -1.7846
 8955SOL    HW228734   8.438   1.197   6.357  0.6863 -0.6995  2.2706
 8956SOL     OW28735   1.798   4.741   7.068 -0.5141  0.1072 -0.1007
 8956SOL    HW128736   1.719   4.770   7.112 -0.7248 -0.3632 -0.1642
 8956SOL    HW228737   1.772   4.726   6.977  0.1251  1.9635 -0.6287
 8957SOL     OW28738   8.285   6.395   6.239 -0.0352  0.9244 -0.4748
 8957SOL    HW128739   8.266   6.367   6.328  0.6171  3.3530  0.5125
 8957SOL    HW228740   8.323   6.318   6.197  0.5730 -0.0030  1.6423
 8958SOL     OW28741   3.449   1.402   8.961  0.4101  0.3108 -0.4352
 8958SOL    HW128742   3.472   1.359   9.044  1.0529  3.2005  1.0311
 8958SOL    HW228743   3.506   1.361   8.896  0.9808 -1.0076  0.8428
 8959SOL     OW28744   8.519   6.750   7.035 -0.8703 -0.2902 -0.2953
 8959SOL    HW128745   8.542   6.679   7.096 -0.7087  1.1522  1.3793
 8959SOL    HW228746   8.424   6.742   7.025 -0.9136 -0.5011  0.2161
 8960SOL     OW28747   8.223   3.256   0.324  0.1438 -0.5700  0.2836
 8960SOL    HW128748   8.239   3.210   0.242 -0.2879 -0.5871  0.2047
 8960SOL    HW228749   8.179   3.190   0.379  0.3339 -0.5257  0.4871
 8961SOL     OW28750   7.213   2.441   6.419 -0.3098  0.1493  0.8762
 8961SOL    HW128751   7.306   2.461   6.426 -0.2163 -0.2715  0.8996
 8961SOL    HW228752   7.170   2.526   6.410  0.2327  0.2720 -1.0568
 8962SOL     OW28753   2.059   4.456   5.653 -0.2277  0.4223 -0.7916
 8962SOL    HW128754   2.109   4.390   5.603 -0.4873  1.3764 -2.3841
 8962SOL    HW228755   1.971   4.419   5.659 -0.1054  0.1349 -0.7191
 8963SOL     OW28756   5.155   1.908   6.763 -0.0288  0.4157 -0.3357
 8963SOL    HW128757   5.150   1.886   6.670  1.5968 -0.6575 -0.2027
 8963SOL    HW228758   5.143   2.003   6.766 -1.0446  0.3481 -1.5379
 8964SOL     OW28759   3.154   8.373   0.846  0.1385  0.2070  0.4356
 8964SOL    HW128760   3.118   8.343   0.763 -0.6014  0.8053  0.5307
 8964SOL    HW228761   3.078   8.400   0.897  0.7136  2.1624  0.3691
 8965SOL     OW28762   6.699   6.238   7.257 -0.6205  0.1538 -0.3903
 8965SOL    HW128763   6.730   6.218   7.346 -0.0960 -2.4572 -1.0581
 8965SOL    HW228764   6.606   6.217   7.259 -1.1276  2.2314  0.0560
 8966SOL     OW28765   0.354   7.108   0.470 -0.0985  0.1987  0.0814
 8966SOL    HW128766   0.422   7.130   0.407  1.0386 -3.6115 -0.2445
 8966SOL    HW228767   0.400   7.098   0.553 -0.8642  0.8223  0.5997
 8967SOL     OW28768   8.478   3.307   5.369  0.2046  0.1118  0.0323
 8967SOL    HW128769   8.408   3.248   5.341  0.5669  0.0510 -0.7770
 8967SOL    HW228770   8.543   3.249   5.409  0.1700  0.0617  0.0159
 8968SOL     OW28771   5.767   6.249   2.151 -0.2235  0.7065 -0.4623
 8968SOL    HW128772   5.714   6.326   2.131 -1.1115  0.0677 -0.6808
 8968SOL    HW228773   5.705   6.176   2.143  0.8914 -0.1573 -1.5751
 8969SOL     OW28774   6.129   1.583   3.823  0.1576 -0.1170  0.2542
 8969SOL    HW128775   6.191   1.574   3.750 -0.2854  2.0973 -0.4840
 8969SOL    HW228776   6.095   1.495   3.837  0.1156 -0.6096 -2.3942
 8970SOL     OW28777   4.944   0.251   3.558  0.5583 -0.2919  0.3052
 8970SOL    HW128778   4.890   0.244   3.636  1.9362 -1.6819  1.1916
 8970SOL    HW228779   5.015   0.310   3.582 -0.1504  1.0102 -0.6418
 8971SOL     OW28780   0.056   0.094   5.310  0.0932 -0.0837  0.1335
 8971SOL    HW128781   0.023   0.089   5.220  0.5655 -2.0445  0.0432
 8971SOL    HW228782  -0.014   0.140   5.358 -0.4496  0.4053 -1.0859
 8972SOL     OW28783   8.224   6.441   5.854  0.2668  0.2514  0.3556
 8972SOL    HW128784   8.230   6.373   5.921  0.5471  0.5231  0.6084
 8972SOL    HW228785   8.143   6.488   5.876  0.2104  0.1637  0.3381
 8973SOL     OW28786   3.474   5.932   7.246  0.2566  0.0502  0.2126
 8973SOL    HW128787   3.445   6.022   7.263 -0.4659 -0.4250  1.6518
 8973SOL    HW228788   3.535   5.940   7.173  0.5420  1.7620  0.5981
 8974SOL     OW28789   2.256   0.749   3.425 -0.2991  0.2078  0.0304
 8974SOL    HW128790   2.290   0.824   3.376 -0.5365  0.4787  0.2802
 8974SOL    HW228791   2.322   0.680   3.411 -0.2557  0.3463 -0.4890
 8975SOL     OW28792   4.654   5.666   4.035 -0.7031  0.2088 -0.1369
 8975SOL    HW128793   4.646   5.660   3.939 -1.5898 -1.3979  0.0114
 8975SOL    HW228794   4.570   5.702   4.064  0.5401  3.4374 -0.1040
 8976SOL     OW28795   8.229   4.868   7.083 -0.0731 -0.2606  1.0474
 8976SOL    HW128796   8.282   4.852   7.005  0.7310  0.3336  1.4661
 8976SOL    HW228797   8.273   4.940   7.128 -2.3961  1.7706  0.3139
 8977SOL     OW28798   3.412   7.493   0.632  0.1989 -0.3799 -0.1657
 8977SOL    HW128799   3.452   7.410   0.605 -0.9278 -1.2272  0.6447
 8977SOL    HW228800   3.363   7.523   0.555 -0.5558 -1.2348 -0.0457
 8978SOL     OW28801   5.759   4.671   8.510 -0.2437 -0.0287  0.1240
 8978SOL    HW128802   5.807   4.589   8.504 -1.4696 -0.6951 -3.6528
 8978SOL    HW228803   5.691   4.655   8.575  0.6801 -1.3354  0.7996
 8979SOL     OW28804   3.503   2.030   3.888  0.1078  0.2766  0.4521
 8979SOL    HW128805   3.476   2.023   3.980  3.3300  2.9935  1.8504
 8979SOL    HW228806   3.589   1.987   3.886 -0.0128  0.0646 -1.3582
 8980SOL     OW28807   1.466   8.743   6.348  0.4348 -0.0037 -0.0180
 8980SOL    HW128808   1.512   8.691   6.282 -0.2557 -1.8889  0.9223
 8980SOL    HW228809   1.373   8.731   6.327  0.2743  1.4246 -0.1760
 8981SOL     OW28810   3.280   1.505   0.231  0.7611  0.7150  0.1499
 8981SOL    HW128811   3.312   1.573   0.172  1.2174 -1.2524 -1.9989
 8981SOL    HW228812   3.188   1.494   0.208  1.2774 -1.0399 -1.3073
 8982SOL     OW28813   3.689   0.473   3.894  0.2162  0.3560 -0.0454
 8982SOL    HW128814   3.747   0.545   3.868  0.8218 -0.1741 -0.1726
 8982SOL    HW228815   3.696   0.409   3.823 -0.8647  0.4708 -0.2768
 8983SOL     OW28816   8.936   6.987   0.375 -0.3241  0.0920 -0.3632
 8983SOL    HW128817   8.956   7.007   0.467 -0.1934  1.1772 -0.6076
 8983SOL    HW228818   8.866   6.922   0.379 -0.0995 -0.1128  0.5006
 8984SOL     OW28819   3.236   5.265   4.617  0.2988  0.6662 -0.0771
 8984SOL    HW128820   3.280   5.343   4.651 -0.3762  0.7625  0.5955
 8984SOL    HW228821   3.198   5.223   4.694 -0.9659  0.6985 -0.6570
 8985SOL     OW28822   5.022   4.540   5.130  0.3882 -0.1045  0.7439
 8985SOL    HW128823   5.083   4.558   5.059  0.4486 -0.8924  0.5924
 8985SOL    HW228824   5.060   4.583   5.206 -0.1159  1.5049  0.1291
 8986SOL     OW28825   2.707   7.396   5.859 -0.1058  0.1974 -0.1844
 8986SOL    HW128826   2.624   7.426   5.821  0.3435 -0.5562 -1.8322
 8986SOL    HW228827   2.713   7.304   5.834  1.1997  0.2228 -0.0517
 8987SOL     OW28828   6.130   3.276   0.817 -0.3105 -0.2098  0.2350
 8987SOL    HW128829   6.132   3.217   0.893 -0.3304  0.2014  0.5636
 8987SOL    HW228830   6.075   3.348   0.846 -2.0776 -1.0490 -0.9335
 8988SOL     OW28831   5.483   8.230   3.076  0.6300  0.3773 -0.4615
 8988SOL    HW128832   5.463   8.293   3.007 -0.1209  1.0568  0.3482
 8988SOL    HW228833   5.543   8.277   3.135 -2.1690  1.5066  1.7320
 8989SOL     OW28834   4.852   2.822   7.325  0.4302  0.5565  0.0575
 8989SOL    HW128835   4.802   2.857   7.252 -1.5616  0.4968  1.3222
 8989SOL    HW228836   4.816   2.735   7.340 -0.4063  1.1989  2.1379
 8990SOL     OW28837   6.037   6.660   5.077 -0.0078 -0.1991 -0.1000
 8990SOL    HW128838   5.973   6.722   5.113 -1.2748  0.6381 -3.3698
 8990SOL    HW228839   5.983   6.588   5.044  0.9131 -0.4350 -1.1368
 8991SOL     OW28840   0.432   2.272   6.473 -0.1250  0.1932  0.1084
 8991SOL    HW128841   0.500   2.271   6.541  0.7417  2.2903 -0.6399
 8991SOL    HW228842   0.428   2.181   6.442  1.2323 -0.2883  1.2312
 8992SOL     OW28843   6.377   4.100   6.287 -0.1565  0.4167 -0.7213
 8992SOL    HW128844   6.391   4.044   6.210  1.0050 -0.9475  0.4139
 8992SOL    HW228845   6.457   4.090   6.338 -0.6098  1.8621  0.3343
 8993SOL     OW28846   6.866   1.204   2.201  0.2051 -0.5353 -0.5393
 8993SOL    HW128847   6.881   1.297   2.218 -1.8793 -0.2846  0.2155
 8993SOL    HW228848   6.946   1.161   2.231  0.6046  0.8770  0.5465
 8994SOL     OW28849   3.747   1.241   5.231 -0.3688 -0.1366  0.3022
 8994SOL    HW128850   3.673   1.180   5.237 -0.3703 -0.5017 -2.3090
 8994SOL    HW228851   3.708   1.323   5.201  0.1940 -0.2452 -0.7948
 8995SOL     OW28852   8.699   5.240   6.335  0.4027 -0.3689 -0.3666
 8995SOL    HW128853   8.639   5.215   6.264 -0.2518  4.0670 -1.6913
 8995SOL    HW228854   8.644   5.284   6.399  1.5218 -1.2415  1.2692
 8996SOL     OW28855   8.110   4.059   2.419  0.2778  0.6455 -0.0831
 8996SOL    HW128856   8.024   4.100   2.419 -0.6116 -0.7628 -3.8809
 8996SOL    HW228857   8.094   3.968   2.446  0.1269 -0.0905 -2.3857
 8997SOL     OW28858   1.074   3.046   1.310 -0.1580  0.8601 -0.1244
 8997SOL    HW128859   1.130   3.024   1.235  0.8371 -1.4616  1.1940
 8997SOL    HW228860   0.988   3.011   1.286  0.1740  0.0567 -0.1964
 8998SOL     OW28861   5.083   7.943   2.502  0.3562 -0.3871 -0.1026
 8998SOL    HW128862   5.168   7.899   2.502 -0.0324 -1.2732 -2.0559
 8998SOL    HW228863   5.092   8.011   2.436 -1.0778 -1.9645 -2.0347
 8999SOL     OW28864   5.598   2.589   1.257  0.1385  0.3027  0.2520
 8999SOL    HW128865   5.543   2.637   1.319 -0.6468 -1.3591  0.9014
 8999SOL    HW228866   5.684   2.631   1.264 -0.3374  1.1611  1.2769
 9000SOL     OW28867   4.488   4.794   5.510 -0.5477  0.2073  0.2308
 9000SOL    HW128868   4.552   4.724   5.515 -1.3394 -0.4445  2.9939
 9000SOL    HW228869   4.431   4.780   5.586 -1.8826  2.7439 -0.1857
 9001SOL     OW28870   2.194   2.338   8.771 -0.2089 -0.8918 -0.1912
 9001SOL    HW128871   2.221   2.302   8.855  2.3630  1.5282  0.1806
 9001SOL    HW228872   2.271   2.327   8.715 -0.9276 -0.0520 -1.3868
 9002SOL     OW28873   1.507   1.805   5.291 -0.2604 -0.0638  0.0004
 9002SOL    HW128874   1.481   1.847   5.373  0.8208  0.4613  0.0959
 9002SOL    HW228875   1.572   1.740   5.318  1.1111  1.0357 -0.5492
 9003SOL     OW28876   4.612   7.843   8.546 -0.2380  0.5400 -0.1942
 9003SOL    HW128877   4.694   7.854   8.592 -1.7259  1.0680  2.5520
 9003SOL    HW228878   4.582   7.932   8.528  0.4268  0.3535 -2.5631
 9004SOL     OW28879   7.145   3.548   0.119  0.0623  0.0630  0.6408
 9004SOL    HW128880   7.222   3.534   0.065  1.2169 -2.6533  2.7284
 9004SOL    HW228881   7.082   3.481   0.090 -0.1500  0.0123  1.1907
 9005SOL     OW28882   8.938   6.196   8.960 -0.0881 -0.0478  0.0275
 9005SOL    HW128883   8.902   6.154   9.039 -0.4471 -1.5728 -0.9024
 9005SOL    HW228884   9.032   6.181   8.967 -0.0363  0.4577  0.5113
 9006SOL     OW28885   8.660   0.851   5.908  0.3068  0.0123 -0.2496
 9006SOL    HW128886   8.592   0.822   5.848 -1.0907  1.3828  0.6088
 9006SOL    HW228887   8.729   0.886   5.852 -1.8176  3.1659 -1.1723
 9007SOL     OW28888   3.801   0.460   8.156 -0.5751  0.0110  0.2766
 9007SOL    HW128889   3.889   0.459   8.118 -1.4033  0.4838 -1.8348
 9007SOL    HW228890   3.810   0.510   8.237  1.2037 -0.4837  0.4211
 9008SOL     OW28891   4.847   6.750   8.336 -0.4035  0.4065  0.0024
 9008SOL    HW128892   4.839   6.664   8.375 -0.4069 -0.4086 -1.7116
 9008SOL    HW228893   4.852   6.810   8.410 -1.2435 -0.9758  1.2143
 9009SOL     OW28894   1.520   2.661   2.814 -0.1472 -0.0569 -0.1837
 9009SOL    HW128895   1.553   2.623   2.896  0.0161  0.9164  0.2232
 9009SOL    HW228896   1.474   2.589   2.771  1.6052 -1.1818 -0.2806
 9010SOL     OW28897   2.881   3.015   1.008  0.0052 -0.2243  0.0944
 9010SOL    HW128898   2.813   3.013   0.941 -0.0368  0.1039  0.1233
 9010SOL    HW228899   2.921   3.101   0.998 -0.2386 -0.0327  0.7227
 9011SOL     OW28900   7.513   6.951   2.526  0.0983  0.0714  0.3018
 9011SOL    HW128901   7.558   7.035   2.523 -0.6981  0.5652  1.5171
 9011SOL    HW228902   7.555   6.899   2.458  1.7646  0.8752  0.6715
 9012SOL     OW28903   7.299   7.582   8.171 -0.3981  0.1538  0.2130
 9012SOL    HW128904   7.389   7.582   8.140 -0.3878  0.8300  0.2217
 9012SOL    HW228905   7.246   7.586   8.091 -0.6402 -4.8811 -0.1765
 9013SOL     OW28906   6.637   3.012   1.070  0.2890  0.4202  0.3780
 9013SOL    HW128907   6.648   2.968   1.154  0.1709 -0.5691 -0.1146
 9013SOL    HW228908   6.557   3.064   1.081 -0.0965 -0.2209  0.6656
 9014SOL     OW28909   0.171   5.586   8.914 -0.1179 -0.5784 -0.1370
 9014SOL    HW128910   0.125   5.625   8.839  0.4698 -2.8706 -1.7871
 9014SOL    HW228911   0.264   5.596   8.894  0.0470 -2.1411 -0.2835
 9015SOL     OW28912   2.550   5.557   7.158  0.1354  0.5910 -0.2864
 9015SOL    HW128913   2.484   5.536   7.224  1.1729  0.9497  0.9089
 9015SOL    HW228914   2.610   5.617   7.202  1.5264 -0.0855 -1.1696
 9016SOL     OW28915   0.144   1.072   1.674 -0.4471 -0.1499 -0.2806
 9016SOL    HW128916   0.096   1.145   1.635 -0.4465  0.8072  1.3902
 9016SOL    HW228917   0.232   1.106   1.688  0.3938 -1.4590 -2.1083
 9017SOL     OW28918   8.825   6.137   5.266  0.2218  0.5243 -0.6438
 9017SOL    HW128919   8.852   6.046   5.273 -1.1643  0.1551  0.2434
 9017SOL    HW228920   8.779   6.155   5.348  2.1811  2.6466  0.1153
 9018SOL     OW28921   3.245   3.328   3.822  0.4690  0.1098  0.3490
 9018SOL    HW128922   3.237   3.233   3.833 -2.9124  0.1580 -0.5511
 9018SOL    HW228923   3.271   3.339   3.731 -1.2269  0.0108 -0.1778
 9019SOL     OW28924   8.447   1.553   2.827 -0.4884  0.0386  0.0900
 9019SOL    HW128925   8.420   1.516   2.743 -1.1463 -0.3701  0.4794
 9019SOL    HW228926   8.367   1.587   2.866 -0.2261  0.0041  0.6717
 9020SOL     OW28927   2.396   7.300   6.150  0.6464 -0.6330  0.0399
 9020SOL    HW128928   2.332   7.243   6.106  1.2803 -1.6947  0.4622
 9020SOL    HW228929   2.418   7.366   6.084 -0.6139 -0.4582 -0.2333
 9021SOL     OW28930   5.527   2.375   0.555  0.0138  0.1129  0.2703
 9021SOL    HW128931   5.621   2.387   0.568 -0.2826  1.1670  1.6059
 9021SOL    HW228932   5.520   2.344   0.464  1.9465 -4.1366  1.3016
 9022SOL     OW28933   0.092   2.955   8.972 -0.3288 -0.7360 -0.0691
 9022SOL    HW128934   0.170   2.914   8.935 -0.5463 -1.3470  0.1273
 9022SOL    HW228935   0.034   2.881   8.994 -0.0584 -0.4366  1.8002
 9023SOL     OW28936   0.882   0.019   7.882 -0.2929  0.1780  0.2548
 9023SOL    HW128937   0.953   0.001   7.820 -0.3107 -2.2218  0.8349
 9023SOL    HW228938   0.896   0.110   7.908  0.9640  0.5954 -1.6496
 9024SOL     OW28939   3.866   8.624   1.430  0.4876 -0.0647 -0.0640
 9024SOL    HW128940   3.778   8.611   1.395  1.2913 -0.4650 -2.0608
 9024SOL    HW228941   3.852   8.654   1.520 -1.6489 -3.6139  0.9760
 9025SOL     OW28942   0.326   4.653   7.607  0.1417  0.1005  0.0670
 9025SOL    HW128943   0.320   4.684   7.517 -1.6048  1.4726  0.5925
 9025SOL    HW228944   0.257   4.588   7.616  1.2370 -1.1220  0.0748
 9026SOL     OW28945   2.667   8.249   5.591  0.0889  0.5112  0.0243
 9026SOL    HW128946   2.654   8.295   5.674  2.2557  2.2483 -0.4937
 9026SOL    HW228947   2.757   8.271   5.566 -0.5256  0.1015 -2.8246
 9027SOL     OW28948   0.039   4.410   5.793 -0.2842 -0.1193  0.0229
 9027SOL    HW128949   0.055   4.504   5.787 -0.7185 -0.0157  0.3815
 9027SOL    HW228950  -0.045   4.397   5.748 -1.1523 -0.0477  1.5451
 9028SOL     OW28951   5.366   2.254   4.662  0.1330  0.2892  0.3350
 9028SOL    HW128952   5.319   2.200   4.726 -2.3459 -0.1422 -1.6856
 9028SOL    HW228953   5.347   2.344   4.688 -3.2324  0.1682 -1.1836
 9029SOL     OW28954   3.743   5.575   3.674 -0.3405 -0.7951  0.2798
 9029SOL    HW128955   3.797   5.508   3.716 -1.1457 -1.4659  0.2642
 9029SOL    HW228956   3.654   5.543   3.681 -0.7400  0.2424  0.1873
 9030SOL     OW28957   1.479   2.710   7.817  0.5076 -0.2298 -0.3433
 9030SOL    HW128958   1.574   2.718   7.815  0.3438  3.2301 -0.4209
 9030SOL    HW228959   1.452   2.764   7.891 -1.3690 -2.0714  0.3719
 9031SOL     OW28960   5.446   5.976   1.539 -0.2445 -0.3044 -0.3215
 9031SOL    HW128961   5.495   5.896   1.555  0.9349  0.2551 -0.9943
 9031SOL    HW228962   5.371   5.948   1.486  1.9725 -0.5715 -3.5885
 9032SOL     OW28963   5.282   7.481   1.858  0.1843 -0.5933 -0.4692
 9032SOL    HW128964   5.377   7.468   1.862  0.6537  2.2461 -0.2819
 9032SOL    HW228965   5.267   7.513   1.769 -0.9327 -2.7551 -1.1239
 9033SOL     OW28966   6.590   3.438   1.661 -0.0356 -0.4539 -0.1662
 9033SOL    HW128967   6.616   3.519   1.705 -0.2460  0.8244 -2.2227
 9033SOL    HW228968   6.535   3.467   1.589  0.4811 -2.3727 -1.4227
 9034SOL     OW28969   4.048   3.449   4.414  0.3847 -0.1584 -0.4066
 9034SOL    HW128970   4.070   3.541   4.431  0.0764 -0.1592  0.0051
 9034SOL    HW228971   4.123   3.400   4.447 -1.0619 -0.3119  3.0034
 9035SOL     OW28972   3.222   1.703   2.378 -0.1215  0.2265 -0.2672
 9035SOL    HW128973   3.157   1.633   2.385 -0.5072  0.6599  0.9109
 9035SOL    HW228974   3.298   1.670   2.426  0.4561 -0.1729 -1.4197
 9036SOL     OW28975   8.816   6.628   1.795  0.3681 -0.0222 -0.4012
 9036SOL    HW128976   8.721   6.616   1.796  0.1453  1.3319 -1.5303
 9036SOL    HW228977   8.843   6.589   1.711  0.7145  0.1884 -0.3870
 9037SOL     OW28978   4.378   7.610   4.765 -0.3676  0.0852  0.2916
 9037SOL    HW128979   4.417   7.652   4.842 -0.5314 -0.2550  0.5653
 9037SOL    HW228980   4.363   7.519   4.793 -0.9858  0.1146  0.0664
 9038SOL     OW28981   1.651   7.424   8.116 -0.2257  0.4262  0.1481
 9038SOL    HW128982   1.602   7.470   8.184  1.9114  2.1241  0.6300
 9038SOL    HW228983   1.661   7.489   8.046  1.1421  0.0634 -0.0121
 9039SOL     OW28984   4.118   8.940   8.565  0.0892 -0.5648 -0.0871
 9039SOL    HW128985   4.034   8.901   8.592 -0.0903  0.2752  0.6211
 9039SOL    HW228986   4.184   8.879   8.598 -0.2408 -1.5621 -1.1956
 9040SOL     OW28987   6.547   0.278   0.560  0.3500 -0.3311 -0.7841
 9040SOL    HW128988   6.568   0.280   0.654  0.0012 -1.7730 -0.6440
 9040SOL    HW228989   6.619   0.325   0.518 -0.1826  1.5529  0.3009
 9041SOL     OW28990   2.837   1.137   2.638  0.5702 -0.1793  0.7320
 9041SOL    HW128991   2.802   1.049   2.627 -0.3193  0.3796 -1.2272
 9041SOL    HW228992   2.918   1.138   2.587  0.7560  0.0522  1.0242
 9042SOL     OW28993   0.094   6.251   6.225 -0.2535 -0.5878  0.5499
 9042SOL    HW128994   0.059   6.334   6.259  1.0013  0.4445 -0.5592
 9042SOL    HW228995   0.110   6.268   6.132  0.9396 -1.7604  0.5121
 9043SOL     OW28996   6.024   0.275   8.605  0.1790 -0.3008 -0.7284
 9043SOL    HW128997   5.952   0.311   8.657 -0.6315 -0.6463 -1.5744
 9043SOL    HW228998   6.053   0.197   8.653  0.7041  0.4155  0.1527
 9044SOL     OW28999   7.924   1.267   5.603  0.3436 -0.2665 -0.1501
 9044SOL    HW129000   7.988   1.198   5.622  1.4998  1.3301  2.1884
 9044SOL    HW229001   7.976   1.344   5.584 -0.9199  0.4627 -0.7867
 9045SOL     OW29002   8.294   0.429   2.606 -0.1251  0.2837 -0.1291
 9045SOL    HW129003   8.306   0.380   2.525  1.1828  0.1687  0.1073
 9045SOL    HW229004   8.201   0.447   2.610 -0.2331  0.1300 -1.5674
 9046SOL     OW29005   6.292   8.659   2.188 -0.0898 -0.4366 -0.2198
 9046SOL    HW129006   6.317   8.571   2.161  0.4672 -0.0115 -1.1675
 9046SOL    HW229007   6.277   8.706   2.105  2.4163  1.1435  0.1216
 9047SOL     OW29008   0.458   4.153   2.898 -0.4807  0.4367  0.2696
 9047SOL    HW129009   0.462   4.167   2.803 -0.2664  0.7661  0.3232
 9047SOL    HW229010   0.367   4.172   2.921 -1.1526 -1.9434 -0.2047
 9048SOL     OW29011   7.461   4.865   0.941  0.6859 -0.0306  0.3428
 9048SOL    HW129012   7.473   4.959   0.923  0.4653 -0.0753 -0.0488
 9048SOL    HW229013   7.547   4.827   0.925  1.4428  0.4360  2.8106
 9049SOL     OW29014   7.319   2.701   7.658 -0.0496 -0.7542 -0.0718
 9049SOL    HW129015   7.273   2.756   7.722  1.4762  0.0889  0.3502
 9049SOL    HW229016   7.310   2.748   7.575 -1.3411 -1.4427 -0.3499
 9050SOL     OW29017   0.786   3.824   2.760 -0.3831 -0.5321  0.0357
 9050SOL    HW129018   0.751   3.737   2.781  0.0470 -0.8734 -0.5890
 9050SOL    HW229019   0.709   3.875   2.735 -0.4071 -1.5732 -2.3365
 9051SOL     OW29020   3.269   1.903   6.257  0.1193  0.6926 -0.4834
 9051SOL    HW129021   3.182   1.920   6.292  0.6327  0.5565  0.9474
 9051SOL    HW229022   3.286   1.976   6.197 -0.5235  1.3504  0.1183
 9052SOL     OW29023   4.915   1.793   6.124 -0.4129 -0.2219  0.7292
 9052SOL    HW129024   4.890   1.722   6.066  0.0071 -1.0014  1.4810
 9052SOL    HW229025   4.988   1.758   6.175  1.3606  1.5260 -0.4787
 9053SOL     OW29026   0.669   1.668   5.345 -1.0911 -0.1903 -0.2450
 9053SOL    HW129027   0.732   1.599   5.365 -1.4430 -0.7681 -1.0866
 9053SOL    HW229028   0.584   1.628   5.363 -1.3683 -0.4121 -1.8991
 9054SOL     OW29029   2.911   6.244   6.770  0.0293  0.2583 -0.0883
 9054SOL    HW129030   2.923   6.215   6.679 -2.1820  0.0196 -0.3604
 9054SOL    HW229031   2.954   6.177   6.823 -1.3937 -1.3625 -0.8809
 9055SOL     OW29032   8.367   7.960   6.049  0.6426 -0.0730  0.2856
 9055SOL    HW129033   8.456   7.984   6.074  0.4999 -0.8064  1.5877
 9055SOL    HW229034   8.330   7.919   6.127 -1.0519  0.7717 -0.0272
 9056SOL     OW29035   3.942   7.660   8.751 -0.0012 -0.5736 -0.2589
 9056SOL    HW129036   4.018   7.698   8.706 -0.2960 -0.0435 -0.3161
 9056SOL    HW229037   3.904   7.600   8.687  0.3823 -0.8546 -0.2241
 9057SOL     OW29038   1.635   2.902   2.802  0.0555 -0.7209 -0.3989
 9057SOL    HW129039   1.589   2.821   2.779  1.2597 -1.0724 -1.6951
 9057SOL    HW229040   1.726   2.876   2.813  0.5491  0.5179 -1.3057
 9058SOL     OW29041   8.884   6.203   3.347 -0.1560 -0.2085 -0.1013
 9058SOL    HW129042   8.913   6.267   3.412  1.0566 -2.3408  1.5812
 9058SOL    HW229043   8.960   6.192   3.289  0.5422 -1.7607  1.0279
 9059SOL     OW29044   0.260   2.754   5.297 -0.8753  0.6908  0.4776
 9059SOL    HW129045   0.179   2.804   5.304 -1.1281  0.3168  0.2349
 9059SOL    HW229046   0.299   2.760   5.384  0.5174  3.6657 -0.2000
 9060SOL     OW29047   5.697   0.387   1.200  0.2088  0.5278 -0.2325
 9060SOL    HW129048   5.677   0.444   1.125  0.3923 -1.8667 -2.2118
 9060SOL    HW229049   5.727   0.448   1.268  1.4937  2.7379 -2.5643
 9061SOL     OW29050   5.058   5.540   2.529 -0.0218 -0.1771  0.1417
 9061SOL    HW129051   5.138   5.552   2.581 -0.6597  0.0167  1.0960
 9061SOL    HW229052   5.016   5.626   2.529 -0.7882 -0.5401  0.5962
 9062SOL     OW29053   6.176   3.191   7.567  0.1705  0.0409  0.6566
 9062SOL    HW129054   6.102   3.199   7.627 -0.3147 -1.0108  0.2262
 9062SOL    HW229055   6.249   3.232   7.614 -1.2252  3.5797 -0.0167
 9063SOL     OW29056   4.445   3.825   2.545  0.0318  0.6341 -0.1522
 9063SOL    HW129057   4.477   3.899   2.494 -1.1840  1.6020  0.4471
 9063SOL    HW229058   4.497   3.828   2.626  0.0381  0.7716 -0.1615
 9064SOL     OW29059   5.603   2.090   1.037  0.1980 -0.0382  0.3402
 9064SOL    HW129060   5.598   2.176   0.997 -0.4725 -1.2370 -2.3868
 9064SOL    HW229061   5.516   2.051   1.022  0.4259 -1.1470  1.6411
 9065SOL     OW29062   4.178   3.620   6.823 -0.1280  0.2654 -0.5507
 9065SOL    HW129063   4.263   3.605   6.782  0.4704  0.8073  0.4584
 9065SOL    HW229064   4.158   3.538   6.868 -0.6463 -0.2268 -1.6441
 9066SOL     OW29065   3.232   1.212   7.285  0.4321  0.4113  0.3487
 9066SOL    HW129066   3.183   1.159   7.221 -2.6910  1.4842  1.6693
 9066SOL    HW229067   3.317   1.169   7.290 -0.7777 -2.5059 -1.0796
 9067SOL     OW29068   6.632   1.321   5.189 -0.3901 -0.3543  0.2883
 9067SOL    HW129069   6.547   1.358   5.165 -0.5422 -1.8101 -1.6130
 9067SOL    HW229070   6.621   1.292   5.280 -1.3839  0.9409  0.6002
 9068SOL     OW29071   6.370   0.980   0.471 -0.0865 -0.0034  0.3127
 9068SOL    HW129072   6.391   1.049   0.534 -1.6540  0.9850 -0.1911
 9068SOL    HW229073   6.435   0.912   0.487 -0.4121  0.2269  2.9907
 9069SOL     OW29074   3.926   0.300   3.156  0.1854  0.0338  0.0136
 9069SOL    HW129075   3.832   0.313   3.141  0.5204  1.6057 -0.8942
 9069SOL    HW229076   3.948   0.222   3.104 -0.0738  1.3453 -2.1783
 9070SOL     OW29077   6.686   3.940   7.511  0.0879 -0.1270  0.0734
 9070SOL    HW129078   6.617   3.982   7.460  0.5596  2.4953  1.4268
 9070SOL    HW229079   6.646   3.924   7.597  0.4151 -1.0265  0.0711
 9071SOL     OW29080   2.728   7.138   5.517  0.2266  0.4074  0.3507
 9071SOL    HW129081   2.713   7.149   5.611  0.9496 -0.7711  0.6304
 9071SOL    HW229082   2.653   7.088   5.487 -0.9540  2.3390 -0.1036
 9072SOL     OW29083   3.177   1.029   0.362 -0.1565  0.8818  0.3627
 9072SOL    HW129084   3.106   1.057   0.419  0.5193  0.2187  1.5512
 9072SOL    HW229085   3.253   1.022   0.419  1.2063  2.7530 -1.0812
 9073SOL     OW29086   4.595   7.309   5.500  0.0914 -0.2995  0.2037
 9073SOL    HW129087   4.608   7.369   5.427  0.5818 -1.0727 -0.3607
 9073SOL    HW229088   4.576   7.366   5.575  2.0836  0.6756  0.0529
 9074SOL     OW29089   4.680   5.071   4.214 -0.3098 -0.0421 -0.3671
 9074SOL    HW129090   4.722   5.156   4.211 -0.2022 -0.0816  0.0613
 9074SOL    HW229091   4.741   5.015   4.261  0.2648 -0.7247 -1.8452
 9075SOL     OW29092   8.434   0.177   5.304  0.0564 -0.6572 -0.3249
 9075SOL    HW129093   8.501   0.237   5.271 -1.2733  1.3151  0.3277
 9075SOL    HW229094   8.351   0.221   5.284 -0.9688 -2.0208  0.7202
 9076SOL     OW29095   6.286   3.425   5.533  0.0876  0.7147  0.1255
 9076SOL    HW129096   6.302   3.354   5.595  3.1447  1.1315 -0.0233
 9076SOL    HW229097   6.259   3.381   5.452  1.0492 -0.2524  0.3058
 9077SOL     OW29098   8.597   2.598   8.043 -0.1628 -0.2663 -0.4458
 9077SOL    HW129099   8.604   2.626   7.951  0.5651  0.9279 -0.0522
 9077SOL    HW229100   8.677   2.548   8.058  1.7220  2.7663  0.5450
 9078SOL     OW29101   2.761   2.386   5.259  0.2411 -0.0457 -0.0110
 9078SOL    HW129102   2.691   2.381   5.194  0.3188  0.7851 -0.1720
 9078SOL    HW229103   2.831   2.332   5.223 -0.2297 -0.6975  0.0422
 9079SOL     OW29104   7.668   5.181   4.296  0.4322 -0.5923 -0.3545
 9079SOL    HW129105   7.677   5.097   4.251  3.5431 -1.1744  1.0760
 9079SOL    HW229106   7.669   5.246   4.226  0.3654 -1.6346 -1.3589
 9080SOL     OW29107   2.843   4.690   5.207 -0.2428 -0.2177 -0.4236
 9080SOL    HW129108   2.882   4.638   5.278 -0.5952 -1.4444 -1.1044
 9080SOL    HW229109   2.850   4.634   5.130  0.6758  1.3308 -1.5083
 9081SOL     OW29110   7.106   5.360   4.801  0.2007 -0.4509  0.3020
 9081SOL    HW129111   7.128   5.453   4.806  0.0449 -0.3232 -0.9663
 9081SOL    HW229112   7.170   5.324   4.740  0.1900 -1.1644  0.7005
 9082SOL     OW29113   0.868   5.043   2.343  0.1581  0.2416 -0.5777
 9082SOL    HW129114   0.791   5.065   2.290  0.0261  0.1445 -0.4254
 9082SOL    HW229115   0.933   5.110   2.320 -0.2249  0.7622 -0.1429
 9083SOL     OW29116   3.028   6.314   7.712  0.0017  0.1307 -0.3557
 9083SOL    HW129117   3.054   6.239   7.765  1.4191  0.4321 -0.5861
 9083SOL    HW229118   3.033   6.388   7.772  0.9196  0.3685 -0.7128
 9084SOL     OW29119   6.000   1.589   5.373  0.4120  0.3244  0.4463
 9084SOL    HW129120   6.049   1.607   5.293  0.1012  0.1570  0.2162
 9084SOL    HW229121   6.001   1.494   5.382 -0.6455  0.2550 -0.0591
 9085SOL     OW29122   2.536   4.508   1.073  0.4331  0.4187 -0.2374
 9085SOL    HW129123   2.448   4.529   1.042  0.2802  2.8025  1.5025
 9085SOL    HW229124   2.528   4.420   1.108 -1.4672  0.7736  0.3891
 9086SOL     OW29125   8.429   5.322   8.319  0.1376 -0.1006  0.0184
 9086SOL    HW129126   8.377   5.248   8.290  0.4402 -0.4800  0.4355
 9086SOL    HW229127   8.426   5.384   8.245 -1.0793 -0.0120  0.1253
 9087SOL     OW29128   2.344   2.409   2.804  0.0058  0.3389  0.1095
 9087SOL    HW129129   2.261   2.449   2.833 -0.1937  0.4142 -0.5433
 9087SOL    HW229130   2.403   2.483   2.791  0.4149  0.2285  1.3040
 9088SOL     OW29131   6.426   3.024   5.110 -0.1608  0.1405 -0.6012
 9088SOL    HW129132   6.413   3.028   5.015  0.9276 -0.2304 -0.7837
 9088SOL    HW229133   6.407   2.933   5.133  0.8264 -0.0936 -0.6781
 9089SOL     OW29134   5.781   6.690   0.690 -0.2195 -0.1276  0.0332
 9089SOL    HW129135   5.686   6.687   0.690 -0.2122 -0.4186  0.0544
 9089SOL    HW229136   5.806   6.676   0.782 -0.1215 -1.6374 -0.2019
 9090SOL     OW29137   3.251   3.614   5.773  0.3764  0.1742 -0.8232
 9090SOL    HW129138   3.303   3.694   5.781 -0.6305  0.6460  2.7538
 9090SOL    HW229139   3.256   3.573   5.859 -0.6144 -2.7297 -2.0091
 9091SOL     OW29140   3.067   3.410   4.408 -0.2960  0.5941  0.1096
 9091SOL    HW129141   3.146   3.355   4.403 -1.2437 -0.7334 -1.2776
 9091SOL    HW229142   3.075   3.469   4.334 -0.1072  1.1898  0.5994
 9092SOL     OW29143   3.425   7.741   6.556 -0.5185  0.3122 -0.1488
 9092SOL    HW129144   3.462   7.657   6.583 -1.9357  0.0184  0.9951
 9092SOL    HW229145   3.484   7.773   6.488 -0.5075 -2.0880 -1.3298
 9093SOL     OW29146   5.436   0.536   8.280  0.1839 -0.1563 -0.6330
 9093SOL    HW129147   5.366   0.472   8.298 -0.6308  1.1269  1.0349
 9093SOL    HW229148   5.516   0.491   8.307  0.0012 -1.4777 -2.1296
 9094SOL     OW29149   3.682   3.417   0.753 -0.1647 -0.2996  0.0827
 9094SOL    HW129150   3.686   3.366   0.834 -1.1935 -0.2412  0.1918
 9094SOL    HW229151   3.655   3.354   0.687  0.9583 -0.4076 -0.2809
 9095SOL     OW29152   0.164   4.787   7.775 -0.2438  0.6341  0.3109
 9095SOL    HW129153   0.208   4.820   7.853  0.9368 -0.4597  0.1521
 9095SOL    HW229154   0.228   4.799   7.705 -1.5681  2.2920 -0.6710
 9096SOL     OW29155   5.828   0.073   7.906  0.5635  0.2783 -0.0237
 9096SOL    HW129156   5.745   0.103   7.942 -0.4831 -1.9071 -0.4664
 9096SOL    HW229157   5.894   0.130   7.947 -0.6239 -1.0684  4.2923
 9097SOL     OW29158   2.135   4.830   7.280  0.4896 -0.0179  0.2624
 9097SOL    HW129159   2.087   4.905   7.246  1.0777 -0.4260 -1.5982
 9097SOL    HW229160   2.206   4.817   7.216  0.9972 -1.5227  1.0965
 9098SOL     OW29161   2.382   7.417   3.349 -0.3224  0.3626  0.1269
 9098SOL    HW129162   2.443   7.475   3.395  0.7264 -1.2344  0.8303
 9098SOL    HW229163   2.424   7.402   3.264  2.3787 -3.6874  1.8878
 9099SOL     OW29164   0.693   0.950   6.647 -0.1239  0.4216 -0.0790
 9099SOL    HW129165   0.771   0.952   6.703 -0.7887 -0.8246  0.9688
 9099SOL    HW229166   0.621   0.970   6.707 -0.5571  2.4702 -1.2165
 9100SOL     OW29167   3.987   4.900   3.888 -0.0289  0.3715  0.0480
 9100SOL    HW129168   3.900   4.889   3.851  0.1974  1.5328 -0.8840
 9100SOL    HW229169   3.981   4.863   3.976 -1.6581  1.0379  0.2506
 9101SOL     OW29170   4.373   1.307   5.964 -0.0336  0.4384 -0.2799
 9101SOL    HW129171   4.409   1.242   6.025 -0.1077 -0.9652 -1.6588
 9101SOL    HW229172   4.287   1.329   6.000  0.5525  0.8330  0.9366
 9102SOL     OW29173   6.431   2.335   8.579  0.0404 -0.3850  0.4478
 9102SOL    HW129174   6.350   2.364   8.619 -0.0520 -0.3818  0.2616
 9102SOL    HW229175   6.442   2.245   8.609  1.4471  0.4793  2.7915
 9103SOL     OW29176   6.831   6.753   3.031  0.0061  0.1935 -0.0375
 9103SOL    HW129177   6.783   6.752   2.949 -0.4542 -0.1067  0.2287
 9103SOL    HW229178   6.814   6.667   3.070 -0.8986  0.8107  0.9904
 9104SOL     OW29179   8.509   7.956   5.336 -0.5474 -0.5740  0.6378
 9104SOL    HW129180   8.555   7.971   5.419  0.0156  0.7231  0.1195
 9104SOL    HW229181   8.512   7.861   5.324  2.4323 -0.5655  0.4526
 9105SOL     OW29182   0.928   3.885   1.741 -0.4055  0.6906 -0.0531
 9105SOL    HW129183   0.940   3.798   1.779 -0.0433 -0.2226 -2.1119
 9105SOL    HW229184   0.959   3.946   1.808  2.6113 -0.9424  0.1778
 9106SOL     OW29185   5.540   3.739   5.175  0.4181 -1.5142 -0.2215
 9106SOL    HW129186   5.493   3.668   5.220 -1.1332 -0.5782 -0.2697
 9106SOL    HW229187   5.476   3.775   5.114  0.1264  1.6690  1.6887
 9107SOL     OW29188   0.513   4.784   0.532  0.3491  0.2170 -0.4888
 9107SOL    HW129189   0.596   4.826   0.558  1.0478 -0.1540 -2.0020
 9107SOL    HW229190   0.454   4.857   0.514  0.3033  0.4855  0.7160
 9108SOL     OW29191   5.320   0.153   5.339 -1.2909  0.0862  0.1609
 9108SOL    HW129192   5.365   0.081   5.295 -1.3676 -0.4567  0.9427
 9108SOL    HW229193   5.360   0.157   5.426 -1.8427  0.4641  0.4081
 9109SOL     OW29194   3.793   4.295   6.135 -0.4243 -0.0489 -0.3262
 9109SOL    HW129195   3.734   4.369   6.143 -0.5544 -0.3790  2.6157
 9109SOL    HW229196   3.877   4.327   6.168 -0.1861 -0.8730 -0.0894
 9110SOL     OW29197   4.283   5.436   3.693 -0.0685 -0.1116 -0.0314
 9110SOL    HW129198   4.302   5.405   3.781 -0.2532  0.1300  0.0942
 9110SOL    HW229199   4.295   5.531   3.698  0.7965 -0.1870 -0.4867
 9111SOL     OW29200   6.548   6.512   1.817 -0.7923 -0.2377 -0.0772
 9111SOL    HW129201   6.536   6.606   1.826 -1.5018 -0.1217 -1.8337
 9111SOL    HW229202   6.459   6.475   1.820 -0.6508 -0.6775 -0.9071
 9112SOL     OW29203   2.474   6.371   4.212 -0.4818  0.0519 -0.4438
 9112SOL    HW129204   2.464   6.450   4.266 -1.5965  0.2471 -0.9059
 9112SOL    HW229205   2.388   6.330   4.214  0.2366 -1.4972  0.2811
 9113SOL     OW29206   3.446   4.562   3.639 -0.0494  0.1037  0.2360
 9113SOL    HW129207   3.527   4.533   3.598  0.4496  1.0555  0.4995
 9113SOL    HW229208   3.407   4.621   3.574 -2.4283 -3.0977 -1.4603
 9114SOL     OW29209   2.050   0.571   8.978 -0.1891 -0.3785 -0.0822
 9114SOL    HW129210   2.039   0.521   9.059 -0.3204  0.5863  0.5110
 9114SOL    HW229211   2.096   0.651   9.005 -0.7576  0.2292 -0.8515
 9115SOL     OW29212   0.193   8.512   7.045 -0.0781 -0.0611 -0.1588
 9115SOL    HW129213   0.201   8.417   7.053 -1.6194 -0.2184 -0.2900
 9115SOL    HW229214   0.273   8.546   7.087  0.2532 -1.3876  0.3398
 9116SOL     OW29215   7.379   1.164   2.406  0.7446 -0.5699 -0.0703
 9116SOL    HW129216   7.410   1.236   2.461  0.7658  0.1025 -0.9442
 9116SOL    HW229217   7.459   1.126   2.370  0.6483  0.7157 -1.7617
 9117SOL     OW29218   8.833   0.429   0.940 -0.4935  0.8414  0.3310
 9117SOL    HW129219   8.894   0.366   0.901  0.7641  0.2055  3.0625
 9117SOL    HW229220   8.818   0.493   0.870 -0.6986 -1.6295 -2.0873
 9118SOL     OW29221   5.987   6.036   3.449 -0.1034 -0.0268 -0.4000
 9118SOL    HW129222   5.937   5.955   3.454 -0.5472  0.2621 -0.1033
 9118SOL    HW229223   6.059   6.023   3.512 -1.1040  0.4337  0.8863
 9119SOL     OW29224   4.490   5.669   6.013  0.7055 -0.0858 -0.2289
 9119SOL    HW129225   4.449   5.688   5.929  1.4255  1.5061 -0.2626
 9119SOL    HW229226   4.554   5.739   6.025 -0.1624  0.4093  2.1738
 9120SOL     OW29227   1.065   0.495   5.903 -0.7312  0.2083 -0.1442
 9120SOL    HW129228   1.049   0.401   5.902 -1.0217  0.2249  1.1514
 9120SOL    HW229229   0.990   0.533   5.857 -1.4989 -0.1000  0.8129
 9121SOL     OW29230   6.948   4.398   4.939 -0.4958 -0.3035  0.1897
 9121SOL    HW129231   7.039   4.419   4.915 -0.9150 -0.0301 -1.2308
 9121SOL    HW229232   6.925   4.464   5.004  0.6372 -0.9873  1.3510
 9122SOL     OW29233   4.909   4.673   2.912 -0.6688  0.2755  0.5757
 9122SOL    HW129234   4.987   4.703   2.958  0.6579  1.8932 -2.4504
 9122SOL    HW229235   4.859   4.753   2.897 -1.5792 -0.3656  0.1222
 9123SOL     OW29236   5.775   0.793   5.976  0.2780 -0.5801 -0.0083
 9123SOL    HW129237   5.752   0.772   6.067 -0.6714  2.5000  0.5851
 9123SOL    HW229238   5.865   0.824   5.981 -0.0876  0.5086  0.0912
 9124SOL     OW29239   5.823   0.378   4.262 -0.3783 -0.1872 -0.5967
 9124SOL    HW129240   5.881   0.302   4.261 -0.2697 -0.1103 -1.8167
 9124SOL    HW229241   5.802   0.391   4.355  0.6992 -0.8606 -0.2383
 9125SOL     OW29242   8.057   5.456   6.298 -0.1521 -0.4195  0.0136
 9125SOL    HW129243   7.997   5.512   6.249  1.2369 -1.3395 -2.9168
 9125SOL    HW229244   8.036   5.367   6.270  0.1116 -1.1006  1.8334
 9126SOL     OW29245   2.027   6.803   2.997  0.0263 -0.0534 -0.2363
 9126SOL    HW129246   2.036   6.897   3.013 -0.9920 -0.3783  2.7696
 9126SOL    HW229247   2.083   6.762   3.063  0.2540 -1.5911 -1.3342
 9127SOL     OW29248   2.854   3.536   3.789  0.2739 -0.5360 -0.0738
 9127SOL    HW129249   2.914   3.555   3.862 -0.9708 -0.3818  0.9495
 9127SOL    HW229250   2.836   3.443   3.797  0.9374 -0.7396 -0.8391
 9128SOL     OW29251   5.467   5.408   4.993  0.4890  0.0369 -0.0359
 9128SOL    HW129252   5.474   5.369   4.906  2.3385 -1.6580  0.7670
 9128SOL    HW229253   5.463   5.502   4.977  1.9773 -0.1508 -1.9549
 9129SOL     OW29254   4.061   4.236   4.920 -0.5524 -0.0791  0.0714
 9129SOL    HW129255   4.124   4.269   4.984  0.0373 -0.9977 -0.0232
 9129SOL    HW229256   4.103   4.253   4.835 -1.5010  1.4971 -0.1221
 9130SOL     OW29257   7.392   0.099   4.834 -0.1773  0.2785  0.0611
 9130SOL    HW129258   7.332   0.111   4.907 -0.6405 -0.7697 -0.1358
 9130SOL    HW229259   7.479   0.108   4.873 -0.3926 -0.9534  0.8973
 9131SOL     OW29260   5.957   3.415   3.813 -0.3896  0.5631  0.0200
 9131SOL    HW129261   5.964   3.481   3.743  0.7160 -0.0664 -0.4917
 9131SOL    HW229262   5.913   3.341   3.772 -1.5037  0.9015  0.5573
 9132SOL     OW29263   4.540   5.743   5.184  0.1636  0.0595  0.1665
 9132SOL    HW129264   4.603   5.674   5.206 -0.4993 -0.2368  1.1842
 9132SOL    HW229265   4.476   5.700   5.128  0.3773  0.1487 -0.1526
 9133SOL     OW29266   2.747   7.599   8.848  0.0462  0.1922  0.1554
 9133SOL    HW129267   2.787   7.512   8.857 -0.3105  0.0183  0.0556
 9133SOL    HW229268   2.718   7.603   8.757 -2.1920 -0.5677  0.7694
 9134SOL     OW29269   6.272   0.134   8.183  0.6750  0.2151  0.3600
 9134SOL    HW129270   6.207   0.183   8.234 -1.3695 -0.5856 -1.3524
 9134SOL    HW229271   6.261   0.043   8.210 -1.8138 -0.5533 -2.6525
 9135SOL     OW29272   8.013   2.878   8.308 -0.3872 -0.1776  0.2278
 9135SOL    HW129273   8.028   2.797   8.356  0.9949 -0.3146 -0.3839
 9135SOL    HW229274   7.965   2.851   8.230 -1.0617 -0.2091  0.6457
 9136SOL     OW29275   7.785   5.424   1.786  0.1431  0.5650 -0.2313
 9136SOL    HW129276   7.827   5.484   1.849  1.1177  0.1406 -0.4732
 9136SOL    HW229277   7.698   5.408   1.824 -0.0562  1.9447 -0.0418
 9137SOL     OW29278   0.769   8.897   6.674 -0.5417  0.0373  0.3688
 9137SOL    HW129279   0.840   8.914   6.736 -0.5726  0.1534  0.3724
 9137SOL    HW229280   0.754   8.981   6.631 -1.0269  0.1430  0.7320
 9138SOL     OW29281   2.250   6.437   1.141 -0.3150 -0.7746 -0.0383
 9138SOL    HW129282   2.202   6.390   1.073  0.2556 -0.3408 -0.7514
 9138SOL    HW229283   2.340   6.405   1.135 -0.3321 -0.9867  0.7440
 9139SOL     OW29284   1.330   4.141   4.486  0.0020  0.3511  0.0201
 9139SOL    HW129285   1.399   4.188   4.438  0.2576 -0.5233 -0.4882
 9139SOL    HW229286   1.368   4.056   4.506 -0.7736  0.0209  0.1283
 9140SOL     OW29287   0.019   1.281   6.196 -0.3981 -0.0269  0.1277
 9140SOL    HW129288   0.056   1.249   6.114  0.4391  0.3437  0.3577
 9140SOL    HW229289  -0.075   1.267   6.186 -0.4091  0.7698 -1.2417
 9141SOL     OW29290   3.690   6.843   6.903  0.3812  0.1018 -0.1518
 9141SOL    HW129291   3.620   6.866   6.842 -0.2687  2.4602  1.3358
 9141SOL    HW229292   3.649   6.785   6.966  0.5343 -0.7478 -0.8190
 9142SOL     OW29293   0.112   3.412   2.269 -0.5298 -0.1453 -0.3870
 9142SOL    HW129294   0.144   3.331   2.230 -0.0225  0.0213 -0.3298
 9142SOL    HW229295   0.017   3.402   2.272 -0.3870 -1.4653  1.2300
 9143SOL     OW29296   1.817   2.036   8.262  0.2297  0.0572 -0.4152
 9143SOL    HW129297   1.773   2.120   8.275  0.7023  0.3637 -0.7642
 9143SOL    HW229298   1.910   2.058   8.261  0.2988 -0.1514 -2.6543
 9144SOL     OW29299   8.936   7.735   5.463  0.4748  0.1272 -0.3852
 9144SOL    HW129300   8.947   7.829   5.453 -0.4796  0.2411 -0.4365
 9144SOL    HW229301   8.850   7.725   5.503  0.6361 -0.7210 -0.2271
 9145SOL     OW29302   6.833   0.509   7.383  0.4290 -0.0607 -0.0114
 9145SOL    HW129303   6.873   0.436   7.431  1.7418  0.4013 -0.3652
 9145SOL    HW229304   6.902   0.574   7.376 -0.5258  0.9592 -0.2873
 9146SOL     OW29305   8.970   8.049   5.465 -0.2342 -0.6512 -0.0599
 9146SOL    HW129306   9.061   8.020   5.460  0.3004  0.8682  0.1197
 9146SOL    HW229307   8.961   8.110   5.392 -1.0044 -0.5219  0.1359
 9147SOL     OW29308   5.903   2.270   4.684  0.1324 -1.1601  0.4876
 9147SOL    HW129309   5.824   2.229   4.717 -0.0041  0.9664  3.1241
 9147SOL    HW229310   5.962   2.273   4.759  1.0177  1.2237 -0.2118
 9148SOL     OW29311   6.118   4.281   3.828 -0.2047  0.5825  0.1109
 9148SOL    HW129312   6.081   4.369   3.830  0.3543  0.8136  1.4087
 9148SOL    HW229313   6.192   4.287   3.767 -1.1244  0.5865 -1.0336
 9149SOL     OW29314   1.970   5.976   0.113  0.3720  0.2630 -0.1367
 9149SOL    HW129315   2.045   5.922   0.137 -0.4436 -0.7908  0.1160
 9149SOL    HW229316   1.974   5.981   0.017  1.5380  1.4068 -0.0687
 9150SOL     OW29317   8.327   0.649   7.904 -0.9524 -0.2335 -0.4369
 9150SOL    HW129318   8.316   0.554   7.906  2.3446 -0.7508 -1.3511
 9150SOL    HW229319   8.391   0.667   7.973 -2.4098  1.5432  0.5396
 9151SOL     OW29320   5.913   7.552   5.103 -0.2639 -0.3082 -0.3022
 9151SOL    HW129321   5.967   7.596   5.037 -0.0852  0.0423  0.0725
 9151SOL    HW229322   5.824   7.559   5.071 -0.3648  1.2599  0.2524
 9152SOL     OW29323   4.692   1.175   0.538 -0.7454  0.3091 -0.2971
 9152SOL    HW129324   4.654   1.156   0.451 -2.0062  0.1709  0.2600
 9152SOL    HW229325   4.637   1.245   0.573 -0.6000 -0.0304  0.6219
 9153SOL     OW29326   0.113   6.147   7.919  0.1284  0.4446 -0.7992
 9153SOL    HW129327   0.165   6.135   7.840 -0.0993  2.1193 -1.2405
 9153SOL    HW229328   0.163   6.210   7.972 -0.3245  0.2939 -0.1728
 9154SOL     OW29329   7.672   8.762   6.140  0.0932  0.4075 -0.1563
 9154SOL    HW129330   7.593   8.799   6.101  0.4994  2.8363  1.0692
 9154SOL    HW229331   7.736   8.762   6.069 -0.2585  1.0245 -0.4845
 9155SOL     OW29332   1.213   4.083   0.227 -0.0796 -0.0283 -0.2706
 9155SOL    HW129333   1.150   4.028   0.273  1.3228 -0.5305  1.1440
 9155SOL    HW229334   1.168   4.108   0.146 -2.0052 -0.4762  0.6000
 9156SOL     OW29335   3.205   5.288   7.214 -0.9975  0.1034  0.9169
 9156SOL    HW129336   3.256   5.209   7.232  2.0318  1.6269 -0.1359
 9156SOL    HW229337   3.238   5.352   7.278 -0.0600  1.7016 -1.0585
 9157SOL     OW29338   5.917   0.948   5.552 -0.5873 -0.3959 -0.5536
 9157SOL    HW129339   5.826   0.956   5.579 -0.7641  0.4740 -1.3560
 9157SOL    HW229340   5.937   0.855   5.562 -1.1145 -0.3693  0.9705
 9158SOL     OW29341   2.887   1.695   4.867 -0.2661  0.0953  0.0918
 9158SOL    HW129342   2.954   1.628   4.879 -0.1992  0.0082 -0.6783
 9158SOL    HW229343   2.814   1.648   4.825  0.1957  0.6969 -1.4577
 9159SOL     OW29344   6.500   5.916   3.309 -0.6710 -0.0760  0.3426
 9159SOL    HW129345   6.577   5.865   3.336 -0.5060  0.7181  1.4047
 9159SOL    HW229346   6.517   5.936   3.217 -1.2905 -2.8994 -0.4796
 9160SOL     OW29347   5.325   1.726   1.758  0.3150  0.6194  0.1417
 9160SOL    HW129348   5.258   1.782   1.798 -0.9430 -0.8846  0.2142
 9160SOL    HW229349   5.300   1.723   1.666  0.7568  0.6882  0.0213
 9161SOL     OW29350   8.047   5.886   3.719 -0.2595  0.6070  0.5368
 9161SOL    HW129351   8.128   5.836   3.724  0.2447  1.5348  2.1203
 9161SOL    HW229352   8.072   5.968   3.677 -0.6759  0.3572 -0.2225
 9162SOL     OW29353   4.588   6.818   0.458  0.0635 -0.1475  0.0235
 9162SOL    HW129354   4.612   6.850   0.544 -0.4674  1.6560 -0.4441
 9162SOL    HW229355   4.581   6.723   0.468  0.3040 -0.0014  1.8729
 9163SOL     OW29356   8.200   1.759   5.241  0.4128 -0.1813 -0.0613
 9163SOL    HW129357   8.219   1.705   5.318 -1.3461 -0.0425  0.5062
 9163SOL    HW229358   8.255   1.837   5.253  0.5664 -0.4049  0.7649
 9164SOL     OW29359   7.034   2.081   5.766 -0.0646  0.0223  0.4141
 9164SOL    HW129360   6.955   2.119   5.728 -0.4745 -1.6451 -0.5347
 9164SOL    HW229361   7.001   2.016   5.829  0.5097 -0.8400 -0.1471
 9165SOL     OW29362   5.297   3.325   6.036 -0.6331  0.2140  0.7512
 9165SOL    HW129363   5.222   3.274   6.006 -1.4464  2.9387 -2.3441
 9165SOL    HW229364   5.331   3.275   6.111 -2.3200 -3.8903 -0.9068
 9166SOL     OW29365   7.974   5.315   1.357  0.6068  0.6401  0.2033
 9166SOL    HW129366   7.972   5.342   1.449 -0.0458  0.3860  0.2710
 9166SOL    HW229367   7.882   5.294   1.336  0.9923 -0.9629  0.0007
 9167SOL     OW29368   5.948   2.728   8.609 -0.6919 -0.0544 -0.6289
 9167SOL    HW129369   6.038   2.701   8.622 -0.6639  0.8880  1.5288
 9167SOL    HW229370   5.896   2.650   8.628 -0.3475 -0.6450 -2.0479
 9168SOL     OW29371   0.874   7.215   7.292 -0.0471  0.0803  0.0776
 9168SOL    HW129372   0.867   7.279   7.362  0.1772 -0.3200  0.4707
 9168SOL    HW229373   0.784   7.190   7.273 -0.0709 -0.2929  0.6749
 9169SOL     OW29374   2.019   5.640   3.190  0.0295  0.4333  0.4744
 9169SOL    HW129375   1.959   5.671   3.257 -1.9311  0.8624 -1.3652
 9169SOL    HW229376   1.975   5.661   3.107  2.4421  0.1602 -0.9616
 9170SOL     OW29377   2.153   1.674   5.791  0.0664 -0.3676  0.0323
 9170SOL    HW129378   2.205   1.625   5.728  0.4274 -1.4455  1.1315
 9170SOL    HW229379   2.081   1.616   5.814 -1.1128  0.7317 -0.7289
 9171SOL     OW29380   7.260   5.481   2.172  0.0819 -0.0079  0.1386
 9171SOL    HW129381   7.171   5.490   2.136 -0.2222 -2.2390  0.1748
 9171SOL    HW229382   7.307   5.558   2.139 -1.5879  0.7108 -0.7009
 9172SOL     OW29383   7.603   2.113   5.166 -0.2802 -0.0600 -1.0772
 9172SOL    HW129384   7.686   2.086   5.128  1.3812  0.6928  1.7458
 9172SOL    HW229385   7.600   2.208   5.153 -0.5966 -0.0531 -0.9639
 9173SOL     OW29386   6.168   7.137   1.163  0.2374  0.0796  0.2204
 9173SOL    HW129387   6.119   7.210   1.201  0.5551  0.8143 -0.7212
 9173SOL    HW229388   6.260   7.161   1.177  0.3977  0.7952 -1.6581
 9174SOL     OW29389   6.427   8.762   6.645  0.3164  0.3254  0.4824
 9174SOL    HW129390   6.493   8.805   6.591 -0.5263  1.0811  0.0229
 9174SOL    HW229391   6.353   8.822   6.645 -0.8373 -1.0453 -0.0166
 9175SOL     OW29392   1.211   0.358   0.770 -0.3713 -0.1142 -0.0362
 9175SOL    HW129393   1.221   0.397   0.683  1.3654  0.1460  0.2471
 9175SOL    HW229394   1.129   0.309   0.765 -0.6236  0.4108 -1.6126
 9176SOL     OW29395   8.879   3.140   4.261  0.0919 -0.1673 -0.2026
 9176SOL    HW129396   8.890   3.082   4.336 -0.1070  1.3623  1.0653
 9176SOL    HW229397   8.814   3.096   4.206 -1.8017 -0.1265  1.8462
 9177SOL     OW29398   8.633   3.579   4.643  0.1970 -0.3404  0.7110
 9177SOL    HW129399   8.675   3.594   4.729 -0.0824 -1.4122  1.0473
 9177SOL    HW229400   8.583   3.498   4.655  1.8714 -1.7157 -1.0838
 9178SOL     OW29401   0.470   0.620   5.048 -0.4437  0.0454 -0.1781
 9178SOL    HW129402   0.407   0.611   4.977 -3.0681  1.7244  1.7331
 9178SOL    HW229403   0.441   0.557   5.114  0.8275 -0.2053  0.1688
 9179SOL     OW29404   7.706   5.026   7.282  0.5091  0.2827  0.4004
 9179SOL    HW129405   7.655   5.091   7.330 -0.0750 -0.5642  0.9430
 9179SOL    HW229406   7.797   5.048   7.301  0.4337  2.4982 -1.4701
 9180SOL     OW29407   6.480   5.552   1.044 -0.3229  0.0619  0.2856
 9180SOL    HW129408   6.446   5.637   1.014 -0.4821  0.0136  0.3279
 9180SOL    HW229409   6.456   5.491   0.974  0.9074  0.2765 -0.3520
 9181SOL     OW29410   7.572   6.982   1.624 -0.6473  0.2399 -0.0337
 9181SOL    HW129411   7.648   6.982   1.682 -0.5576  1.6830 -0.1348
 9181SOL    HW229412   7.500   7.014   1.678 -1.3039 -1.4808  0.1714
 9182SOL     OW29413   5.329   4.739   2.883  0.1326  0.4722  0.6067
 9182SOL    HW129414   5.322   4.655   2.838  0.3157  0.3400  0.8224
 9182SOL    HW229415   5.364   4.798   2.817 -0.0593  0.3959  0.4344
 9183SOL     OW29416   1.077   1.345   4.385 -0.3206 -0.4240 -0.1914
 9183SOL    HW129417   1.051   1.437   4.392  3.6741  0.8011  1.1015
 9183SOL    HW229418   1.105   1.336   4.294 -2.3701 -1.0008 -0.8324
 9184SOL     OW29419   3.814   6.207   4.196  0.3639 -0.1894  0.0314
 9184SOL    HW129420   3.796   6.299   4.178 -0.6562 -0.4364 -0.2427
 9184SOL    HW229421   3.778   6.192   4.283  0.1892 -0.4192 -0.0787
 9185SOL     OW29422   4.257   2.719   5.948  0.0996  0.5635 -0.4859
 9185SOL    HW129423   4.242   2.646   5.888  0.0424  0.0310  0.1660
 9185SOL    HW229424   4.307   2.783   5.896 -1.1967  0.7568 -1.5425
 9186SOL     OW29425   3.324   8.611   5.648  0.2082  0.6797  0.3419
 9186SOL    HW129426   3.234   8.627   5.678  0.1082 -1.4320  1.3363
 9186SOL    HW229427   3.317   8.611   5.553 -0.3998  2.6949  0.3403
 9187SOL     OW29428   8.311   4.326   6.308 -0.7212 -0.3266  0.0316
 9187SOL    HW129429   8.330   4.252   6.367  0.3359 -0.1631 -0.0723
 9187SOL    HW229430   8.361   4.399   6.346  1.7994 -0.7303 -2.1955
 9188SOL     OW29431   0.271   7.513   7.502 -0.0583  0.0306  0.1948
 9188SOL    HW129432   0.284   7.439   7.442 -0.9766 -1.2077  1.4387
 9188SOL    HW229433   0.337   7.499   7.571  1.2606  1.6609 -0.6591
 9189SOL     OW29434   0.669   3.802   7.381  0.0153 -0.4252 -0.2586
 9189SOL    HW129435   0.681   3.842   7.295  1.1114  1.6067  0.7755
 9189SOL    HW229436   0.744   3.832   7.432 -1.7966  0.3945  2.1118
 9190SOL     OW29437   2.795   4.323   8.238  0.2827  0.5851 -0.0798
 9190SOL    HW129438   2.877   4.324   8.187 -0.4181  0.0914 -1.2599
 9190SOL    HW229439   2.815   4.269   8.314  1.4321  1.5293  0.3171
 9191SOL     OW29440   6.281   3.664   3.650  0.8498 -0.1875 -0.0151
 9191SOL    HW129441   6.190   3.648   3.629  0.3655  4.0075 -1.9206
 9191SOL    HW229442   6.330   3.613   3.586 -0.2845  0.4203 -1.4081
 9192SOL     OW29443   1.561   5.628   2.526 -0.4098 -0.0265  0.2558
 9192SOL    HW129444   1.653   5.614   2.506 -0.7541  0.2005 -1.6468
 9192SOL    HW229445   1.518   5.546   2.503 -0.8123  0.1856  0.2428
 9193SOL     OW29446   5.087   6.901   3.812 -0.1970 -0.4307  0.1100
 9193SOL    HW129447   5.087   6.952   3.893  2.6436  0.3642 -0.2813
 9193SOL    HW229448   5.083   6.967   3.743  0.0996 -0.9399 -0.4023
 9194SOL     OW29449   7.278   8.267   0.734  0.5682 -0.4958  0.1351
 9194SOL    HW129450   7.255   8.176   0.754  0.1204 -0.5116 -0.4262
 9194SOL    HW229451   7.372   8.271   0.748  0.6923 -1.2067 -0.4180
 9195SOL     OW29452   3.861   8.104   5.114 -0.6155  0.4469  0.1339
 9195SOL    HW129453   3.811   8.103   5.196 -2.1340  0.3396 -0.7596
 9195SOL    HW229454   3.828   8.180   5.066 -1.2144 -0.6152 -1.2255
 9196SOL     OW29455   7.669   7.330   2.152 -0.3487  0.1607  0.7320
 9196SOL    HW129456   7.712   7.410   2.184 -1.2107  1.5493 -1.3725
 9196SOL    HW229457   7.739   7.282   2.107  0.8600 -1.7811  4.2715
 9197SOL     OW29458   4.428   8.212   4.746  0.0725 -0.2976  0.6626
 9197SOL    HW129459   4.486   8.149   4.789 -0.9024 -1.8622 -0.1912
 9197SOL    HW229460   4.436   8.192   4.653  0.8422  1.8751  0.1951
 9198SOL     OW29461   5.646   3.077   4.805  0.1079  0.8252  0.0920
 9198SOL    HW129462   5.729   3.123   4.810  1.4350 -1.2940 -1.0045
 9198SOL    HW229463   5.646   3.036   4.719 -1.7481  0.1694  0.3553
 9199SOL     OW29464   1.267   6.493   2.540  0.1420  0.0406 -0.4199
 9199SOL    HW129465   1.355   6.458   2.526  0.9166  2.3477 -1.8036
 9199SOL    HW229466   1.229   6.497   2.452 -0.6555  0.7227 -0.0533
 9200SOL     OW29467   6.950   3.991   8.065  0.0489  0.0915  0.0696
 9200SOL    HW129468   7.023   4.011   8.007 -1.5761  1.0972 -1.7640
 9200SOL    HW229469   6.880   3.961   8.007 -0.5126 -2.5087  1.9174
 9201SOL     OW29470   7.644   5.163   0.239 -0.3463 -0.7863  0.0320
 9201SOL    HW129471   7.575   5.176   0.304  1.1142  0.7359  1.3614
 9201SOL    HW229472   7.697   5.091   0.274 -0.1707 -0.6871 -0.0287
 9202SOL     OW29473   6.939   0.078   6.894  0.4713 -0.3809  0.1683
 9202SOL    HW129474   6.930   0.094   6.800  0.8695  0.4517  0.2563
 9202SOL    HW229475   6.984   0.156   6.927  1.1553 -1.0706  0.9016
 9203SOL     OW29476   8.731   8.308   1.306  0.5499 -0.1051 -0.3613
 9203SOL    HW129477   8.669   8.250   1.351  0.9906 -0.4338 -0.1742
 9203SOL    HW229478   8.679   8.385   1.283 -0.0835 -0.6342 -0.7525
 9204SOL     OW29479   7.475   7.915   6.913  0.2794  0.1193 -0.6725
 9204SOL    HW129480   7.422   7.982   6.956  0.1493 -0.5855  0.3007
 9204SOL    HW229481   7.455   7.924   6.820  2.0414  2.9916 -0.8768
 9205SOL     OW29482   5.467   7.149   8.770  0.5640  0.8388 -0.1284
 9205SOL    HW129483   5.471   7.212   8.697 -0.9393  0.9300 -0.1553
 9205SOL    HW229484   5.461   7.204   8.848 -0.3056  0.7336 -0.1199
 9206SOL     OW29485   7.389   1.268   5.310  0.6005  0.7562  0.4605
 9206SOL    HW129486   7.476   1.267   5.269 -0.6542 -0.5324 -2.5312
 9206SOL    HW229487   7.380   1.181   5.349  0.3108  0.4911 -0.1724
 9207SOL     OW29488   7.314   8.753   2.891 -0.4887  0.2786  0.2687
 9207SOL    HW129489   7.328   8.848   2.901 -2.9640  0.5823  1.8098
 9207SOL    HW229490   7.307   8.721   2.981 -2.6686 -0.8062 -0.2267
 9208SOL     OW29491   4.207   3.696   1.231 -0.0630 -0.0311  0.2624
 9208SOL    HW129492   4.171   3.607   1.231  0.1304 -0.1229  1.3807
 9208SOL    HW229493   4.170   3.737   1.153 -0.5036 -0.9553 -0.0264
 9209SOL     OW29494   8.520   3.614   1.112  0.2831 -0.5591 -0.0971
 9209SOL    HW129495   8.460   3.585   1.044 -1.5344  2.0296  0.2308
 9209SOL    HW229496   8.484   3.578   1.193 -0.2357  0.1187 -0.0202
 9210SOL     OW29497   1.026   4.268   7.623  0.2070 -0.3312  0.0456
 9210SOL    HW129498   0.989   4.339   7.571  0.5902  0.1686  0.4415
 9210SOL    HW229499   0.952   4.236   7.675 -0.1084 -0.6379 -0.5820
 9211SOL     OW29500   5.386   6.914   1.842  0.3924 -0.0572 -0.3954
 9211SOL    HW129501   5.390   6.991   1.785 -1.1570  0.1988 -0.1905
 9211SOL    HW229502   5.297   6.915   1.877  1.5693  0.3943  2.8640
 9212SOL     OW29503   6.554   7.012   4.256 -0.3399  0.5054 -0.0399
 9212SOL    HW129504   6.640   6.981   4.227 -0.1558  0.4392  0.5632
 9212SOL    HW229505   6.493   6.945   4.225 -0.0826  0.1535  0.2141
 9213SOL     OW29506   4.944   6.275   7.240 -0.2112 -0.2434  0.0838
 9213SOL    HW129507   5.011   6.336   7.272  1.5137 -1.4939 -0.9673
 9213SOL    HW229508   4.957   6.195   7.291 -0.9409 -0.5072 -0.1267
 9214SOL     OW29509   0.492   8.291   5.310 -0.0971  0.3745  0.2484
 9214SOL    HW129510   0.432   8.321   5.378  2.1685  4.2442  0.8013
 9214SOL    HW229511   0.564   8.250   5.357 -0.4918 -0.9117 -0.2021
 9215SOL     OW29512   2.709   3.093   1.855  0.4188 -0.7665 -0.7894
 9215SOL    HW129513   2.741   3.002   1.847 -0.5054 -1.0415 -1.4921
 9215SOL    HW229514   2.616   3.084   1.873  0.6062  0.0395  0.7737
 9216SOL     OW29515   2.058   3.711   0.163  0.3128 -0.2026  0.0613
 9216SOL    HW129516   2.043   3.797   0.202  0.0828 -0.7843  1.2916
 9216SOL    HW229517   2.003   3.651   0.214  1.8083 -1.3512  0.3903
 9217SOL     OW29518   5.322   3.070   0.512  0.5638  0.2535  0.0812
 9217SOL    HW129519   5.309   2.983   0.551  0.2126  0.6567  0.8786
 9217SOL    HW229520   5.240   3.116   0.528  1.1471  1.1174  0.6876
 9218SOL     OW29521   5.443   0.892   8.765  0.5620 -0.0528 -0.0279
 9218SOL    HW129522   5.432   0.815   8.709 -0.3706  0.5417 -0.7016
 9218SOL    HW229523   5.537   0.911   8.762  0.7875 -1.0997  0.0762
 9219SOL     OW29524   7.945   8.151   0.051 -0.1375 -0.1370  0.1232
 9219SOL    HW129525   7.925   8.234   0.094  2.0799  1.5166 -1.7889
 9219SOL    HW229526   7.989   8.099   0.118  0.8370  1.3044  0.6437
 9220SOL     OW29527   5.529   5.616   4.397 -0.3850  0.3647  0.7983
 9220SOL    HW129528   5.455   5.649   4.447 -0.2973 -0.7620  1.7191
 9220SOL    HW229529   5.556   5.536   4.444  0.3595 -0.1489 -0.4548
 9221SOL     OW29530   0.836   1.806   8.730 -0.2451 -0.5255 -0.3114
 9221SOL    HW129531   0.842   1.776   8.820 -0.3375 -0.4598 -0.2832
 9221SOL    HW229532   0.743   1.824   8.717 -0.0377  0.9328  0.0522
 9222SOL     OW29533   4.568   0.966   3.809  0.4729 -0.3241 -0.0900
 9222SOL    HW129534   4.627   1.006   3.745  0.6469 -1.2973 -0.5512
 9222SOL    HW229535   4.510   1.038   3.836  0.1267  0.0215 -1.6353
 9223SOL     OW29536   8.907   4.711   0.928  0.0031 -0.2407 -0.7047
 9223SOL    HW129537   8.969   4.727   0.999 -1.8471  1.3616  0.6160
 9223SOL    HW229538   8.923   4.782   0.866  0.4280 -0.6365 -1.0535
 9224SOL     OW29539   1.173   3.219   4.223 -0.2195 -0.3464 -0.7978
 9224SOL    HW129540   1.138   3.289   4.168  1.0241  0.5103 -0.5444
 9224SOL    HW229541   1.209   3.155   4.161  0.8702  0.4525 -1.0280
 9225SOL     OW29542   4.522   3.309   8.529  0.5750 -0.1760 -0.6123
 9225SOL    HW129543   4.523   3.335   8.621 -0.0798 -2.4445  0.1148
 9225SOL    HW229544   4.429   3.312   8.504  0.8620  1.6620 -1.6378
 9226SOL     OW29545   2.735   8.848   7.427  0.5344  0.8149 -0.4802
 9226SOL    HW129546   2.712   8.809   7.511  0.9070  1.1459 -0.2220
 9226SOL    HW229547   2.770   8.934   7.449 -1.4403  1.8499 -1.1008
 9227SOL     OW29548   6.515   7.760   7.222  0.1431  0.4511 -0.8897
 9227SOL    HW129549   6.553   7.833   7.174  0.8138  0.4458 -0.3785
 9227SOL    HW229550   6.569   7.752   7.301 -0.6513  0.1699 -0.3534
 9228SOL     OW29551   0.944   4.160   4.648 -0.2626 -0.4945 -0.3764
 9228SOL    HW129552   0.866   4.107   4.630  0.0991 -0.6529 -1.5554
 9228SOL    HW229553   0.947   4.224   4.577  1.3907 -1.3203 -1.1131
 9229SOL     OW29554   2.114   1.364   7.964  0.0087 -0.3451 -0.1489
 9229SOL    HW129555   2.080   1.339   7.878 -1.4871  0.8057  0.0581
 9229SOL    HW229556   2.044   1.417   8.002  0.7717 -0.5853  1.6600
 9230SOL     OW29557   4.551   8.809   1.256  0.3226  0.0064 -0.5766
 9230SOL    HW129558   4.608   8.752   1.307 -1.6538 -2.2347 -0.6771
 9230SOL    HW229559   4.544   8.766   1.170 -1.6646  0.0116 -0.4816
 9231SOL     OW29560   8.091   1.382   1.412  0.1143  0.1397 -0.4996
 9231SOL    HW129561   8.142   1.399   1.333  0.7059 -0.7333 -0.3205
 9231SOL    HW229562   8.004   1.359   1.379 -0.5379  2.6897 -0.7688
 9232SOL     OW29563   7.057   2.457   8.453 -0.1824 -0.6031 -0.1139
 9232SOL    HW129564   7.076   2.420   8.366  0.2420  0.2281 -0.3979
 9232SOL    HW229565   6.981   2.513   8.439 -0.3250 -0.7377  0.1256
 9233SOL     OW29566   3.519   3.227   3.905  0.7626  0.5722 -0.3102
 9233SOL    HW129567   3.604   3.203   3.941  0.9872  0.2607 -1.0487
 9233SOL    HW229568   3.534   3.241   3.812  0.4174  2.5284 -0.1245
 9234SOL     OW29569   6.962   6.178   0.555 -0.1048  0.5732  0.4709
 9234SOL    HW129570   6.920   6.253   0.513 -0.3468 -0.6700 -1.6435
 9234SOL    HW229571   7.050   6.209   0.577 -0.3652  1.6276  0.0902
 9235SOL     OW29572   0.929   8.749   8.450  0.3948 -0.2118 -0.2603
 9235SOL    HW129573   0.959   8.811   8.383  0.7058 -0.3501 -0.2516
 9235SOL    HW229574   0.882   8.804   8.513  1.5770  0.1999  0.3065
 9236SOL     OW29575   1.011   6.375   4.739  0.1869  0.3430  0.0635
 9236SOL    HW129576   0.971   6.436   4.676 -3.3002 -0.5697  1.2079
 9236SOL    HW229577   1.004   6.289   4.697  1.3723  0.1785  0.1581
 9237SOL     OW29578   8.162   6.800   6.785  0.3808  0.2596  0.2291
 9237SOL    HW129579   8.092   6.743   6.751  0.2962 -0.2143  1.1761
 9237SOL    HW229580   8.210   6.745   6.846  1.3341  0.7200 -0.0895
 9238SOL     OW29581   4.711   2.269   5.178  0.5240  0.1102  0.1873
 9238SOL    HW129582   4.657   2.190   5.175 -0.7349  0.9595 -0.2179
 9238SOL    HW229583   4.799   2.237   5.196  0.1864 -1.4501 -0.7768
 9239SOL     OW29584   4.747   6.845   4.153  0.1988  0.0412 -0.1804
 9239SOL    HW129585   4.763   6.836   4.059  2.5222  1.8400 -0.0641
 9239SOL    HW229586   4.685   6.918   4.159  0.2686  0.1158 -0.3323
 9240SOL     OW29587   6.098   0.928   0.885 -0.2243 -0.4618 -0.1642
 9240SOL    HW129588   6.021   0.985   0.884  1.0085  1.2501 -1.0299
 9240SOL    HW229589   6.128   0.926   0.794  1.1273 -0.5935  0.2578
 9241SOL     OW29590   6.227   1.245   1.230  0.2241 -0.4688  0.1923
 9241SOL    HW129591   6.264   1.168   1.186 -2.0424  0.0060 -2.9212
 9241SOL    HW229592   6.180   1.210   1.306  0.6249 -1.9603 -0.2239
 9242SOL     OW29593   4.823   7.004   6.341 -0.2378  0.1177  0.7600
 9242SOL    HW129594   4.827   7.015   6.436 -0.1970  1.7972  0.5866
 9242SOL    HW229595   4.740   6.960   6.325  0.0796 -0.8257  1.6119
 9243SOL     OW29596   7.719   0.673   3.510  0.0005 -0.3215 -0.0255
 9243SOL    HW129597   7.728   0.705   3.600 -1.4716  1.8707 -0.5648
 9243SOL    HW229598   7.739   0.749   3.455 -0.5851 -1.1986 -1.5186
 9244SOL     OW29599   6.939   4.815   0.099 -0.1349 -0.5935 -0.2293
 9244SOL    HW129600   6.916   4.783   0.012  1.0652 -1.8543 -0.1104
 9244SOL    HW229601   6.863   4.866   0.126 -0.7256 -0.5640 -1.8127
 9245SOL     OW29602   3.624   2.018   6.788 -0.0000 -0.4830 -0.0435
 9245SOL    HW129603   3.655   1.984   6.872 -1.6781  0.6305  1.1126
 9245SOL    HW229604   3.586   1.942   6.744  2.6804 -1.5074 -0.7735
 9246SOL     OW29605   3.309   6.467   1.938 -0.0768  0.5782 -0.5761
 9246SOL    HW129606   3.239   6.401   1.940  0.0215  0.4224 -1.8031
 9246SOL    HW229607   3.265   6.548   1.915  0.1223  0.5035 -1.2334
 9247SOL     OW29608   8.638   4.657   7.882  0.2205 -0.0365 -0.3220
 9247SOL    HW129609   8.652   4.718   7.954 -2.8679 -1.0807  1.3465
 9247SOL    HW229610   8.725   4.646   7.842  1.7048  1.9514  2.0856
 9248SOL     OW29611   8.998   4.644   6.029  0.0900  0.6344  0.1890
 9248SOL    HW129612   8.978   4.564   6.078  0.8922  1.3840  1.8143
 9248SOL    HW229613   8.914   4.689   6.021 -0.0766  0.4215  0.7319
 9249SOL     OW29614   3.534   0.150   6.074  0.5448 -0.3281  0.5495
 9249SOL    HW129615   3.496   0.087   6.013 -0.6219  0.0591  0.8353
 9249SOL    HW229616   3.520   0.235   6.032  0.4489 -0.1226  0.9853
 9250SOL     OW29617   8.494   6.327   1.382 -0.1032 -0.2029 -0.2536
 9250SOL    HW129618   8.516   6.414   1.351 -0.6949  0.5937  1.4403
 9250SOL    HW229619   8.520   6.326   1.474 -1.6473 -1.2112  0.2216
 9251SOL     OW29620   4.781   6.147   8.846  0.1855 -0.5270 -0.8238
 9251SOL    HW129621   4.747   6.066   8.808  0.4934  0.4197 -3.3146
 9251SOL    HW229622   4.759   6.215   8.782  3.4348  0.7316 -0.7870
 9252SOL     OW29623   6.286   8.906   4.133  0.1192  0.2061  0.6177
 9252SOL    HW129624   6.201   8.860   4.136  0.5957 -0.6763  1.1470
 9252SOL    HW229625   6.268   8.992   4.169 -0.6616  0.2157  0.2356
 9253SOL     OW29626   4.320   3.503   8.310  0.2598 -0.1362  0.1768
 9253SOL    HW129627   4.372   3.480   8.233 -2.1631 -1.7478 -1.1304
 9253SOL    HW229628   4.300   3.419   8.351  2.3915  0.7185  3.3468
 9254SOL     OW29629   6.825   1.701   7.985  0.0427  0.4404 -0.0979
 9254SOL    HW129630   6.891   1.760   8.022 -1.1220  0.4727  2.1288
 9254SOL    HW229631   6.840   1.618   8.029 -0.6231  0.1138 -0.4713
 9255SOL     OW29632   7.458   4.300   7.585  0.0656 -0.4336  0.6352
 9255SOL    HW129633   7.362   4.296   7.583  0.0112  0.4979 -1.1168
 9255SOL    HW229634   7.485   4.267   7.499  1.2777  0.1234  0.7806
 9256SOL     OW29635   0.101   5.653   2.331 -0.9115 -0.1521  0.2508
 9256SOL    HW129636   0.059   5.582   2.284 -0.2507 -1.3592  1.4327
 9256SOL    HW229637   0.041   5.674   2.403 -0.5654 -0.3165  0.5909
 9257SOL     OW29638   3.329   3.119   4.925 -0.4767  0.0337  0.2553
 9257SOL    HW129639   3.322   3.211   4.900 -0.4590  0.6170  2.1960
 9257SOL    HW229640   3.258   3.076   4.878  0.0280  0.8684 -1.3246
 9258SOL     OW29641   6.024   7.046   8.746 -0.4503  0.2806  0.0039
 9258SOL    HW129642   6.100   7.102   8.764  0.4392 -1.3438  1.5100
 9258SOL    HW229643   5.949   7.100   8.769  0.4202  0.5750  2.4141
 9259SOL     OW29644   4.465   2.953   7.916  0.4159  0.1147  0.1672
 9259SOL    HW129645   4.396   3.015   7.894  0.5041 -0.1372 -0.8691
 9259SOL    HW229646   4.441   2.872   7.871  1.5216  0.1085 -0.4445
 9260SOL     OW29647   6.850   3.048   2.366  0.2593 -0.2819 -0.2475
 9260SOL    HW129648   6.758   3.057   2.390  0.4658 -1.3202  1.0779
 9260SOL    HW229649   6.853   2.971   2.309  0.0757  0.9223 -1.9874
 9261SOL     OW29650   6.161   6.749   2.187 -0.0328 -0.2013  0.6265
 9261SOL    HW129651   6.225   6.801   2.235  0.4447 -1.4696  1.4174
 9261SOL    HW229652   6.182   6.763   2.095  0.5511  0.3996  0.8466
 9262SOL     OW29653   4.502   2.705   4.140  0.0396  0.3916 -0.1385
 9262SOL    HW129654   4.512   2.797   4.118  0.9765  0.0524 -1.1923
 9262SOL    HW229655   4.586   2.681   4.179  0.2245 -0.2906 -0.9324
 9263SOL     OW29656   1.230   3.975   2.431  0.7111 -0.4781  0.1783
 9263SOL    HW129657   1.256   4.050   2.377 -2.0389 -0.6072 -1.5237
 9263SOL    HW229658   1.279   3.901   2.394  0.5947 -0.1524 -0.6542
 9264SOL     OW29659   7.849   6.522   4.851  0.2307  0.1506 -0.0029
 9264SOL    HW129660   7.938   6.544   4.824 -0.2478 -1.1981 -3.1059
 9264SOL    HW229661   7.858   6.439   4.898  0.6993  0.6198  0.7570
 9265SOL     OW29662   1.631   4.701   4.981 -0.1610 -0.1200  0.8507
 9265SOL    HW129663   1.584   4.773   4.940 -0.5705 -0.7260  0.2341
 9265SOL    HW229664   1.630   4.722   5.075 -0.1278  0.7494  0.6619
 9266SOL     OW29665   0.582   8.590   8.554 -0.3133  0.3131 -0.8048
 9266SOL    HW129666   0.531   8.551   8.484  1.2031 -0.7729 -1.3506
 9266SOL    HW229667   0.657   8.531   8.565  0.4017  1.4105  0.5153
 9267SOL     OW29668   3.564   3.985   1.860  0.1179 -0.0836  0.4058
 9267SOL    HW129669   3.591   3.970   1.770  0.6409  0.3557  0.4829
 9267SOL    HW229670   3.506   3.912   1.881 -1.3974  0.6845 -0.8482
 9268SOL     OW29671   0.793   4.208   1.220  0.1736  0.0605 -0.3389
 9268SOL    HW129672   0.878   4.198   1.263 -0.8784 -2.1702  1.3865
 9268SOL    HW229673   0.763   4.295   1.249  1.6930  0.7696 -0.7539
 9269SOL     OW29674   3.587   3.024   4.834 -0.0785 -0.1652 -0.0472
 9269SOL    HW129675   3.511   3.015   4.892 -0.1560 -0.2096 -0.1555
 9269SOL    HW229676   3.627   2.937   4.833  0.4468  0.0705  0.6585
 9270SOL     OW29677   6.412   2.230   1.435 -0.4312 -0.5277 -0.2134
 9270SOL    HW129678   6.490   2.233   1.490 -0.5188  0.2229 -0.1200
 9270SOL    HW229679   6.412   2.142   1.398  1.6150  0.0827 -1.9009
 9271SOL     OW29680   5.656   6.333   0.223 -0.1760  0.0606  0.4487
 9271SOL    HW129681   5.639   6.416   0.179 -2.0425  0.1431  1.2287
 9271SOL    HW229682   5.595   6.332   0.297  0.7577 -1.4073  1.2509
 9272SOL     OW29683   7.614   0.742   5.641  0.2550 -0.0696  0.8121
 9272SOL    HW129684   7.568   0.787   5.711 -0.5847  0.3335  0.0286
 9272SOL    HW229685   7.681   0.804   5.612 -0.1163  0.2052  0.5332
 9273SOL     OW29686   5.543   6.381   5.206  0.1318  0.1373  0.1492
 9273SOL    HW129687   5.473   6.432   5.246  0.4260  0.3987  0.3408
 9273SOL    HW229688   5.536   6.400   5.112 -0.7561 -0.7198  0.0236
 9274SOL     OW29689   7.619   1.293   3.257 -0.0319 -0.3384 -0.5744
 9274SOL    HW129690   7.543   1.282   3.200 -0.4065 -0.0234 -0.1450
 9274SOL    HW229691   7.694   1.272   3.202 -0.3738  0.1302 -1.2369
 9275SOL     OW29692   3.813   3.209   3.016  0.0649 -0.3374  0.2454
 9275SOL    HW129693   3.791   3.234   2.926 -0.8339  1.1450  0.8406
 9275SOL    HW229694   3.897   3.251   3.032  0.1893 -0.5397  0.1362
 9276SOL     OW29695   6.457   5.670   1.448  0.1786 -0.0082  0.1439
 9276SOL    HW129696   6.432   5.581   1.475 -0.3754 -0.4536 -1.7010
 9276SOL    HW229697   6.521   5.656   1.378 -1.9331  0.9399 -2.1217
 9277SOL     OW29698   6.514   7.333   2.292 -0.3489  0.2583  0.4241
 9277SOL    HW129699   6.436   7.370   2.250  1.2526  2.0910 -1.1317
 9277SOL    HW229700   6.574   7.315   2.220  0.8425 -0.7458  1.6165
 9278SOL     OW29701   7.290   0.362   2.110  0.2962  0.6472 -0.0343
 9278SOL    HW129702   7.200   0.394   2.109 -0.0531 -0.3205 -0.1699
 9278SOL    HW229703   7.321   0.374   2.020 -0.2526 -0.5209 -0.3963
 9279SOL     OW29704   8.230   3.443   1.299 -0.3684  0.0525  0.3719
 9279SOL    HW129705   8.323   3.448   1.321 -0.3758  0.6047  0.2974
 9279SOL    HW229706   8.225   3.374   1.233 -0.2069 -0.9047  1.3436
 9280SOL     OW29707   4.440   2.020   5.966  0.2056  0.1800 -0.3470
 9280SOL    HW129708   4.496   2.036   6.041  1.7808  0.0065 -1.4476
 9280SOL    HW229709   4.414   1.928   5.975 -0.9731  0.5981  0.8279
 9281SOL     OW29710   4.302   2.041   3.607  0.0763  0.2225  0.5183
 9281SOL    HW129711   4.336   2.002   3.526 -1.1565 -1.8329  0.9154
 9281SOL    HW229712   4.352   2.122   3.617  1.5325 -0.3635 -1.3314
 9282SOL     OW29713   2.303   8.803   8.076  0.3674 -0.2953 -0.4550
 9282SOL    HW129714   2.361   8.873   8.046  0.5313  0.5778  1.7031
 9282SOL    HW229715   2.257   8.840   8.151 -1.5586 -1.6357 -0.8975
 9283SOL     OW29716   4.701   5.863   2.148  0.3819  0.0671 -0.1801
 9283SOL    HW129717   4.661   5.840   2.231 -0.0802 -0.4409 -0.5345
 9283SOL    HW229718   4.677   5.955   2.134  1.2200  0.4339  0.6642
 9284SOL     OW29719   2.634   2.317   6.402  0.5572  0.0510  0.0191
 9284SOL    HW129720   2.592   2.235   6.376  2.7849 -0.9707 -0.5165
 9284SOL    HW229721   2.591   2.384   6.348  2.1273 -1.4499 -3.3710
 9285SOL     OW29722   4.609   1.936   4.435 -0.3597 -0.0704 -0.3614
 9285SOL    HW129723   4.675   1.961   4.371  0.6474  0.1672  0.7431
 9285SOL    HW229724   4.651   1.948   4.520 -1.6891 -0.2927  0.3653
 9286SOL     OW29725   2.925   4.103   0.195  0.2513 -0.3258  0.5515
 9286SOL    HW129726   2.924   4.011   0.221 -2.0099  0.0004  1.9153
 9286SOL    HW229727   2.843   4.115   0.147  0.3937  1.0150  0.6108
 9287SOL     OW29728   3.006   0.730   2.269  0.0319 -0.4251 -0.6758
 9287SOL    HW129729   3.077   0.794   2.275  0.7493 -1.2597 -0.2195
 9287SOL    HW229730   3.049   0.645   2.266 -0.9391 -0.9410 -0.5626
 9288SOL     OW29731   7.689   1.590   6.229  0.1704 -0.4081  0.1436
 9288SOL    HW129732   7.701   1.541   6.310 -2.3298 -1.0253  0.2172
 9288SOL    HW229733   7.690   1.523   6.160  3.7764  0.2453 -0.6199
 9289SOL     OW29734   4.169   6.209   8.234  0.2157  0.2408 -0.2186
 9289SOL    HW129735   4.153   6.274   8.302 -0.3927 -0.7559  0.6328
 9289SOL    HW229736   4.105   6.139   8.252  0.9343 -0.6590 -1.0080
 9290SOL     OW29737   8.802   5.960   1.224  0.4364 -0.0730 -0.3462
 9290SOL    HW129738   8.725   6.003   1.186  0.9370 -0.3824 -1.7933
 9290SOL    HW229739   8.781   5.866   1.221  0.2330 -0.0813  0.7764
 9291SOL     OW29740   7.095   6.206   2.798  0.6731  0.0968  0.5307
 9291SOL    HW129741   7.134   6.267   2.861  1.6848  0.5137 -0.4469
 9291SOL    HW229742   7.171   6.166   2.755  0.0939  1.5160 -2.0049
 9292SOL     OW29743   2.928   4.149   4.109  0.3959  0.0532 -0.4302
 9292SOL    HW129744   2.836   4.148   4.134 -0.1357 -0.6390 -2.1748
 9292SOL    HW229745   2.957   4.239   4.122 -1.0116  0.6761 -1.3534
 9293SOL     OW29746   4.264   1.929   4.481  0.0091 -0.6916  0.1678
 9293SOL    HW129747   4.231   1.845   4.514 -1.2690 -0.6332 -0.8375
 9293SOL    HW229748   4.338   1.905   4.425 -0.0726 -1.1119  0.2317
 9294SOL     OW29749   0.388   0.093   8.671  0.0597 -0.0781 -0.0555
 9294SOL    HW129750   0.394   0.071   8.764  1.2378  1.4413  0.2722
 9294SOL    HW229751   0.410   0.186   8.667  1.3976 -0.4064 -1.9973
 9295SOL     OW29752   2.580   8.395   8.562 -1.2045  0.1646  0.2190
 9295SOL    HW129753   2.554   8.326   8.501  2.0336 -0.6215 -0.4600
 9295SOL    HW229754   2.617   8.464   8.505 -0.8224  0.7190  1.1213
 9296SOL     OW29755   3.751   5.801   1.876  0.3633 -0.8788 -0.2171
 9296SOL    HW129756   3.841   5.805   1.908  0.2072  0.8196  0.1168
 9296SOL    HW229757   3.759   5.814   1.781  0.4331  0.5133 -0.0515
 9297SOL     OW29758   6.166   5.641   6.949  0.4312 -0.1290  0.3556
 9297SOL    HW129759   6.202   5.603   7.029 -0.1815  2.3544  1.9500
 9297SOL    HW229760   6.085   5.684   6.978 -0.3698 -0.0352 -1.8363
 9298SOL     OW29761   8.598   2.398   4.233 -0.1047  0.5819 -0.2808
 9298SOL    HW129762   8.583   2.318   4.284  0.1362  0.0087 -1.0808
 9298SOL    HW229763   8.609   2.367   4.143  0.4310  1.4814 -0.5383
 9299SOL     OW29764   6.748   1.922   3.715 -0.2080 -0.1644  0.2841
 9299SOL    HW129765   6.722   1.830   3.720  0.6186 -0.4261  0.0019
 9299SOL    HW229766   6.698   1.957   3.641  0.0302 -0.5928 -0.0883
 9300SOL     OW29767   7.711   5.037   1.031 -0.4589  0.2418 -0.6871
 9300SOL    HW129768   7.768   5.024   0.956 -1.3203 -2.1154 -1.0418
 9300SOL    HW229769   7.641   5.093   0.999 -0.6851 -0.5377 -1.6139
 9301SOL     OW29770   5.560   2.227   6.837  0.9895  0.3080  0.9181
 9301SOL    HW129771   5.557   2.148   6.783  0.7573  0.8433  0.1405
 9301SOL    HW229772   5.644   2.221   6.883  1.1502 -0.1964  0.5681
 9302SOL     OW29773   2.736   1.266   3.020  0.5164 -0.6401  0.0695
 9302SOL    HW129774   2.725   1.302   2.932 -0.5031  0.1084  0.4817
 9302SOL    HW229775   2.830   1.267   3.035  0.8641 -2.2320 -1.5873
 9303SOL     OW29776   5.844   8.472   5.395 -0.4400  0.2646  0.6826
 9303SOL    HW129777   5.940   8.465   5.398 -0.4118  0.5804  0.5859
 9303SOL    HW229778   5.813   8.391   5.434 -0.1281  0.4183  1.2579
 9304SOL     OW29779   7.555   1.151   8.695 -0.2278  0.5055 -0.5911
 9304SOL    HW129780   7.570   1.065   8.735  2.5899 -0.7723 -3.8813
 9304SOL    HW229781   7.464   1.148   8.666 -0.9047 -0.3382  1.4192
 9305SOL     OW29782   1.189   1.424   2.700 -0.5098  1.0122  0.1333
 9305SOL    HW129783   1.114   1.451   2.648  0.2507  3.0867  0.0481
 9305SOL    HW229784   1.154   1.358   2.760 -2.1306  1.0896 -0.6843
 9306SOL     OW29785   7.822   6.134   8.088 -0.1417  0.8430  0.0410
 9306SOL    HW129786   7.869   6.074   8.029 -1.4517 -2.3111  1.9629
 9306SOL    HW229787   7.890   6.174   8.141  0.8068  1.5108 -1.5916
 9307SOL     OW29788   0.311   2.554   7.550 -0.3165  0.1146 -0.0297
 9307SOL    HW129789   0.325   2.550   7.456 -1.7301  2.7746 -0.4795
 9307SOL    HW229790   0.369   2.624   7.580 -0.5973 -0.0322  0.9062
 9308SOL     OW29791   8.913   2.335   6.150  0.6105  0.6705  0.4722
 9308SOL    HW129792   8.976   2.347   6.078 -0.5874  1.4281 -0.4766
 9308SOL    HW229793   8.946   2.259   6.197  0.5827 -0.8731 -1.8138
 9309SOL     OW29794   4.383   0.253   4.206  0.1770 -0.0058 -0.0912
 9309SOL    HW129795   4.441   0.194   4.253 -1.4600 -1.2058  0.5157
 9309SOL    HW229796   4.298   0.243   4.249 -0.9066  0.3623 -2.0141
 9310SOL     OW29797   2.592   3.530   8.692  0.1940 -0.2121 -0.2594
 9310SOL    HW129798   2.624   3.617   8.717  0.6633 -0.3790 -0.2553
 9310SOL    HW229799   2.504   3.525   8.729  0.2392  0.1845 -0.0881
 9311SOL     OW29800   2.969   2.771   5.331 -0.0340 -0.8275 -0.2068
 9311SOL    HW129801   3.053   2.817   5.343 -0.0879 -1.2933  2.8079
 9311SOL    HW229802   2.944   2.791   5.241  1.7784  1.9300 -0.2444
 9312SOL     OW29803   8.878   8.328   6.661  0.4755  0.0163  0.3144
 9312SOL    HW129804   8.950   8.388   6.679  0.3515  0.6354 -1.1180
 9312SOL    HW229805   8.855   8.291   6.746  0.2524  2.3244  1.3043
 9313SOL     OW29806   1.359   8.341   6.401 -0.4498 -0.0376 -0.5035
 9313SOL    HW129807   1.366   8.284   6.478  0.6132  0.4906 -0.1834
 9313SOL    HW229808   1.281   8.393   6.417  0.3877  0.8897  0.8241
 9314SOL     OW29809   5.846   6.966   5.930 -0.3545  0.4221 -0.2837
 9314SOL    HW129810   5.753   6.954   5.915 -0.3415  1.1864 -1.0203
 9314SOL    HW229811   5.881   6.877   5.937 -1.2179  0.1310  0.5953
 9315SOL     OW29812   3.181   6.669   3.239  0.0438  0.0016  0.3155
 9315SOL    HW129813   3.240   6.713   3.301  0.0997 -1.1347  1.1109
 9315SOL    HW229814   3.093   6.692   3.271  0.0501 -1.7491  1.7670
 9316SOL     OW29815   1.190   8.774   1.587 -0.2507  0.4648 -0.1334
 9316SOL    HW129816   1.194   8.679   1.579 -0.3687  0.2109  2.0925
 9316SOL    HW229817   1.143   8.789   1.669  1.7951  2.3527  0.8080
 9317SOL     OW29818   3.799   8.084   1.933 -0.1175 -0.1311 -0.2977
 9317SOL    HW129819   3.893   8.079   1.949 -0.2668  0.5224  0.9527
 9317SOL    HW229820   3.761   8.032   2.004 -0.7918  2.0059  1.0006
 9318SOL     OW29821   7.086   5.297   7.631  0.2199  0.3655  0.5106
 9318SOL    HW129822   7.056   5.257   7.713  1.2991 -2.5192 -0.3802
 9318SOL    HW229823   7.009   5.296   7.574  0.0410  0.2217  0.7521
 9319SOL     OW29824   0.006   0.162   6.326  0.1994  0.2192 -0.0125
 9319SOL    HW129825   0.076   0.108   6.365  0.7498  0.1886 -1.0136
 9319SOL    HW229826   0.053   0.230   6.278 -0.4676  0.3132 -0.5377
 9320SOL     OW29827   3.502   6.532   6.287  0.2929 -0.2008  0.1983
 9320SOL    HW129828   3.569   6.580   6.240 -1.3986 -0.0213 -2.2222
 9320SOL    HW229829   3.533   6.441   6.287  0.8370 -0.0218 -0.2966
 9321SOL     OW29830   4.443   5.388   3.109 -0.3693 -0.0129  0.0733
 9321SOL    HW129831   4.448   5.456   3.042  0.6113  0.4510  0.5869
 9321SOL    HW229832   4.365   5.410   3.160  0.4199  1.3028  0.7894
 9322SOL     OW29833   2.937   4.640   8.962  0.0255  0.0839  0.5036
 9322SOL    HW129834   3.001   4.599   9.020 -0.2734 -0.5151  0.4196
 9322SOL    HW229835   2.981   4.645   8.877  0.0368 -0.1238  0.4985
 9323SOL     OW29836   0.020   3.357   6.830 -0.1881  0.0140 -0.4617
 9323SOL    HW129837   0.057   3.436   6.870  1.9442 -0.5768 -1.1340
 9323SOL    HW229838  -0.058   3.338   6.883 -0.6474  2.3914 -0.1388
 9324SOL     OW29839   3.222   6.774   1.168  0.1257  0.8577 -0.3465
 9324SOL    HW129840   3.140   6.798   1.124  0.2762 -0.3338 -1.3460
 9324SOL    HW229841   3.280   6.748   1.096  1.2272  1.2311  0.3921
 9325SOL     OW29842   0.945   4.162   2.160 -0.1785  0.5994  0.7115
 9325SOL    HW129843   0.970   4.157   2.252 -2.0147 -0.4810  1.2145
 9325SOL    HW229844   0.914   4.074   2.139  2.8476 -0.0195 -1.8378
 9326SOL     OW29845   4.972   6.194   0.398  0.3110  0.5492 -0.0055
 9326SOL    HW129846   4.949   6.123   0.338 -0.0797  1.6117 -1.1622
 9326SOL    HW229847   5.032   6.250   0.347  0.5144  1.1128  0.8302
 9327SOL     OW29848   7.848   7.930   4.094 -0.2543  0.4565 -0.5018
 9327SOL    HW129849   7.824   8.005   4.149 -1.0868 -0.2878  0.1657
 9327SOL    HW229850   7.778   7.926   4.028 -0.9928 -0.5855  0.3242
 9328SOL     OW29851   8.386   5.617   0.515 -0.5475  0.2719 -0.2820
 9328SOL    HW129852   8.464   5.563   0.502 -1.8750 -1.7302 -0.3113
 9328SOL    HW229853   8.384   5.675   0.439  1.2192  0.8221  0.0297
 9329SOL     OW29854   5.497   1.612   7.795  0.1487 -0.2883 -0.0808
 9329SOL    HW129855   5.414   1.656   7.775  1.2938  0.8862 -2.6735
 9329SOL    HW229856   5.480   1.566   7.877 -3.4123 -0.9855 -1.0304
 9330SOL     OW29857   4.929   2.940   6.882  0.1908 -0.3780 -0.0558
 9330SOL    HW129858   4.981   2.885   6.941  0.3232 -1.3735 -1.0724
 9330SOL    HW229859   4.985   2.953   6.806 -0.7977 -0.9623 -0.9098
 9331SOL     OW29860   5.947   5.042   4.109 -0.0266  1.0203 -0.4569
 9331SOL    HW129861   5.927   4.974   4.173 -1.3210  2.4232  0.6921
 9331SOL    HW229862   5.924   5.003   4.025 -0.3570 -0.0968  0.1246
 9332SOL     OW29863   2.259   4.844   5.804 -0.5671  0.6180  0.3039
 9332SOL    HW129864   2.227   4.813   5.719  0.8745 -0.4326  0.0949
 9332SOL    HW229865   2.354   4.853   5.791 -0.1704 -0.5732  2.0932
 9333SOL     OW29866   6.285   8.171   1.134  0.1550 -0.0261  0.3055
 9333SOL    HW129867   6.319   8.171   1.045 -0.5059 -0.4739  0.0493
 9333SOL    HW229868   6.356   8.132   1.186  1.0794  1.4390  0.2091
 9334SOL     OW29869   2.538   1.477   3.209 -0.6415 -0.0698 -0.3840
 9334SOL    HW129870   2.628   1.475   3.179 -0.5461  0.1454 -0.1222
 9334SOL    HW229871   2.486   1.456   3.132 -0.4184  0.7441 -0.7633
 9335SOL     OW29872   6.590   2.483   7.925  0.2193  0.0736 -0.4074
 9335SOL    HW129873   6.558   2.497   7.836 -0.1930  0.6564 -0.1688
 9335SOL    HW229874   6.572   2.390   7.942  1.5943 -0.4186 -1.4404
 9336SOL     OW29875   1.106   6.619   1.700  0.5880 -0.2843  0.3064
 9336SOL    HW129876   1.102   6.584   1.611 -1.6150  0.4285  0.0779
 9336SOL    HW229877   1.059   6.702   1.696  0.6447 -0.1222  2.0857
 9337SOL     OW29878   4.627   7.922   7.350  0.2979  0.0553 -0.0382
 9337SOL    HW129879   4.618   7.994   7.288  0.5175  0.1688  0.0594
 9337SOL    HW229880   4.613   7.843   7.298  0.6034  0.1455 -0.2581
 9338SOL     OW29881   4.907   1.165   3.980  0.4263  0.2521  0.1681
 9338SOL    HW129882   4.819   1.155   4.018 -1.2102  1.4145 -2.9963
 9338SOL    HW229883   4.916   1.090   3.922 -0.1942  2.0275 -2.3959
 9339SOL     OW29884   4.090   8.205   2.678 -0.5884 -0.5530  0.0284
 9339SOL    HW129885   4.087   8.171   2.588 -0.5160 -1.2792  0.2959
 9339SOL    HW229886   4.080   8.127   2.733  0.9188 -0.3145  0.6782
 9340SOL     OW29887   4.486   4.153   7.540 -0.4917  0.3226  0.3235
 9340SOL    HW129888   4.404   4.103   7.549 -0.8150  0.6126 -0.9052
 9340SOL    HW229889   4.468   4.237   7.583 -0.7740  0.3068  0.2354
 9341SOL     OW29890   1.304   8.738   4.925 -0.0202  0.1646 -0.0339
 9341SOL    HW129891   1.229   8.753   4.982  1.5400  1.6514  1.7345
 9341SOL    HW229892   1.317   8.821   4.879  1.0321  0.1932  0.2993
 9342SOL     OW29893   7.457   5.776   4.966  0.2960 -0.0311 -0.2951
 9342SOL    HW129894   7.484   5.827   4.890 -1.2626  1.2273 -0.0516
 9342SOL    HW229895   7.409   5.838   5.021 -1.0927 -1.5868  0.3371
 9343SOL     OW29896   2.944   8.897   0.361  0.5481  0.4075  0.1040
 9343SOL    HW129897   2.969   8.866   0.448  1.6850 -0.6885 -0.5848
 9343SOL    HW229898   2.996   8.976   0.347  1.4587 -0.2182 -0.1360
 9344SOL     OW29899   2.572   1.154   4.893  0.0864  0.2610 -0.5461
 9344SOL    HW129900   2.618   1.074   4.867  0.8603 -0.4585  2.6132
 9344SOL    HW229901   2.640   1.211   4.928 -0.8898  0.8174  0.5312
 9345SOL     OW29902   2.735   1.372   2.746  0.2938  0.0568  0.3678
 9345SOL    HW129903   2.757   1.451   2.697 -1.6094 -0.7093 -1.9391
 9345SOL    HW229904   2.792   1.304   2.709 -0.2944 -0.2676  0.0325
 9346SOL     OW29905   2.391   3.160   3.001 -0.0969  0.0155  0.5663
 9346SOL    HW129906   2.402   3.075   3.043  0.5096 -1.5758 -2.5271
 9346SOL    HW229907   2.480   3.189   2.982 -0.3392 -0.5028 -1.6433
 9347SOL     OW29908   6.681   4.463   4.481 -0.1677  0.5780  0.2555
 9347SOL    HW129909   6.746   4.493   4.545 -0.6409  1.1951  0.4530
 9347SOL    HW229910   6.609   4.524   4.489  0.0257  1.0738 -1.3293
 9348SOL     OW29911   0.552   4.353   7.356 -0.3577 -0.1489  0.2528
 9348SOL    HW129912   0.610   4.377   7.428  1.8162  0.0125 -1.4584
 9348SOL    HW229913   0.563   4.423   7.291 -1.7724 -0.6052 -0.5337
 9349SOL     OW29914   2.276   5.156   1.314 -0.5618  0.4237  0.1095
 9349SOL    HW129915   2.246   5.076   1.356  0.4020  0.6582  1.2951
 9349SOL    HW229916   2.319   5.126   1.234 -1.0860 -0.1593  0.0427
 9350SOL     OW29917   1.872   6.327   0.059 -0.2472 -0.9373 -0.4883
 9350SOL    HW129918   1.842   6.289   0.142 -0.8096 -1.8552 -1.0928
 9350SOL    HW229919   1.965   6.344   0.073 -0.1488 -1.8388  0.0636
 9351SOL     OW29920   4.011   5.850   5.978 -0.4247 -0.3712  0.0915
 9351SOL    HW129921   4.011   5.838   5.883  2.8941 -0.2014 -0.0287
 9351SOL    HW229922   4.094   5.812   6.008 -0.5363  1.1807  2.7066
 9352SOL     OW29923   7.321   7.331   7.059 -0.1629  0.7298  0.1974
 9352SOL    HW129924   7.360   7.267   7.118  2.2036  1.8519 -0.0361
 9352SOL    HW229925   7.249   7.370   7.109 -0.3263 -0.6372  1.0750
 9353SOL     OW29926   8.518   4.956   4.790 -0.8164 -0.8217 -0.2319
 9353SOL    HW129927   8.538   5.026   4.851  0.7586 -1.8768  0.5202
 9353SOL    HW229928   8.458   4.899   4.838 -2.0879 -0.0538 -0.8394
 9354SOL     OW29929   0.297   4.626   3.524  0.0264 -0.3542  0.2733
 9354SOL    HW129930   0.230   4.683   3.560 -1.3615 -2.0181  0.5019
 9354SOL    HW229931   0.380   4.661   3.555 -0.7925  1.2841  0.6782
 9355SOL     OW29932   8.726   1.955   4.413  0.2599  0.0159 -0.0800
 9355SOL    HW129933   8.720   1.978   4.506 -0.8405  0.0005 -0.1396
 9355SOL    HW229934   8.798   2.008   4.380 -0.5608  1.4612  0.3623
 9356SOL     OW29935   1.293   6.263   5.254  0.2624  0.3392 -1.0970
 9356SOL    HW129936   1.380   6.225   5.269 -0.2037 -0.8306 -1.2463
 9356SOL    HW229937   1.310   6.338   5.197  1.1643  0.0593 -1.2197
 9357SOL     OW29938   6.186   0.009   5.330 -0.0933  0.1594  0.2384
 9357SOL    HW129939   6.214  -0.075   5.366  2.2484  0.5677 -0.4647
 9357SOL    HW229940   6.178   0.066   5.407 -1.8344 -0.6700  0.7360
 9358SOL     OW29941   8.440   0.796   3.705 -0.0266 -0.1435  0.2760
 9358SOL    HW129942   8.373   0.727   3.708 -1.3673  0.6268 -4.4558
 9358SOL    HW229943   8.490   0.777   3.626  0.3292  3.5755 -0.5767
 9359SOL     OW29944   2.517   6.914   6.797 -0.0648  0.0634  0.3672
 9359SOL    HW129945   2.594   6.956   6.758 -0.2098  0.7687  0.8260
 9359SOL    HW229946   2.548   6.881   6.881 -0.2927  0.4937  0.6264
 9360SOL     OW29947   0.941   2.773   5.028 -0.4679  0.1361  0.3901
 9360SOL    HW129948   0.997   2.704   5.062  1.2366  1.4462  0.4209
 9360SOL    HW229949   0.973   2.787   4.938 -0.4132  1.2293  0.5686
 9361SOL     OW29950   8.639   0.649   1.843  0.2453 -0.0258  0.4062
 9361SOL    HW129951   8.689   0.575   1.808  0.0699 -1.1619  2.4069
 9361SOL    HW229952   8.673   0.725   1.796 -0.3669 -1.4370 -2.5557
 9362SOL     OW29953   6.347   8.239   5.320 -0.0474  0.1942  0.1053
 9362SOL    HW129954   6.291   8.161   5.322  0.5843 -0.2555  0.8643
 9362SOL    HW229955   6.431   8.208   5.353  0.4630  1.0115 -0.3910
 9363SOL     OW29956   8.063   0.982   0.836 -0.0626 -0.0839 -0.3540
 9363SOL    HW129957   7.982   1.030   0.847  0.1382  0.2068 -0.1512
 9363SOL    HW229958   8.069   0.927   0.914 -0.4724 -0.7115 -0.7543
 9364SOL     OW29959   2.103   3.328   3.308  0.5062  0.5373 -0.3095
 9364SOL    HW129960   2.186   3.358   3.346  1.2704 -1.0468 -0.6471
 9364SOL    HW229961   2.114   3.339   3.214  0.6809 -0.4609 -0.4171
 9365SOL     OW29962   2.116   1.995   7.590 -0.1537  0.0875 -0.3473
 9365SOL    HW129963   2.095   2.070   7.645 -1.5772 -0.3143 -0.2928
 9365SOL    HW229964   2.085   2.019   7.503  0.0163 -0.1674 -0.4802
 9366SOL     OW29965   1.350   6.618   8.807 -0.2330  0.6703 -0.3117
 9366SOL    HW129966   1.438   6.609   8.772 -0.5601  1.1330 -1.2703
 9366SOL    HW229967   1.353   6.698   8.859  0.3268 -0.1653  1.0259
 9367SOL     OW29968   6.890   8.115   8.716  0.1107  0.2630  0.6188
 9367SOL    HW129969   6.933   8.030   8.724 -2.1264 -0.9612  0.4314
 9367SOL    HW229970   6.878   8.144   8.807 -1.0446 -0.6868  0.7933
 9368SOL     OW29971   5.647   3.315   5.368 -1.0599  0.0876  0.3528
 9368SOL    HW129972   5.566   3.294   5.321  0.1530 -1.2895 -1.2786
 9368SOL    HW229973   5.649   3.255   5.442 -1.6295  0.3086  0.5551
 9369SOL     OW29974   1.309   3.505   0.004 -0.7285 -0.4018 -0.3077
 9369SOL    HW129975   1.228   3.555  -0.003  0.0686  0.8662 -0.8665
 9369SOL    HW229976   1.313   3.478   0.096 -1.4587  0.0883 -0.1233
 9370SOL     OW29977   6.746   6.528   4.536  0.8462  0.0776  0.1016
 9370SOL    HW129978   6.707   6.507   4.620 -3.1661 -0.7813 -1.7193
 9370SOL    HW229979   6.754   6.444   4.491 -0.3383  0.7685 -1.5299
 9371SOL     OW29980   1.833   5.110   1.818  0.4011  0.3139  0.9356
 9371SOL    HW129981   1.834   5.102   1.913 -0.7500  0.6277  0.9801
 9371SOL    HW229982   1.765   5.175   1.799  0.7194  0.3742 -0.0963
 9372SOL     OW29983   4.672   4.311   2.603 -0.1164 -0.0897 -0.3056
 9372SOL    HW129984   4.759   4.347   2.586 -0.3905 -0.0059 -1.5933
 9372SOL    HW229985   4.619   4.388   2.627  0.4754 -0.3129  1.9948
 9373SOL     OW29986   6.973   8.927   8.572  0.1711 -0.4168 -0.1464
 9373SOL    HW129987   6.927   8.998   8.528  0.0500 -0.3478  0.0841
 9373SOL    HW229988   6.936   8.847   8.534 -0.1283 -0.3607  0.0197
 9374SOL     OW29989   4.173   5.046   5.571 -0.1007 -0.4714 -0.3102
 9374SOL    HW129990   4.218   5.032   5.487 -0.5479 -3.0603 -0.1874
 9374SOL    HW229991   4.242   5.075   5.630  0.4475  0.2310 -1.2586
 9375SOL     OW29992   4.686   8.494   4.874 -0.5242  0.3152  0.4689
 9375SOL    HW129993   4.709   8.469   4.784  2.2302  0.9511  0.8996
 9375SOL    HW229994   4.707   8.417   4.927 -0.8253  0.4043  0.7181
 9376SOL     OW29995   1.898   4.603   6.545  0.5777  0.0873  0.3533
 9376SOL    HW129996   1.899   4.667   6.473 -2.7040  1.4911  1.3583
 9376SOL    HW229997   1.989   4.600   6.575  1.4527  1.8702 -1.7604
 9377SOL     OW29998   2.066   5.608   0.829  0.3359  0.4935  0.2782
 9377SOL    HW129999   2.132   5.567   0.772 -0.6574 -0.9184  0.1130
 9377SOL    HW230000   2.116   5.640   0.904  1.2836 -0.0266 -0.1134
 9378SOL     OW30001   3.185   2.832   8.259  0.1061  0.4923 -0.1277
 9378SOL    HW130002   3.214   2.882   8.335 -0.9488  0.5826  0.2213
 9378SOL    HW230003   3.239   2.864   8.187  0.9749  0.5500  0.5356
 9379SOL     OW30004   7.609   7.416   8.778  0.1144  0.2733 -0.2729
 9379SOL    HW130005   7.666   7.481   8.819  1.5131 -0.8653 -0.3762
 9379SOL    HW230006   7.604   7.345   8.842 -0.9981  0.2317 -0.3783
 9380SOL     OW30007   8.551   4.890   4.055 -0.5456  0.3878 -0.0831
 9380SOL    HW130008   8.599   4.969   4.081 -0.0147  0.2919 -0.7264
 9380SOL    HW230009   8.616   4.820   4.061 -1.0676 -0.0360  0.6722
 9381SOL     OW30010   4.707   1.532   2.019  0.5388  0.1425  0.0072
 9381SOL    HW130011   4.639   1.599   2.008 -1.0212 -1.5954 -1.6607
 9381SOL    HW230012   4.786   1.573   1.984 -0.3987  1.1049 -1.0743
 9382SOL     OW30013   1.998   8.539   4.136 -0.3853 -0.3680  0.1925
 9382SOL    HW130014   2.085   8.520   4.100 -0.7773 -1.6335 -0.1271
 9382SOL    HW230015   2.007   8.523   4.230  0.2670  1.5853  0.5148
 9383SOL     OW30016   4.383   1.527   1.876  0.2992 -0.3186  0.3388
 9383SOL    HW130017   4.449   1.584   1.915  1.2527 -0.2025 -1.3196
 9383SOL    HW230018   4.433   1.467   1.820 -0.8824 -1.2911  0.2684
 9384SOL     OW30019   4.122   4.341   3.204  0.0442 -0.1739 -0.2343
 9384SOL    HW130020   4.204   4.322   3.247 -0.1841  1.7203  1.1787
 9384SOL    HW230021   4.122   4.437   3.193 -1.5472 -0.2256 -1.0682
 9385SOL     OW30022   8.677   0.252   1.450 -0.9036 -0.3256 -0.9202
 9385SOL    HW130023   8.647   0.187   1.513 -0.6853  2.3909  2.2682
 9385SOL    HW230024   8.601   0.308   1.435  0.1050  1.4427  0.2594
 9386SOL     OW30025   6.546   3.421   0.068  0.4759 -0.2912  0.5754
 9386SOL    HW130026   6.615   3.381   0.015  0.5872 -0.0265  0.5199
 9386SOL    HW230027   6.592   3.483   0.125  0.4271 -0.9884  1.3880
 9387SOL     OW30028   1.350   6.301   5.550  0.1125  0.3568 -0.1290
 9387SOL    HW130029   1.311   6.260   5.472 -0.5290 -1.4441  1.0561
 9387SOL    HW230030   1.286   6.285   5.619  1.2189  0.8145  1.0357
 9388SOL     OW30031   1.288   0.629   4.401 -0.0314 -0.2061  0.3160
 9388SOL    HW130032   1.332   0.696   4.349  0.8461 -0.8931  0.1526
 9388SOL    HW230033   1.213   0.603   4.348 -1.4486  1.8728  1.1411
 9389SOL     OW30034   4.894   4.697   2.494  0.0723 -0.0587 -0.2078
 9389SOL    HW130035   4.842   4.646   2.432  1.5110 -1.2666 -0.4670
 9389SOL    HW230036   4.892   4.786   2.458 -1.7606 -0.0561 -0.2057
 9390SOL     OW30037   3.539   0.508   4.453 -0.0188 -0.6950  0.4104
 9390SOL    HW130038   3.484   0.578   4.489  0.2757 -0.1482 -0.1874
 9390SOL    HW230039   3.551   0.532   4.361  0.5735 -1.2217  0.3458
 9391SOL     OW30040   1.620   6.573   2.259 -0.3492 -0.5199  0.0100
 9391SOL    HW130041   1.596   6.611   2.175 -0.4083  0.4535  0.4546
 9391SOL    HW230042   1.712   6.595   2.271 -0.3627 -0.5843  0.2377
 9392SOL     OW30043   2.782   1.719   2.168  0.2431 -0.2104 -0.2054
 9392SOL    HW130044   2.830   1.786   2.218 -1.3288 -0.5752  1.9547
 9392SOL    HW230045   2.745   1.662   2.235 -1.6930 -0.9766 -1.8288
 9393SOL     OW30046   1.281   7.405   7.437 -0.8008  0.7474 -0.4887
 9393SOL    HW130047   1.343   7.434   7.504 -1.9221  0.1405  0.8722
 9393SOL    HW230048   1.330   7.410   7.355  1.3416 -0.5202  0.6088
 9394SOL     OW30049   5.181   1.550   1.979 -0.0189 -0.3790  0.1864
 9394SOL    HW130050   5.098   1.598   1.980 -0.8804 -1.6654 -1.8697
 9394SOL    HW230051   5.200   1.532   2.071 -0.7749  1.9722  0.8602
 9395SOL     OW30052   2.402   0.608   4.924  0.2944  0.1830 -0.4169
 9395SOL    HW130053   2.310   0.584   4.920  0.5504 -0.7122 -2.2055
 9395SOL    HW230054   2.447   0.528   4.952  0.4697  0.9118  1.5259
 9396SOL     OW30055   4.567   1.894   3.392 -0.4279 -0.0686  0.6684
 9396SOL    HW130056   4.496   1.954   3.372  0.0211  0.4493  0.6222
 9396SOL    HW230057   4.646   1.948   3.391  0.2143 -0.9467 -1.0577
 9397SOL     OW30058   3.931   7.098   7.874  0.0899 -0.0652 -0.1505
 9397SOL    HW130059   3.926   7.029   7.807  0.4126 -0.0215 -0.2224
 9397SOL    HW230060   3.967   7.054   7.951 -1.6518 -0.4610  0.4753
 9398SOL     OW30061   8.472   7.984   6.768  0.3443 -0.5229  0.2844
 9398SOL    HW130062   8.566   7.993   6.756  0.1498  0.3883 -0.7875
 9398SOL    HW230063   8.434   8.038   6.698 -0.9647 -0.5186  0.9650
 9399SOL     OW30064   3.029   6.971   1.433  0.1717 -0.4847  0.1809
 9399SOL    HW130065   3.114   6.992   1.473 -0.1215 -1.0856  1.1618
 9399SOL    HW230066   2.964   6.999   1.498 -0.3176 -1.4273  0.1188
 9400SOL     OW30067   2.114   2.643   7.085  0.7657  0.2936 -0.0221
 9400SOL    HW130068   2.036   2.587   7.090 -0.7206  2.1308 -1.1597
 9400SOL    HW230069   2.090   2.721   7.135  2.5745  0.2301  1.0521
 9401SOL     OW30070   4.965   0.039   4.909  0.1235 -0.0875 -0.1373
 9401SOL    HW130071   4.988   0.019   4.818  1.7064 -1.7032  0.5489
 9401SOL    HW230072   5.043   0.081   4.945  0.2422 -1.1505  0.9359
 9402SOL     OW30073   7.837   7.621   8.080  0.0599  0.0789  0.2568
 9402SOL    HW130074   7.885   7.544   8.048  1.1416  0.7834  0.1394
 9402SOL    HW230075   7.849   7.618   8.175  1.2066  0.8009  0.1479
 9403SOL     OW30076   3.129   3.275   6.596  0.3836  0.0497  0.4683
 9403SOL    HW130077   3.192   3.234   6.537  0.0329 -1.1951  0.9317
 9403SOL    HW230078   3.044   3.262   6.553  0.4573  2.4264 -0.5603
 9404SOL     OW30079   1.168   2.998   4.063 -0.4431  0.5751 -0.7048
 9404SOL    HW130080   1.220   2.919   4.080  1.0670  1.4596 -1.1098
 9404SOL    HW230081   1.080   2.975   4.095  0.5897 -0.3233  1.7271
 9405SOL     OW30082   0.319   1.018   5.732 -0.0617  0.0152 -0.7448
 9405SOL    HW130083   0.397   1.071   5.717  1.4108 -2.1266 -1.1812
 9405SOL    HW230084   0.341   0.963   5.807 -0.5987 -1.5246 -1.6584
 9406SOL     OW30085   0.456   4.240   4.509  0.8283  0.3327 -0.3016
 9406SOL    HW130086   0.527   4.245   4.572  1.0502  0.3043 -0.5458
 9406SOL    HW230087   0.408   4.322   4.521  1.1640  0.5519 -0.4397
 9407SOL     OW30088   5.977   0.552   2.421  0.2400  0.1145  0.0644
 9407SOL    HW130089   5.898   0.541   2.474  0.2418  0.7383  0.2027
 9407SOL    HW230090   6.036   0.603   2.476  0.6710 -0.2017 -0.1062
 9408SOL     OW30091   3.544   3.005   0.091  0.2447 -0.2901  0.2060
 9408SOL    HW130092   3.617   2.988   0.151  0.0217 -0.7401  0.3508
 9408SOL    HW230093   3.543   2.930   0.032 -1.6402 -1.5687  1.7323
 9409SOL     OW30094   1.999   4.424   0.796 -0.0557 -0.0704  0.6101
 9409SOL    HW130095   2.010   4.457   0.707 -2.1520 -0.6624  0.0779
 9409SOL    HW230096   1.989   4.503   0.850 -1.9165  0.2916 -0.1892
 9410SOL     OW30097   5.392   1.191   7.852  0.1779 -0.0667  0.0097
 9410SOL    HW130098   5.480   1.227   7.849  0.5112 -0.9299 -1.8415
 9410SOL    HW230099   5.373   1.165   7.762 -1.9526  0.0308  0.3709
 9411SOL     OW30100   1.543   4.622   2.700  0.6042 -0.4439 -0.2007
 9411SOL    HW130101   1.568   4.647   2.611  1.0922 -1.1283 -0.2655
 9411SOL    HW230102   1.565   4.698   2.754  0.5202 -0.1106 -0.6326
 9412SOL     OW30103   2.188   3.474   7.287 -0.5262 -0.0870 -0.1236
 9412SOL    HW130104   2.181   3.492   7.381  0.3873  1.1394 -0.2607
 9412SOL    HW230105   2.210   3.559   7.248  2.5529 -1.1592 -1.0290
 9413SOL     OW30106   1.087   3.504   3.368  0.0598  0.2980 -0.5195
 9413SOL    HW130107   1.139   3.584   3.373  0.1461  0.1823  0.8758
 9413SOL    HW230108   1.110   3.466   3.284  1.8915  0.4906 -0.1551
 9414SOL     OW30109   3.742   5.678   8.629  0.2176  0.1299 -0.0814
 9414SOL    HW130110   3.784   5.738   8.568  0.7288  1.0681  1.1515
 9414SOL    HW230111   3.656   5.717   8.644 -0.2513 -0.5751 -0.8589
 9415SOL     OW30112   3.438   6.536   6.790 -0.4872  0.1405 -0.5632
 9415SOL    HW130113   3.410   6.570   6.875 -1.1524 -0.3828 -0.5612
 9415SOL    HW230114   3.362   6.547   6.733 -0.7016 -1.2087 -0.5842
 9416SOL     OW30115   5.200   3.327   0.770  0.2705 -0.3363 -0.2189
 9416SOL    HW130116   5.231   3.406   0.814 -0.0710  0.2112 -0.9264
 9416SOL    HW230117   5.245   3.327   0.685 -0.8639 -0.0565 -0.8528
 9417SOL     OW30118   4.934   8.710   3.019  0.0547 -0.5352  0.3272
 9417SOL    HW130119   4.906   8.691   2.930 -0.4728  1.6150 -0.0029
 9417SOL    HW230120   4.918   8.803   3.031  0.5434 -0.6689  2.5314
 9418SOL     OW30121   5.209   2.607   2.712 -0.5636  0.3092 -0.3499
 9418SOL    HW130122   5.268   2.681   2.713 -1.8046  1.3625 -1.2876
 9418SOL    HW230123   5.236   2.555   2.636  0.6656 -0.5534  0.6327
 9419SOL     OW30124   1.379   1.869   4.608  0.8104  0.3216 -0.9338
 9419SOL    HW130125   1.376   1.965   4.610 -0.6707  0.3085 -1.4358
 9419SOL    HW230126   1.325   1.842   4.682 -1.1789 -0.0876 -2.4547
 9420SOL     OW30127   3.325   5.587   0.815  0.3962  0.0766  0.1237
 9420SOL    HW130128   3.273   5.579   0.895  0.5351  1.6777  0.3942
 9420SOL    HW230129   3.267   5.630   0.752  0.9395  0.6539  0.0067
 9421SOL     OW30130   0.310   0.446   8.074 -0.2529 -0.1677  0.3105
 9421SOL    HW130131   0.266   0.362   8.087 -0.0069 -0.8701 -2.6963
 9421SOL    HW230132   0.248   0.511   8.106 -2.3137 -1.3051 -1.1110
 9422SOL     OW30133   5.875   0.873   1.079  0.5422 -0.3530  1.1782
 9422SOL    HW130134   5.819   0.831   1.143  1.3921  0.0662  2.2269
 9422SOL    HW230135   5.961   0.876   1.121  1.2582 -0.5792 -0.2072
 9423SOL     OW30136   3.446   8.805   8.968  0.5961  0.6517  0.0656
 9423SOL    HW130137   3.386   8.863   8.922 -1.4667 -0.6488  0.9642
 9423SOL    HW230138   3.389   8.740   9.009  2.6791 -1.0027  0.4974
 9424SOL     OW30139   1.584   8.560   7.049 -0.4449  0.5021  0.5321
 9424SOL    HW130140   1.524   8.583   7.119 -1.5374 -1.0486  0.1409
 9424SOL    HW230141   1.624   8.478   7.077 -1.2716 -0.4184 -0.8363
 9425SOL     OW30142   6.562   4.044   8.256 -0.0408 -0.0101 -0.3809
 9425SOL    HW130143   6.607   4.002   8.329 -0.9666  1.4792  1.1189
 9425SOL    HW230144   6.576   4.138   8.270 -1.9649  0.4050 -0.9281
 9426SOL     OW30145   3.016   6.793   0.404 -0.4287  0.0928  0.2991
 9426SOL    HW130146   3.048   6.724   0.347 -0.2997  0.8643 -0.5806
 9426SOL    HW230147   2.943   6.753   0.452  0.7672 -1.1758  1.1132
 9427SOL     OW30148   2.915   4.149   7.113 -0.4899 -0.5189 -0.3013
 9427SOL    HW130149   2.937   4.057   7.100 -2.1787 -1.1030  0.7294
 9427SOL    HW230150   2.998   4.190   7.136  0.0333 -2.0859  0.7664
 9428SOL     OW30151   4.264   7.989   2.153  0.1125 -0.1363  0.6470
 9428SOL    HW130152   4.217   7.960   2.232 -0.2265 -0.7230  0.2386
 9428SOL    HW230153   4.321   8.059   2.183  0.0899 -0.4534  1.4460
 9429SOL     OW30154   5.665   1.561   1.607 -0.0988 -0.0548 -0.0715
 9429SOL    HW130155   5.741   1.526   1.561 -1.2548  0.0610 -2.1775
 9429SOL    HW230156   5.702   1.619   1.674  1.6908  1.1995 -2.0127
 9430SOL     OW30157   5.756   5.342   5.036  0.5895  0.2503 -0.1098
 9430SOL    HW130158   5.661   5.348   5.045  0.3986 -0.1697 -1.5565
 9430SOL    HW230159   5.789   5.350   5.125 -0.9402 -2.2173  0.7999
 9431SOL     OW30160   8.863   3.191   2.998 -0.1714  0.7288  0.1386
 9431SOL    HW130161   8.877   3.268   3.053 -2.5633  0.9799  0.4942
 9431SOL    HW230162   8.788   3.214   2.943 -2.4859 -2.1174  1.8617
 9432SOL     OW30163   7.857   5.381   0.242  0.1530 -0.1296  0.5626
 9432SOL    HW130164   7.802   5.311   0.277  0.9209 -0.7423  0.5766
 9432SOL    HW230165   7.795   5.451   0.218 -0.7535 -1.2907 -0.6338
 9433SOL     OW30166   0.697   1.554   2.710  0.1900 -0.0269 -0.1225
 9433SOL    HW130167   0.743   1.484   2.756  1.2848  0.8454  0.1625
 9433SOL    HW230168   0.657   1.607   2.779  0.1095  0.1266 -0.2862
 9434SOL     OW30169   5.265   7.968   7.821 -0.2014  0.5574 -0.4760
 9434SOL    HW130170   5.303   8.051   7.851  0.7070 -0.2040  0.5440
 9434SOL    HW230171   5.214   7.992   7.744 -2.6503  2.6548  1.5735
 9435SOL     OW30172   0.463   8.261   5.023  0.3058 -0.3803 -0.3644
 9435SOL    HW130173   0.397   8.198   4.994 -0.6757 -0.3254  1.5597
 9435SOL    HW230174   0.450   8.267   5.117  0.7234  2.2824 -0.3927
 9436SOL     OW30175   0.882   7.373   5.468  0.0975 -0.4475 -0.5694
 9436SOL    HW130176   0.875   7.409   5.379  1.5923 -0.1616 -0.5914
 9436SOL    HW230177   0.972   7.394   5.495 -0.6104  0.2997  1.3724
 9437SOL     OW30178   5.599   1.411   0.831  0.1716 -0.1120 -0.0661
 9437SOL    HW130179   5.609   1.332   0.883  0.6374  0.7201  1.1513
 9437SOL    HW230180   5.566   1.477   0.892 -2.3738  0.1145 -1.5186
 9438SOL     OW30181   0.206   4.026   0.945 -0.1635  0.0419  0.1891
 9438SOL    HW130182   0.300   4.038   0.941 -0.0524 -0.9824 -1.2341
 9438SOL    HW230183   0.192   3.954   1.007 -0.0068  0.2535  0.4645
 9439SOL     OW30184   4.167   5.478   6.305 -0.1368  0.0813 -0.1767
 9439SOL    HW130185   4.234   5.476   6.374  1.3366  3.5471 -1.2644
 9439SOL    HW230186   4.087   5.501   6.351  0.5414  1.0175  0.5852
 9440SOL     OW30187   4.823   7.406   2.156 -0.1725 -0.0915  0.2755
 9440SOL    HW130188   4.847   7.499   2.151  0.2918 -0.2141  0.1754
 9440SOL    HW230189   4.893   7.366   2.207 -1.0976 -0.1518  1.5507
 9441SOL     OW30190   1.564   7.225   1.681 -0.1077  0.4637 -0.1670
 9441SOL    HW130191   1.478   7.246   1.717 -1.0584 -0.2753 -1.9314
 9441SOL    HW230192   1.550   7.215   1.587  2.1862  1.7444 -0.7310
 9442SOL     OW30193   0.948   6.391   2.147 -0.2971  0.2852 -0.2862
 9442SOL    HW130194   0.946   6.302   2.183  1.1729  0.4627  0.3013
 9442SOL    HW230195   0.960   6.379   2.053 -0.3361 -0.1501 -0.2369
 9443SOL     OW30196   5.254   0.553   6.029 -0.2927 -0.1931  0.2542
 9443SOL    HW130197   5.253   0.633   6.082 -1.7036 -1.1355  1.7874
 9443SOL    HW230198   5.197   0.493   6.078 -0.3735 -1.6652 -1.5679
 9444SOL     OW30199   1.307   4.828   2.054 -0.0465 -0.2489  0.3884
 9444SOL    HW130200   1.298   4.812   2.148 -1.5960  4.1928  1.2409
 9444SOL    HW230201   1.400   4.847   2.042 -0.0995  0.8277  1.4521
 9445SOL     OW30202   5.163   4.696   6.753 -0.9831 -0.0349  0.1855
 9445SOL    HW130203   5.078   4.733   6.777 -0.1017  1.7202  0.7978
 9445SOL    HW230204   5.227   4.750   6.800  0.4330 -2.5720  1.4053
 9446SOL     OW30205   2.211   2.272   7.375  0.4391 -0.4890  0.1473
 9446SOL    HW130206   2.136   2.223   7.343  1.1536 -0.8161 -1.0925
 9446SOL    HW230207   2.283   2.245   7.318  0.9512  1.6899 -0.3154
 9447SOL     OW30208   0.467   8.067   1.388 -0.5925 -0.2189 -0.0143
 9447SOL    HW130209   0.520   8.088   1.466  0.1257 -1.5515 -0.1211
 9447SOL    HW230210   0.378   8.058   1.422 -0.2823 -0.8240  0.6672
 9448SOL     OW30211   5.742   4.677   0.027 -0.6224 -0.2373  0.0937
 9448SOL    HW130212   5.757   4.627  -0.053 -0.0526  0.3513 -0.1795
 9448SOL    HW230213   5.729   4.611   0.095  1.1268 -0.7941 -0.0619
 9449SOL     OW30214   2.139   7.571   6.551 -0.7613 -0.4054  0.1883
 9449SOL    HW130215   2.229   7.569   6.581 -1.3489 -0.1445  2.0934
 9449SOL    HW230216   2.144   7.545   6.459  1.1759 -0.9899  0.4119
 9450SOL     OW30217   7.077   3.171   7.772  0.5279  0.2524  0.1665
 9450SOL    HW130218   7.134   3.195   7.846 -0.4347  3.8751 -0.1031
 9450SOL    HW230219   7.096   3.236   7.705 -2.5949  0.4594 -0.6347
 9451SOL     OW30220   0.390   4.674   2.350  0.0618  0.6216 -0.0204
 9451SOL    HW130221   0.366   4.584   2.332  0.5546  0.2418  1.0941
 9451SOL    HW230222   0.313   4.725   2.326 -0.1871 -0.0859 -0.7406
 9452SOL     OW30223   4.179   7.562   6.452 -0.4993  0.2164  0.2104
 9452SOL    HW130224   4.257   7.533   6.405 -0.5181  2.9046 -1.7124
 9452SOL    HW230225   4.123   7.602   6.385 -2.5476  0.3392  1.8741
 9453SOL     OW30226   5.234   3.283   7.600  0.4503  0.0314 -0.3175
 9453SOL    HW130227   5.306   3.292   7.538  1.1958  0.2172  0.5525
 9453SOL    HW230228   5.221   3.371   7.635  0.2102 -0.1167 -0.0219
 9454SOL     OW30229   2.246   6.715   0.349  0.1953  0.0643 -0.3335
 9454SOL    HW130230   2.248   6.745   0.258  1.1037 -0.8641 -0.6324
 9454SOL    HW230231   2.158   6.678   0.360 -0.3129  1.1830 -0.4838
 9455SOL     OW30232   1.110   7.489   6.025 -0.6643 -0.0828 -0.5475
 9455SOL    HW130233   1.032   7.534   5.995  0.2112  0.4354 -2.1640
 9455SOL    HW230234   1.149   7.452   5.946  1.1194  0.3383  0.0867
 9456SOL     OW30235   2.386   6.109   7.197 -0.4513 -0.0008 -0.5583
 9456SOL    HW130236   2.427   6.194   7.181 -2.7211  1.1628 -0.6866
 9456SOL    HW230237   2.341   6.120   7.281  0.0652 -1.4534 -0.0606
 9457SOL     OW30238   2.094   2.944   8.189  0.0904 -0.0677 -0.4422
 9457SOL    HW130239   2.174   2.914   8.233 -0.2496 -1.3687 -0.6555
 9457SOL    HW230240   2.125   2.998   8.116  0.7431 -0.0530 -0.1639
 9458SOL     OW30241   5.446   0.391   0.276  0.1293  0.3624 -0.5788
 9458SOL    HW130242   5.367   0.393   0.330  0.4713 -0.0344 -0.0592
 9458SOL    HW230243   5.503   0.327   0.318  1.0053  1.1215 -0.5624
 9459SOL     OW30244   7.604   3.340   6.645 -0.1104  0.0069  0.6383
 9459SOL    HW130245   7.540   3.404   6.676  1.0592  1.6061 -0.0817
 9459SOL    HW230246   7.679   3.351   6.704  1.1654  1.3247 -1.1066
 9460SOL     OW30247   6.740   2.370   1.279 -0.2775  0.0107  0.6264
 9460SOL    HW130248   6.771   2.290   1.236  0.3632  0.1222  0.8669
 9460SOL    HW230249   6.664   2.397   1.229 -1.7912 -1.9006  1.7632
 9461SOL     OW30250   2.405   4.870   3.728 -0.8078 -0.0234  0.0604
 9461SOL    HW130251   2.463   4.858   3.653 -1.0647 -0.8938 -0.0121
 9461SOL    HW230252   2.456   4.838   3.803 -0.7976  0.2267  0.1620
 9462SOL     OW30253   0.228   1.900   0.728  0.8377 -0.3971 -0.2111
 9462SOL    HW130254   0.289   1.928   0.797 -0.4247 -0.4399  0.9497
 9462SOL    HW230255   0.172   1.976   0.713  0.2595 -0.8221 -0.2441
 9463SOL     OW30256   2.331   4.256   6.977 -0.0449  0.0683  0.3217
 9463SOL    HW130257   2.275   4.242   6.901  0.8802  1.2350 -0.6005
 9463SOL    HW230258   2.374   4.171   6.991 -1.9287 -0.8200  0.9948
 9464SOL     OW30259   1.679   5.241   7.329  0.3292  0.4497  0.0229
 9464SOL    HW130260   1.668   5.175   7.261 -0.0975 -0.8955  1.3500
 9464SOL    HW230261   1.774   5.248   7.341  0.4098  0.7541 -0.7401
 9465SOL     OW30262   4.330   7.104   6.349  0.1329  0.6601 -0.4024
 9465SOL    HW130263   4.408   7.157   6.329  1.2438 -0.2413  1.2623
 9465SOL    HW230264   4.365   7.017   6.367 -1.2258  0.3369  0.8301
 9466SOL     OW30265   5.850   7.576   8.018 -0.2055 -0.2083 -0.4748
 9466SOL    HW130266   5.846   7.547   8.109 -1.2603 -1.8014 -0.9832
 9466SOL    HW230267   5.861   7.671   8.023  1.4431 -0.4423  1.2922
 9467SOL     OW30268   4.496   4.697   0.610  0.3172  0.0576 -0.1673
 9467SOL    HW130269   4.592   4.695   0.609  0.3592  0.9194 -2.0113
 9467SOL    HW230270   4.474   4.788   0.588 -0.9349 -0.0529  0.5481
 9468SOL     OW30271   6.611   1.048   7.691  0.8805  0.7004  0.0408
 9468SOL    HW130272   6.526   1.069   7.652  0.1232 -1.4487  0.4054
 9468SOL    HW230273   6.598   1.062   7.785  0.7977  0.0158  0.1355
 9469SOL     OW30274   2.405   4.577   5.699 -0.2208 -0.1143  0.0604
 9469SOL    HW130275   2.348   4.644   5.660 -0.3535  0.2253  0.8138
 9469SOL    HW230276   2.354   4.542   5.772 -0.0553 -0.8774 -0.1886
 9470SOL     OW30277   6.844   4.589   7.831  0.1466 -0.3927 -0.1000
 9470SOL    HW130278   6.749   4.599   7.834  0.2973  1.0654  1.6204
 9470SOL    HW230279   6.877   4.663   7.882  2.1354 -1.9476  0.9717
 9471SOL     OW30280   8.951   2.123   8.075  0.1028  0.1248 -0.0635
 9471SOL    HW130281   8.929   2.187   8.008  1.1189  0.3596 -0.1815
 9471SOL    HW230282   8.945   2.039   8.030  0.7614  0.2801 -0.4477
 9472SOL     OW30283   7.898   3.260   4.932  0.2212  0.5369  0.1938
 9472SOL    HW130284   7.853   3.293   5.010  0.0548 -0.1673  0.4058
 9472SOL    HW230285   7.860   3.310   4.860 -2.0479 -1.0412  0.1777
 9473SOL     OW30286   5.420   1.739   5.309 -0.2731 -0.1473  0.9402
 9473SOL    HW130287   5.440   1.660   5.360 -1.0202 -0.6444  0.5027
 9473SOL    HW230288   5.425   1.710   5.218 -0.9980  0.1875  0.7830
 9474SOL     OW30289   2.507   2.350   8.304 -0.2902 -0.3812  0.3627
 9474SOL    HW130290   2.509   2.256   8.285  0.5804 -1.1802  3.6314
 9474SOL    HW230291   2.548   2.392   8.228  2.7957 -3.0433  0.3442
 9475SOL     OW30292   0.761   8.545   8.315 -0.0575 -0.9530 -0.7378
 9475SOL    HW130293   0.758   8.599   8.236 -0.3388  0.9814  0.5218
 9475SOL    HW230294   0.836   8.580   8.364 -0.5424 -1.4017  0.3325
 9476SOL     OW30295   1.757   5.193   8.506 -0.0421  0.6717  0.9796
 9476SOL    HW130296   1.702   5.246   8.564  0.5854  0.6296  1.6227
 9476SOL    HW230297   1.843   5.192   8.548 -0.2805 -1.7125  1.5117
 9477SOL     OW30298   4.680   0.393   8.018 -0.1895  0.0617  0.2591
 9477SOL    HW130299   4.711   0.321   8.072  0.4882 -1.5902 -2.1706
 9477SOL    HW230300   4.750   0.458   8.023  0.0527 -0.2388  0.9871
 9478SOL     OW30301   3.357   2.275   7.000 -0.3492 -1.0133  0.0529
 9478SOL    HW130302   3.393   2.205   7.054 -0.6859 -1.1899  0.0542
 9478SOL    HW230303   3.399   2.263   6.914  1.6282  0.4176  0.7503
 9479SOL     OW30304   4.419   4.813   5.131  0.0144 -0.0709 -0.3724
 9479SOL    HW130305   4.475   4.818   5.054 -0.1766 -2.0747 -0.6956
 9479SOL    HW230306   4.340   4.769   5.100 -1.4092  1.8534  0.2825
 9480SOL     OW30307   3.760   5.499   5.423 -0.6999  0.2082  0.8051
 9480SOL    HW130308   3.775   5.485   5.516  1.4019 -0.7274  0.3868
 9480SOL    HW230309   3.709   5.423   5.394  0.1763 -0.4102  0.8685
 9481SOL     OW30310   2.661   3.233   0.623  0.3811 -0.0599  0.5957
 9481SOL    HW130311   2.691   3.324   0.623  0.1933  0.0222  1.8336
 9481SOL    HW230312   2.602   3.228   0.549  2.6864  0.0165 -1.3559
 9482SOL     OW30313   6.055   6.418   8.342 -0.1620 -0.2909  0.2546
 9482SOL    HW130314   6.036   6.328   8.369 -0.3377 -0.5777 -0.7982
 9482SOL    HW230315   6.086   6.411   8.252 -1.7466  0.8438 -0.4425
 9483SOL     OW30316   5.811   1.903   3.940 -0.4348  0.2518  0.1615
 9483SOL    HW130317   5.866   1.829   3.966  0.4488  0.9708  0.3991
 9483SOL    HW230318   5.757   1.870   3.869  1.0356 -0.1950 -0.7706
 9484SOL     OW30319   5.055   3.432   3.423 -0.2249  0.3416  0.4498
 9484SOL    HW130320   5.006   3.370   3.370  0.9158 -0.0698 -0.1489
 9484SOL    HW230321   5.146   3.406   3.413  0.2661  1.9970  0.3445
 9485SOL     OW30322   4.832   3.351   1.200 -0.2074  0.1529  0.0688
 9485SOL    HW130323   4.782   3.401   1.136 -1.1029  0.2917  0.8494
 9485SOL    HW230324   4.903   3.410   1.225 -0.6712  0.6578  0.2373
 9486SOL     OW30325   5.916   3.721   3.849 -0.0504 -1.0170  0.6700
 9486SOL    HW130326   5.920   3.762   3.763 -0.0475 -0.0627  1.1073
 9486SOL    HW230327   5.960   3.636   3.838  0.9114 -0.4473 -0.0053
 9487SOL     OW30328   1.284   4.147   4.947 -0.0192  0.0932 -0.6470
 9487SOL    HW130329   1.315   4.202   4.874  0.1622  2.1588  0.8739
 9487SOL    HW230330   1.360   4.094   4.971  1.0316  1.8733  0.1639
 9488SOL     OW30331   7.889   4.327   2.875  0.2212 -0.1098 -0.1358
 9488SOL    HW130332   7.961   4.318   2.938  1.5462  0.3968 -1.5299
 9488SOL    HW230333   7.920   4.283   2.797 -0.6274  0.8624 -1.0520
 9489SOL     OW30334   1.471   5.141   0.815 -0.0983 -0.1249  0.1832
 9489SOL    HW130335   1.557   5.179   0.795 -1.1613  1.7172 -1.2022
 9489SOL    HW230336   1.474   5.054   0.774  1.2031 -0.2166  0.4333
 9490SOL     OW30337   6.192   6.545   7.183 -0.1669 -0.1505 -0.4232
 9490SOL    HW130338   6.131   6.542   7.258 -0.1924 -0.6361 -0.4601
 9490SOL    HW230339   6.164   6.621   7.133  1.1407  1.4664  1.1450
 9491SOL     OW30340   6.254   5.064   8.630  0.7768  0.1866 -0.3982
 9491SOL    HW130341   6.194   5.133   8.601 -1.0537 -2.0580 -2.3621
 9491SOL    HW230342   6.303   5.041   8.551  3.3099  0.9453  0.8330
 9492SOL     OW30343   3.375   2.628   5.422 -0.0835 -0.4256 -0.2004
 9492SOL    HW130344   3.350   2.635   5.514 -0.5982  0.3295 -0.3811
 9492SOL    HW230345   3.294   2.649   5.374  0.3991  0.0675 -0.8132
 9493SOL     OW30346   8.295   1.183   0.356 -0.0759 -0.0391 -0.8777
 9493SOL    HW130347   8.343   1.221   0.430  0.7235  0.5799 -1.6801
 9493SOL    HW230348   8.208   1.163   0.391  0.7242 -1.1462  0.6149
 9494SOL     OW30349   1.348   6.357   4.947 -0.7542  0.4139  0.0088
 9494SOL    HW130350   1.419   6.293   4.947 -0.9157  0.1880  1.6011
 9494SOL    HW230351   1.344   6.390   4.858  0.8859 -0.0850 -0.2635
 9495SOL     OW30352   5.026   2.959   8.667 -0.0519 -0.0474  0.3756
 9495SOL    HW130353   5.053   2.984   8.755 -0.0995  0.6301  0.2030
 9495SOL    HW230354   5.011   2.865   8.672  0.9518 -0.1950  0.8325
 9496SOL     OW30355   0.688   7.719   8.655  0.0603  0.1038 -0.6062
 9496SOL    HW130356   0.774   7.733   8.694  0.2938  0.2524 -1.1544
 9496SOL    HW230357   0.626   7.758   8.717  0.1708 -1.8962  0.8595
 9497SOL     OW30358   6.235   7.502   0.331  0.2222  0.1923 -0.0070
 9497SOL    HW130359   6.293   7.474   0.260  0.1355 -1.0823  0.4053
 9497SOL    HW230360   6.284   7.485   0.411  0.0543  0.9980  0.2835
 9498SOL     OW30361   5.251   7.751   6.804 -0.0919  0.1581 -0.0010
 9498SOL    HW130362   5.275   7.767   6.895  1.4102 -2.1627  0.1029
 9498SOL    HW230363   5.272   7.832   6.759 -0.4750  1.2116  1.6221
 9499SOL     OW30364   7.473   2.765   6.976  0.1308 -0.4649 -0.4738
 9499SOL    HW130365   7.381   2.773   6.950  0.7537 -0.8050 -3.0237
 9499SOL    HW230366   7.519   2.743   6.895  2.3810 -1.0082  0.8749
 9500SOL     OW30367   7.900   3.451   4.404  0.3324  0.2558  0.3014
 9500SOL    HW130368   7.834   3.490   4.460 -0.8460  1.4128 -1.7553
 9500SOL    HW230369   7.926   3.522   4.345  1.1485 -0.9975 -0.8976
 9501SOL     OW30370   6.111   3.366   2.902 -0.8356 -0.1126  0.8524
 9501SOL    HW130371   6.029   3.415   2.905 -0.0464  1.2050  1.9947
 9501SOL    HW230372   6.158   3.391   2.982  0.3164 -1.5038  0.6668
 9502SOL     OW30373   4.768   8.574   0.293 -0.0197 -0.3714  0.8181
 9502SOL    HW130374   4.683   8.568   0.249 -0.1683 -0.2010  1.0823
 9502SOL    HW230375   4.832   8.561   0.223 -0.2753 -1.5382  0.7718
 9503SOL     OW30376   1.547   7.293   0.617  0.4110 -0.0704  0.9592
 9503SOL    HW130377   1.483   7.362   0.601 -0.4613 -1.0726 -0.0105
 9503SOL    HW230378   1.554   7.288   0.712  0.8776  1.6777  1.0572
 9504SOL     OW30379   7.047   6.505   2.083  0.2522 -0.8583  0.3403
 9504SOL    HW130380   6.974   6.525   2.026  0.3109  2.0862  1.1200
 9504SOL    HW230381   7.007   6.485   2.168  0.2613  0.1602  0.6084
 9505SOL     OW30382   0.107   4.499   7.585  0.1904 -0.2541 -0.4060
 9505SOL    HW130383   0.073   4.519   7.498  0.6905  1.1581 -0.3003
 9505SOL    HW230384   0.049   4.430   7.617 -1.3736  0.6948 -1.0165
 9506SOL     OW30385   6.360   7.607   2.946 -0.4439 -0.0747 -0.1860
 9506SOL    HW130386   6.451   7.589   2.969 -0.3688  0.0303 -0.3912
 9506SOL    HW230387   6.318   7.521   2.944 -0.3186 -0.1352 -0.2121
 9507SOL     OW30388   4.682   1.077   4.334 -0.3577  0.0490 -0.3663
 9507SOL    HW130389   4.658   1.036   4.252 -1.9296 -0.6932  0.4246
 9507SOL    HW230390   4.614   1.050   4.396  0.6732  0.7286  1.1387
 9508SOL     OW30391   8.235   8.710   0.469  0.0806  0.4298  0.3453
 9508SOL    HW130392   8.291   8.640   0.437  0.7862  0.8430  0.6525
 9508SOL    HW230393   8.296   8.776   0.502 -0.5022  1.7698 -1.0962
 9509SOL     OW30394   6.375   2.025   3.721 -0.1335 -0.4729 -0.2576
 9509SOL    HW130395   6.368   1.956   3.787  0.0113  1.8768  2.4371
 9509SOL    HW230396   6.290   2.025   3.677 -0.6867 -1.3783  0.7531
 9510SOL     OW30397   4.649   7.732   2.637 -0.2747  0.0151  0.3011
 9510SOL    HW130398   4.689   7.653   2.601  0.6893  0.0613  1.2098
 9510SOL    HW230399   4.601   7.702   2.714 -0.1825  0.2673  0.4579
 9511SOL     OW30400   0.113   5.869   7.977 -0.0043  0.3125  0.5925
 9511SOL    HW130401   0.104   5.964   7.974 -2.2667  0.1240 -0.5069
 9511SOL    HW230402   0.046   5.840   8.039  0.0537 -0.6280  0.2423
 9512SOL     OW30403   6.862   8.309   4.647  0.1772  0.1029 -0.0249
 9512SOL    HW130404   6.805   8.366   4.595  0.4441 -0.9899 -1.5703
 9512SOL    HW230405   6.894   8.244   4.585  0.7139 -1.1143  1.4743
 9513SOL     OW30406   8.483   7.616   1.497 -0.5265 -0.3593 -0.2982
 9513SOL    HW130407   8.432   7.695   1.515  0.8172  0.2247  1.1410
 9513SOL    HW230408   8.503   7.621   1.404 -0.3753  1.0620 -0.2121
 9514SOL     OW30409   7.448   7.013   3.065 -0.3601 -0.6101 -0.0438
 9514SOL    HW130410   7.386   6.983   3.132  1.3582 -2.7724  0.6809
 9514SOL    HW230411   7.413   6.979   2.983 -0.0457 -2.0754  0.3968
 9515SOL     OW30412   0.078   2.202   2.848 -0.2665 -0.0541  0.2622
 9515SOL    HW130413   0.080   2.298   2.847  1.8913 -0.0511 -0.5865
 9515SOL    HW230414   0.130   2.177   2.925  0.4989 -0.5008 -0.3761
 9516SOL     OW30415   5.496   2.547   8.262 -0.2014  0.7424  0.1823
 9516SOL    HW130416   5.415   2.595   8.247 -0.2583  0.4114 -0.6220
 9516SOL    HW230417   5.530   2.528   8.174 -1.0244 -2.0936  0.3822
 9517SOL     OW30418   1.911   7.271   8.679 -0.5604 -0.1898 -0.1209
 9517SOL    HW130419   1.868   7.291   8.762 -1.1147  1.0560 -0.6881
 9517SOL    HW230420   1.890   7.345   8.622  0.9430 -0.3637 -0.9602
 9518SOL     OW30421   5.321   6.183   4.858 -0.2277 -0.4920  0.3476
 9518SOL    HW130422   5.238   6.232   4.859 -0.2786 -0.5582 -0.3436
 9518SOL    HW230423   5.387   6.247   4.883 -0.4324 -0.3270  0.4635
 9519SOL     OW30424   4.018   1.111   3.384 -0.4977 -0.2951  0.2182
 9519SOL    HW130425   4.082   1.123   3.454 -1.9420 -1.1647  1.7410
 9519SOL    HW230426   4.013   1.016   3.371 -0.1764 -0.1468 -1.1739
 9520SOL     OW30427   7.937   2.661   6.838  0.4817 -0.4217  0.0090
 9520SOL    HW130428   7.904   2.681   6.926  1.3865  1.2286  0.0052
 9520SOL    HW230429   7.917   2.739   6.786 -0.8083 -1.7008 -1.5206
 9521SOL     OW30430   3.868   7.570   3.690  0.2858  0.4141 -0.0738
 9521SOL    HW130431   3.837   7.653   3.726 -0.5852 -0.7979  2.1895
 9521SOL    HW230432   3.788   7.521   3.670  0.7820  0.2054 -1.7048
 9522SOL     OW30433   6.838   3.929   5.282  0.7584  0.0349 -0.0756
 9522SOL    HW130434   6.803   3.996   5.341  2.3432  0.8428 -0.0080
 9522SOL    HW230435   6.916   3.896   5.327  0.5268 -1.2118 -0.5393
 9523SOL     OW30436   8.274   6.648   6.995 -0.2669  0.2974 -0.3607
 9523SOL    HW130437   8.259   6.592   6.919  1.6276  0.8093 -1.1552
 9523SOL    HW230438   8.265   6.589   7.070 -0.2812 -0.6369 -1.0764
 9524SOL     OW30439   7.697   6.193   8.772  0.4769  0.2986 -0.4073
 9524SOL    HW130440   7.650   6.129   8.719  1.1891  0.3830 -1.1562
 9524SOL    HW230441   7.790   6.177   8.754  0.7083  0.7716  0.2941
 9525SOL     OW30442   8.117   6.151   2.472  0.3487  0.2323  0.5037
 9525SOL    HW130443   8.094   6.093   2.399 -1.2050  1.1235  0.2484
 9525SOL    HW230444   8.079   6.109   2.549 -1.4747  1.2465  0.2091
 9526SOL     OW30445   6.241   1.643   1.831 -0.0248  0.0565  0.0051
 9526SOL    HW130446   6.198   1.708   1.886 -0.5243 -0.0014 -0.3182
 9526SOL    HW230447   6.257   1.569   1.889  1.0699  0.6762  0.5243
 9527SOL     OW30448   1.967   4.336   6.479  0.3370 -0.3035 -0.2631
 9527SOL    HW130449   1.951   4.402   6.412 -0.0907  1.6670  1.6587
 9527SOL    HW230450   2.015   4.383   6.548 -0.8809 -1.7039  1.6325
 9528SOL     OW30451   8.873   1.554   6.829 -0.0323 -0.2962 -0.5149
 9528SOL    HW130452   8.782   1.573   6.853  0.1564  0.6864 -0.5115
 9528SOL    HW230453   8.882   1.460   6.840 -1.0446 -0.4020 -0.4859
 9529SOL     OW30454   6.006   8.474   2.054  0.1330 -0.1188 -0.8086
 9529SOL    HW130455   6.090   8.440   2.086 -0.3919 -1.5384 -0.9162
 9529SOL    HW230456   5.952   8.397   2.040 -1.4482  0.8107 -0.1038
 9530SOL     OW30457   6.526   6.214   7.730 -0.2887 -0.3298 -0.3574
 9530SOL    HW130458   6.527   6.201   7.825  2.3129 -0.9083 -0.3958
 9530SOL    HW230459   6.518   6.309   7.719  0.1701 -0.1861  0.4718
 9531SOL     OW30460   3.521   6.776   6.114 -0.4593  0.1969  0.0588
 9531SOL    HW130461   3.578   6.823   6.054  1.4360 -0.8916  0.8970
 9531SOL    HW230462   3.503   6.693   6.070 -1.0635  0.3723 -0.0279
 9532SOL     OW30463   1.669   1.456   6.501  0.4259 -0.4765  0.2764
 9532SOL    HW130464   1.761   1.482   6.497  0.1212  0.7272  0.5287
 9532SOL    HW230465   1.644   1.468   6.592 -0.3656  0.6831 -0.0713
 9533SOL     OW30466   7.542   3.932   1.125 -0.3162  0.0857  0.1012
 9533SOL    HW130467   7.571   3.961   1.038 -0.7797 -1.1409 -0.4902
 9533SOL    HW230468   7.477   3.998   1.152 -1.9466 -0.7442 -1.5533
 9534SOL     OW30469   7.571   0.739   4.207 -0.1573  0.1060  0.0327
 9534SOL    HW130470   7.649   0.788   4.181 -0.3377  1.2380  1.5179
 9534SOL    HW230471   7.522   0.728   4.125  0.5062  1.2967 -0.5535
 9535SOL     OW30472   3.264   8.430   3.370  0.1985  0.2295 -0.4055
 9535SOL    HW130473   3.196   8.404   3.307 -1.3152  0.4588  1.0478
 9535SOL    HW230474   3.313   8.498   3.325 -0.9951  0.5542 -1.2820
 9536SOL     OW30475   5.714   0.267   1.782 -0.0996 -0.0145  0.1370
 9536SOL    HW130476   5.777   0.294   1.715 -1.1285 -0.7228 -1.1580
 9536SOL    HW230477   5.744   0.312   1.862  0.7852  1.3768 -0.9150
 9537SOL     OW30478   3.154   5.297   1.605  0.3769 -0.7123  0.3933
 9537SOL    HW130479   3.218   5.316   1.674  0.7674 -0.3549 -0.0653
 9537SOL    HW230480   3.081   5.256   1.652 -0.0333  0.9259  1.2816
 9538SOL     OW30481   4.176   0.786   2.755 -0.0969  0.3064  0.2694
 9538SOL    HW130482   4.157   0.876   2.781 -0.8648  0.2259 -0.0030
 9538SOL    HW230483   4.095   0.738   2.770  0.7061 -0.6849  1.8112
 9539SOL     OW30484   8.707   5.078   0.822  0.4392 -0.4494  0.2135
 9539SOL    HW130485   8.645   5.136   0.864 -0.9567 -0.5236 -1.6444
 9539SOL    HW230486   8.714   5.003   0.882 -0.7826 -0.1681  0.7268
 9540SOL     OW30487   7.555   4.687   8.236 -0.7091 -0.2743 -0.1593
 9540SOL    HW130488   7.603   4.757   8.279 -0.8284  0.0867 -0.6006
 9540SOL    HW230489   7.622   4.633   8.194 -0.2744 -2.4331  2.9286
 9541SOL     OW30490   2.423   3.293   2.078 -0.2213  0.6678  0.3425
 9541SOL    HW130491   2.396   3.224   2.017  3.0067 -1.1217  0.6930
 9541SOL    HW230492   2.425   3.373   2.024  0.4146 -0.4306 -1.3508
 9542SOL     OW30493   3.691   3.398   7.139  0.2966  0.4178  0.0383
 9542SOL    HW130494   3.665   3.398   7.047  0.6160 -0.2900 -0.0532
 9542SOL    HW230495   3.711   3.307   7.159 -0.8486  0.3750  1.1239
 9543SOL     OW30496   8.304   4.239   2.449  0.2037  0.1529 -0.3289
 9543SOL    HW130497   8.250   4.287   2.386  0.7420 -1.2592 -1.9352
 9543SOL    HW230498   8.265   4.151   2.453  0.1523  0.2135  1.3862
 9544SOL     OW30499   8.196   6.478   4.562 -0.2981 -0.6449 -0.0928
 9544SOL    HW130500   8.159   6.393   4.585 -0.0235 -0.8994 -0.5713
 9544SOL    HW230501   8.276   6.484   4.614 -0.1286 -0.8396 -0.3283
 9545SOL     OW30502   5.857   8.868   0.081 -0.2538  0.2776 -0.3268
 9545SOL    HW130503   5.950   8.874   0.061 -0.4075 -2.1963 -2.2478
 9545SOL    HW230504   5.848   8.783   0.125 -1.7804 -0.3142 -1.6846
 9546SOL     OW30505   6.352   1.963   1.895 -0.1848  0.0884 -0.0932
 9546SOL    HW130506   6.257   1.948   1.892 -0.8329  3.4292  0.2690
 9546SOL    HW230507   6.371   1.975   1.988  0.2261  1.2924 -0.3247
 9547SOL     OW30508   7.741   6.910   8.245 -0.3129  0.0478 -0.2160
 9547SOL    HW130509   7.687   6.841   8.207 -0.0212 -0.9470  1.1008
 9547SOL    HW230510   7.816   6.918   8.186 -0.1343 -1.0740 -0.1544
 9548SOL     OW30511   4.954   3.163   4.837  0.3734  0.3905  0.3969
 9548SOL    HW130512   5.047   3.163   4.814  0.2525  0.7720 -0.0911
 9548SOL    HW230513   4.921   3.080   4.803  0.3565  0.6208 -0.1478
 9549SOL     OW30514   0.957   6.962   0.249  0.1136 -0.2321  0.0623
 9549SOL    HW130515   0.915   7.048   0.257 -1.0519 -0.7802 -0.0011
 9549SOL    HW230516   1.046   6.982   0.222 -0.7556  0.8936 -2.2572
 9550SOL     OW30517   0.324   3.468   2.998 -0.4075 -0.0511  0.5364
 9550SOL    HW130518   0.251   3.509   2.951 -0.3742 -0.3336  0.2373
 9550SOL    HW230519   0.359   3.403   2.937  0.3385  0.3488  0.5268
 9551SOL     OW30520   4.481   6.228   3.853 -0.1540 -0.6307 -0.4091
 9551SOL    HW130521   4.515   6.198   3.769  1.9673 -0.1842  0.2267
 9551SOL    HW230522   4.543   6.295   3.881 -0.6002 -1.0197  1.6810
 9552SOL     OW30523   8.634   5.762   8.110 -0.3006 -0.2506 -0.1955
 9552SOL    HW130524   8.625   5.818   8.186 -0.4439 -1.2811  0.5662
 9552SOL    HW230525   8.728   5.742   8.105 -0.6249 -2.8299  1.7334
 9553SOL     OW30526   6.844   7.306   4.679  0.5019  0.4896 -0.4504
 9553SOL    HW130527   6.934   7.272   4.683 -0.0135 -0.8129  1.6045
 9553SOL    HW230528   6.792   7.232   4.645  0.1503  1.2018 -1.5341
 9554SOL     OW30529   5.054   0.900   4.099  0.1676  0.1732 -0.3318
 9554SOL    HW130530   5.067   0.806   4.112 -1.6082 -0.4589 -2.5419
 9554SOL    HW230531   5.029   0.932   4.186 -0.3887 -1.6055  0.2197
 9555SOL     OW30532   6.298   6.686   5.296 -0.0680 -0.1807 -0.0294
 9555SOL    HW130533   6.333   6.630   5.227  0.2895  0.4284 -0.3524
 9555SOL    HW230534   6.309   6.635   5.376 -0.9381 -1.0983 -0.4724
 9556SOL     OW30535   2.550   3.867   7.199  0.2773 -0.4958  0.4573
 9556SOL    HW130536   2.603   3.849   7.277 -0.6418  0.4413  1.3327
 9556SOL    HW230537   2.529   3.960   7.205 -0.8194 -0.6755 -0.2547
 9557SOL     OW30538   3.815   4.363   3.710 -0.1714 -0.2129 -0.1930
 9557SOL    HW130539   3.752   4.405   3.652  0.6144 -0.0060 -0.9203
 9557SOL    HW230540   3.808   4.269   3.689  1.0030 -0.0361 -1.5889
 9558SOL     OW30541   0.152   2.617   4.535  0.2148  0.3144 -0.4206
 9558SOL    HW130542   0.073   2.666   4.513  1.0714  1.6597 -0.6403
 9558SOL    HW230543   0.224   2.672   4.504  1.2839 -0.2547  0.9305
 9559SOL     OW30544   4.633   8.542   1.429 -0.3084 -0.4387 -0.2423
 9559SOL    HW130545   4.605   8.477   1.364  0.4284  0.4222 -1.4831
 9559SOL    HW230546   4.728   8.531   1.434 -0.2439  0.1623 -0.0664
 9560SOL     OW30547   0.094   7.347   8.211  0.4302  0.3952 -0.1186
 9560SOL    HW130548   0.088   7.442   8.219  5.0088  0.9016 -0.2692
 9560SOL    HW230549   0.138   7.319   8.291  2.9912 -0.9224 -1.8571
 9561SOL     OW30550   4.063   0.368   5.884  0.2994 -0.1668 -0.6814
 9561SOL    HW130551   4.096   0.370   5.974  0.1646  1.5832 -0.6339
 9561SOL    HW230552   4.042   0.276   5.869 -3.0542 -0.1605  2.3588
 9562SOL     OW30553   8.346   8.849   4.324 -0.1296 -0.2980 -0.4031
 9562SOL    HW130554   8.274   8.807   4.276  0.1055 -1.0153 -0.1351
 9562SOL    HW230555   8.417   8.785   4.322  0.5011  0.3915 -0.6289
 9563SOL     OW30556   5.741   1.960   8.570  0.1233  0.3018  0.5015
 9563SOL    HW130557   5.700   1.877   8.593 -0.3437  0.8878  1.9262
 9563SOL    HW230558   5.819   1.936   8.521 -1.2637 -0.8899 -1.2865
 9564SOL     OW30559   3.689   3.014   1.883 -0.4449  0.2623 -0.0363
 9564SOL    HW130560   3.694   3.109   1.870  0.5353  0.3922  1.1193
 9564SOL    HW230561   3.772   2.991   1.925 -1.4036 -0.8170  1.3630
 9565SOL     OW30562   4.732   1.162   8.229 -0.0261 -0.1232  0.1974
 9565SOL    HW130563   4.826   1.162   8.247 -0.1724  0.0200  1.0148
 9565SOL    HW230564   4.702   1.075   8.256 -0.1713 -0.0688  0.2163
 9566SOL     OW30565   6.544   2.538   1.880  0.0441 -0.0948 -0.1071
 9566SOL    HW130566   6.580   2.479   1.946  0.1133  0.9254  0.7949
 9566SOL    HW230567   6.468   2.578   1.923  1.3333  2.2320  0.2217
 9567SOL     OW30568   0.303   4.978   0.585 -0.1682  0.1384 -0.1518
 9567SOL    HW130569   0.266   5.013   0.665  0.2076 -0.9413  0.5118
 9567SOL    HW230570   0.247   5.012   0.515 -2.2069 -1.1389  0.7897
 9568SOL     OW30571   7.340   3.632   3.782 -0.3302 -0.2119 -0.3771
 9568SOL    HW130572   7.273   3.583   3.734 -1.0427 -0.9453  1.2785
 9568SOL    HW230573   7.420   3.581   3.771 -0.4399 -0.2761 -0.9105
 9569SOL     OW30574   6.763   6.115   4.001  0.2845  0.1266 -0.5806
 9569SOL    HW130575   6.822   6.048   4.034 -1.2228 -1.3438 -0.7681
 9569SOL    HW230576   6.760   6.101   3.907  0.2451  0.7143 -0.6727
 9570SOL     OW30577   2.478   6.094   3.247  0.2755 -0.0296 -0.3425
 9570SOL    HW130578   2.438   6.160   3.302  0.9788  0.0531  0.0876
 9570SOL    HW230579   2.565   6.080   3.285 -0.1692 -1.8376  0.1013
 9571SOL     OW30580   4.328   4.828   3.680 -0.3141  0.3185  0.1540
 9571SOL    HW130581   4.347   4.810   3.772 -0.0264 -0.1436  0.0101
 9571SOL    HW230582   4.414   4.848   3.642 -0.4084  0.3313 -0.0483
 9572SOL     OW30583   1.015   8.358   1.424  0.1112  0.0282  0.0603
 9572SOL    HW130584   0.994   8.411   1.347  1.0705 -0.5235 -0.6040
 9572SOL    HW230585   0.934   8.356   1.475  0.0986  2.3542  0.2507
 9573SOL     OW30586   0.391   6.044   6.272 -0.1254 -0.1966 -0.5202
 9573SOL    HW130587   0.447   6.116   6.245  0.3626 -0.5999 -0.5953
 9573SOL    HW230588   0.450   5.970   6.282 -0.3422 -0.1906  1.1649
 9574SOL     OW30589   2.079   0.814   5.523  0.3567 -0.5420  0.2983
 9574SOL    HW130590   2.090   0.719   5.515  1.2419 -0.5207  1.0561
 9574SOL    HW230591   2.088   0.831   5.617 -0.0113  0.2711  0.1924
 9575SOL     OW30592   5.011   1.998   5.647  0.0022 -0.3976 -0.1978
 9575SOL    HW130593   4.984   1.973   5.736 -1.1547  0.3699 -0.3118
 9575SOL    HW230594   5.091   2.049   5.661  0.3527 -1.0703  0.3237
 9576SOL     OW30595   0.811   1.624   4.977 -0.2170  0.1365  0.1840
 9576SOL    HW130596   0.774   1.558   5.036 -1.1777  1.4994  1.1611
 9576SOL    HW230597   0.777   1.600   4.891 -1.8738  0.2506  0.7657
 9577SOL     OW30598   3.959   5.413   3.768 -0.0704 -0.3302  0.1819
 9577SOL    HW130599   4.042   5.447   3.802  0.2442 -0.9525  0.0484
 9577SOL    HW230600   3.981   5.326   3.735 -0.5239 -0.0297 -0.9657
 9578SOL     OW30601   4.132   1.131   5.996  0.4803 -0.4354  0.9076
 9578SOL    HW130602   4.134   1.174   6.081 -0.6145  1.6067 -0.0032
 9578SOL    HW230603   4.040   1.107   5.983 -0.0808  2.1360 -0.8907
 9579SOL     OW30604   8.180   3.118   1.304  0.3059  0.0876 -0.2653
 9579SOL    HW130605   8.113   3.162   1.252  0.2464  1.4379  0.9193
 9579SOL    HW230606   8.131   3.059   1.362  0.2774 -0.2339 -0.6078
 9580SOL     OW30607   5.946   2.199   5.531 -0.6284  0.2989  0.0617
 9580SOL    HW130608   5.915   2.112   5.556  1.1936 -0.2363  0.6415
 9580SOL    HW230609   5.941   2.250   5.612  2.1226 -0.4834  0.8266
 9581SOL     OW30610   5.536   0.599   6.031 -0.0503  0.4361 -0.2971
 9581SOL    HW130611   5.450   0.596   5.990 -0.3431 -0.8717  0.3952
 9581SOL    HW230612   5.597   0.590   5.958 -0.5425 -0.5778 -0.6006
 9582SOL     OW30613   2.744   1.507   0.699 -0.1470  0.9661  0.2599
 9582SOL    HW130614   2.787   1.566   0.760  0.5553 -0.4117  1.1356
 9582SOL    HW230615   2.768   1.541   0.612  0.6714  1.6514  0.7369
 9583SOL     OW30616   2.217   2.750   5.026 -0.3193  0.4127  0.5517
 9583SOL    HW130617   2.287   2.762   4.962  1.5164 -2.4582  1.8376
 9583SOL    HW230618   2.223   2.828   5.082  1.4536  0.5186  0.2751
 9584SOL     OW30619   8.652   7.667   6.593 -0.0616  0.2192 -0.4002
 9584SOL    HW130620   8.697   7.692   6.674 -1.9193 -0.9112  1.0621
 9584SOL    HW230621   8.661   7.572   6.588  2.0528  0.4309 -2.8733
 9585SOL     OW30622   5.389   8.244   0.014 -0.1825  0.3803 -0.1212
 9585SOL    HW130623   5.296   8.258   0.033  0.0998 -0.2875  1.9998
 9585SOL    HW230624   5.391   8.215  -0.077 -1.9596  1.1619 -0.4495
 9586SOL     OW30625   6.927   1.507   0.917 -0.1594  0.1700  0.3227
 9586SOL    HW130626   6.980   1.534   0.992 -0.6326 -1.1697  1.1811
 9586SOL    HW230627   6.920   1.586   0.863 -0.4411  1.4000  2.0627
 9587SOL     OW30628   2.753   7.185   8.402 -0.3612  0.6615 -0.1783
 9587SOL    HW130629   2.731   7.250   8.336  0.8005  0.3957 -0.8506
 9587SOL    HW230630   2.826   7.223   8.452 -1.4847  1.0386  1.2539
 9588SOL     OW30631   5.742   5.098   1.377  0.2981  0.3825  0.3462
 9588SOL    HW130632   5.686   5.144   1.315  0.3297  0.6482  0.5113
 9588SOL    HW230633   5.713   5.007   1.373 -0.4068  0.5778  0.7029
 9589SOL     OW30634   0.091   6.408   8.718  0.2537 -0.2310  0.6911
 9589SOL    HW130635   0.056   6.493   8.745  0.8669  0.0667  0.5482
 9589SOL    HW230636   0.176   6.428   8.679 -0.5607 -0.6275 -1.4841
 9590SOL     OW30637   3.445   5.979   0.031 -0.5615  0.0446  0.3902
 9590SOL    HW130638   3.418   6.071   0.020  1.3686  0.7131  0.8197
 9590SOL    HW230639   3.501   5.962  -0.045  1.0001  0.0043  1.5083
 9591SOL     OW30640   5.931   6.334   2.871  0.5710  0.5127  0.0216
 9591SOL    HW130641   5.926   6.366   2.781 -0.4888 -0.0676 -0.1368
 9591SOL    HW230642   5.840   6.317   2.897  0.9014  0.1097  0.9935
 9592SOL     OW30643   7.654   3.444   1.160 -0.0932 -0.4325 -0.1895
 9592SOL    HW130644   7.614   3.531   1.150 -0.3297 -0.6094 -0.8540
 9592SOL    HW230645   7.746   3.462   1.178  0.2424 -0.0427 -2.0980
 9593SOL     OW30646   8.395   5.482   1.907 -0.3656 -0.5907 -0.0700
 9593SOL    HW130647   8.371   5.486   2.000  0.1446  0.3283  0.0343
 9593SOL    HW230648   8.388   5.389   1.885 -0.4597 -0.8297  0.9024
 9594SOL     OW30649   6.348   7.427   3.686  0.0214  0.7133 -0.4765
 9594SOL    HW130650   6.388   7.345   3.716  0.3573  1.3575  0.9186
 9594SOL    HW230651   6.274   7.441   3.745 -1.2635  0.4290 -1.9517
 9595SOL     OW30652   3.872   1.110   8.782  0.0187  0.0352  0.7117
 9595SOL    HW130653   3.911   1.195   8.800  1.8937 -0.7852  0.7300
 9595SOL    HW230654   3.929   1.047   8.826 -0.9189 -1.2903  0.1079
 9596SOL     OW30655   0.920   3.305   6.109 -0.1130 -0.6339 -0.0548
 9596SOL    HW130656   0.971   3.371   6.061  1.9109 -0.2826  2.3973
 9596SOL    HW230657   0.967   3.223   6.094 -0.8402 -0.9768 -0.5444
 9597SOL     OW30658   4.939   5.722   5.542  0.1161 -0.5140 -0.0614
 9597SOL    HW130659   4.874   5.732   5.612  0.5258 -0.4313  0.3107
 9597SOL    HW230660   4.900   5.766   5.467  0.9018  1.9979  0.9092
 9598SOL     OW30661   5.708   7.767   7.572 -0.0414  0.1299 -0.8286
 9598SOL    HW130662   5.788   7.768   7.625  0.7583  0.5282 -2.0038
 9598SOL    HW230663   5.724   7.700   7.505 -1.0924 -0.4613 -0.5206
 9599SOL     OW30664   6.276   1.651   1.562  0.0673  0.2371 -0.3747
 9599SOL    HW130665   6.255   1.581   1.500  0.3273 -0.0618 -0.1300
 9599SOL    HW230666   6.268   1.609   1.648 -2.1331  1.1184 -0.0922
 9600SOL     OW30667   2.434   6.063   5.500  0.3756 -0.2479 -0.1968
 9600SOL    HW130668   2.426   6.119   5.578  1.2551  0.2716 -0.4582
 9600SOL    HW230669   2.528   6.063   5.481  0.4645 -2.1907  0.0475
 9601SOL     OW30670   3.980   8.136   6.090  0.6230  0.2319  0.4477
 9601SOL    HW130671   3.938   8.223   6.087 -0.3652 -0.1959  1.2632
 9601SOL    HW230672   4.050   8.146   6.155  0.0026  0.2132  1.1297
 9602SOL     OW30673   0.743   4.573   5.396 -0.2733 -0.1542 -0.2448
 9602SOL    HW130674   0.764   4.590   5.488  0.3110  0.2330 -0.4444
 9602SOL    HW230675   0.818   4.607   5.348 -0.9226  0.3385 -0.9191
 9603SOL     OW30676   6.696   2.011   1.853  0.0644 -0.9972 -0.2417
 9603SOL    HW130677   6.722   1.938   1.909 -0.3916 -1.8796 -1.1468
 9603SOL    HW230678   6.754   2.006   1.777  1.7129  1.1158  0.7832
 9604SOL     OW30679   8.779   8.751   8.274 -0.4610 -0.7199  0.0113
 9604SOL    HW130680   8.862   8.797   8.260 -0.6390 -0.5589 -0.5290
 9604SOL    HW230681   8.717   8.795   8.216 -1.2714  0.0686  1.4232
 9605SOL     OW30682   2.506   8.824   8.893  0.1778 -0.1720  0.1050
 9605SOL    HW130683   2.447   8.818   8.817  0.0505 -0.8784  0.2532
 9605SOL    HW230684   2.508   8.918   8.914 -0.6882 -0.1045 -0.0634
 9606SOL     OW30685   3.653   7.371   6.036 -0.3487 -0.7805 -0.1694
 9606SOL    HW130686   3.724   7.356   6.099  2.6049  2.3817 -2.3687
 9606SOL    HW230687   3.665   7.301   5.971 -0.7531 -1.6114  0.6349
 9607SOL     OW30688   2.261   8.874   3.403 -0.1210  0.0798  0.0203
 9607SOL    HW130689   2.317   8.796   3.399 -0.2365 -0.0629  0.9273
 9607SOL    HW230690   2.294   8.923   3.478  0.2736  1.1766 -0.8399
 9608SOL     OW30691   7.739   5.701   0.431  0.4661 -0.1680 -0.0626
 9608SOL    HW130692   7.785   5.758   0.492  1.4516 -1.6377  0.6293
 9608SOL    HW230693   7.744   5.614   0.471 -2.2100 -0.5555 -0.3676
 9609SOL     OW30694   4.516   0.988   1.096 -0.5803  0.3184 -0.0962
 9609SOL    HW130695   4.468   0.907   1.082 -1.5694  0.9356 -0.3930
 9609SOL    HW230696   4.458   1.042   1.150  0.1044  0.7952  0.1875
 9610SOL     OW30697   3.168   7.744   6.594  0.0023  0.2420 -0.9144
 9610SOL    HW130698   3.154   7.836   6.617  1.5980  0.2261  0.3148
 9610SOL    HW230699   3.256   7.742   6.556 -0.8732 -0.4642 -3.0169
 9611SOL     OW30700   6.964   0.012   5.973 -0.0773 -0.4276 -0.0184
 9611SOL    HW130701   6.947  -0.059   6.036 -0.0603  0.3642  0.9028
 9611SOL    HW230702   7.038   0.060   6.010  0.2536 -0.2288 -0.9047
 9612SOL     OW30703   0.806   7.715   0.635  0.3103 -0.4110  0.1903
 9612SOL    HW130704   0.719   7.690   0.666 -0.3338  1.7335  0.3467
 9612SOL    HW230705   0.860   7.718   0.715  0.9776 -3.1121 -0.0746
 9613SOL     OW30706   0.060   5.475   1.589  0.3060 -0.1980  0.8548
 9613SOL    HW130707   0.139   5.421   1.593  0.1681 -0.3228  2.3429
 9613SOL    HW230708   0.079   5.551   1.643  0.3824  1.1605 -0.9706
 9614SOL     OW30709   5.507   7.855   0.439  0.7235 -0.2773  0.0282
 9614SOL    HW130710   5.468   7.896   0.361  1.4022 -1.0148 -0.7145
 9614SOL    HW230711   5.551   7.928   0.483 -0.1680  0.2656  0.0557
 9615SOL     OW30712   2.612   3.866   3.961  0.1885 -0.4097  0.7002
 9615SOL    HW130713   2.616   3.817   3.879  1.0607 -1.9273  1.6054
 9615SOL    HW230714   2.609   3.958   3.934 -3.2079 -0.8814 -1.1186
 9616SOL     OW30715   7.938   5.181   5.656 -0.1097  0.6086  0.1300
 9616SOL    HW130716   7.906   5.154   5.742  1.7442  1.0304  1.0089
 9616SOL    HW230717   8.026   5.142   5.650 -0.4612  0.0104 -1.8858
 9617SOL     OW30718   3.385   6.784   5.751 -0.3121 -0.1707 -0.2282
 9617SOL    HW130719   3.300   6.778   5.794 -0.8637  0.3862 -1.2052
 9617SOL    HW230720   3.409   6.694   5.732 -0.7109 -0.3246 -0.0131
 9618SOL     OW30721   7.927   6.052   1.401 -0.0459  0.1514  0.3153
 9618SOL    HW130722   8.006   6.107   1.404 -0.4283  0.6584  2.5623
 9618SOL    HW230723   7.857   6.109   1.430 -0.7439 -1.0582  1.1086
 9619SOL     OW30724   6.557   6.038   3.763 -0.6391  0.7841  0.3454
 9619SOL    HW130725   6.625   6.004   3.822 -0.7784  0.5718  0.3861
 9619SOL    HW230726   6.532   5.962   3.709  1.5046  1.6060 -1.9806
 9620SOL     OW30727   7.966   7.387   8.035 -0.4493  0.0279  0.3392
 9620SOL    HW130728   8.049   7.353   8.003  0.0643  0.3700  1.2656
 9620SOL    HW230729   7.940   7.325   8.104 -1.5829 -0.7558 -0.7557
 9621SOL     OW30730   7.815   3.915   6.500  0.1972 -0.4642 -0.0449
 9621SOL    HW130731   7.812   4.010   6.495 -0.8033 -0.4304  0.7985
 9621SOL    HW230732   7.741   3.885   6.448 -1.5590 -0.6118  2.3660
 9622SOL     OW30733   0.008   8.655   1.052  0.8239 -0.0663 -0.1504
 9622SOL    HW130734  -0.009   8.745   1.081  0.1647 -0.1451 -0.2927
 9622SOL    HW230735   0.084   8.628   1.104  0.6181  0.3440  0.3730
 9623SOL     OW30736   8.582   5.496   2.933  0.0801 -0.1042  0.0415
 9623SOL    HW130737   8.526   5.432   2.889  0.3269  0.2798 -0.8612
 9623SOL    HW230738   8.553   5.494   3.024  0.1716 -1.5876  0.0635
 9624SOL     OW30739   8.123   7.951   5.841  0.2482 -0.3263  0.8866
 9624SOL    HW130740   8.136   7.938   5.935 -1.6686 -0.8031  1.1368
 9624SOL    HW230741   8.044   8.005   5.835 -1.5791 -2.8906 -0.4392
 9625SOL     OW30742   8.285   1.524   5.042  0.0411 -0.3458 -0.0965
 9625SOL    HW130743   8.366   1.491   5.082 -0.1359  1.2154  1.7194
 9625SOL    HW230744   8.278   1.613   5.075 -2.7766 -0.6607  0.3550
 9626SOL     OW30745   2.498   5.278   3.600 -0.6106  0.1382 -0.2630
 9626SOL    HW130746   2.424   5.230   3.638 -1.2051  2.3368  1.5973
 9626SOL    HW230747   2.476   5.285   3.507 -2.4410  0.1704  0.1241
 9627SOL     OW30748   6.735   4.055   0.237 -0.4674  0.2008  0.0458
 9627SOL    HW130749   6.673   3.999   0.190  0.6716 -1.3607  0.3179
 9627SOL    HW230750   6.733   4.021   0.327  1.1463 -0.2188 -0.0618
 9628SOL     OW30751   1.452   5.650   4.061 -0.1203  0.0714  0.7098
 9628SOL    HW130752   1.445   5.583   3.992 -0.5340  1.3721 -0.5516
 9628SOL    HW230753   1.416   5.607   4.139 -0.3860 -1.1768 -0.0634
 9629SOL     OW30754   3.281   3.268   4.297 -0.4133  0.0094 -0.3191
 9629SOL    HW130755   3.337   3.192   4.314  0.0708  0.7955  1.9034
 9629SOL    HW230756   3.319   3.309   4.219  0.7687 -0.7050 -0.1471
 9630SOL     OW30757   1.083   0.877   5.122  0.3534 -0.0228  0.0892
 9630SOL    HW130758   1.019   0.924   5.175  1.4534  1.4841  0.1480
 9630SOL    HW230759   1.132   0.823   5.185  1.5246  1.6107  0.6377
 9631SOL     OW30760   5.157   8.562   3.992  0.2727 -0.1471  0.0471
 9631SOL    HW130761   5.207   8.616   3.931 -0.1003  1.2013  0.8891
 9631SOL    HW230762   5.091   8.518   3.938  2.0973 -1.6917 -1.0292
 9632SOL     OW30763   2.214   1.269   4.318  0.6401 -0.3325  0.1787
 9632SOL    HW130764   2.196   1.319   4.238 -1.5479 -0.1128  0.7473
 9632SOL    HW230765   2.219   1.336   4.386  1.0964 -0.6345  0.4436
 9633SOL     OW30766   3.605   7.423   3.575  0.2945  0.2549 -0.0096
 9633SOL    HW130767   3.616   7.407   3.669  2.0346 -0.1851 -0.2600
 9633SOL    HW230768   3.646   7.348   3.533  0.9307  1.2028 -1.1333
 9634SOL     OW30769   8.547   0.948   0.311  0.2256 -0.1290 -0.1284
 9634SOL    HW130770   8.458   0.948   0.346 -0.0508  0.4079 -0.8299
 9634SOL    HW230771   8.554   0.866   0.264  0.6652 -0.9562  1.3116
 9635SOL     OW30772   5.023   3.770   3.001  0.5301 -0.1570 -0.4585
 9635SOL    HW130773   5.047   3.801   2.913  0.7833 -0.5997 -0.5522
 9635SOL    HW230774   4.943   3.720   2.987  0.8653 -0.6887 -0.5337
 9636SOL     OW30775   3.240   8.550   1.818  0.6131 -0.1360  0.5566
 9636SOL    HW130776   3.153   8.573   1.850  0.2511 -1.1544  0.3477
 9636SOL    HW230777   3.255   8.461   1.850  2.0647  0.4213  1.5433
 9637SOL     OW30778   4.420   2.020   8.144  0.0403  0.3263  0.4716
 9637SOL    HW130779   4.450   2.106   8.114  1.3054 -0.1722  0.2227
 9637SOL    HW230780   4.455   2.013   8.233 -1.9565  0.9525  1.3655
 9638SOL     OW30781   6.325   1.003   3.846 -0.5913 -0.5665  0.3310
 9638SOL    HW130782   6.295   0.975   3.933  0.1640 -1.8167  0.1973
 9638SOL    HW230783   6.354   0.923   3.803 -0.7133  0.0782 -0.9942
 9639SOL     OW30784   1.673   1.883   3.090  0.5039 -0.6337  0.0050
 9639SOL    HW130785   1.730   1.830   3.146  0.2707 -1.6353 -0.6683
 9639SOL    HW230786   1.732   1.949   3.052  1.2949 -1.8066 -0.8736
 9640SOL     OW30787   0.794   2.719   7.627 -0.2072 -0.0006  0.1582
 9640SOL    HW130788   0.853   2.778   7.674  1.2506 -0.4720 -1.0284
 9640SOL    HW230789   0.833   2.632   7.637 -0.3022 -0.2263 -1.1947
 9641SOL     OW30790   5.222   3.540   7.642 -0.5149 -0.6742  0.4209
 9641SOL    HW130791   5.201   3.604   7.574 -0.1276 -0.0599  0.8614
 9641SOL    HW230792   5.280   3.588   7.702 -0.1373 -1.4771  0.7058
 9642SOL     OW30793   7.692   5.156   1.624  0.4730  0.0171  0.6104
 9642SOL    HW130794   7.596   5.164   1.623  0.5361  1.3580 -1.3457
 9642SOL    HW230795   7.723   5.243   1.645  1.2682 -0.0994 -0.0506
 9643SOL     OW30796   0.893   8.405   8.090 -0.1324  0.4269 -0.6528
 9643SOL    HW130797   0.820   8.422   8.151  1.1774  1.5367  0.6782
 9643SOL    HW230798   0.856   8.345   8.025 -2.0353  0.4059  0.3693
 9644SOL     OW30799   3.346   8.463   5.381 -0.1778  0.0893 -0.5417
 9644SOL    HW130800   3.334   8.532   5.316 -0.7825  0.1774 -0.3381
 9644SOL    HW230801   3.263   8.415   5.382 -0.0427 -0.1422 -0.1059
 9645SOL     OW30802   5.556   0.280   7.580  0.3862  0.0574  0.0401
 9645SOL    HW130803   5.635   0.226   7.582 -0.3694 -1.1466  2.3928
 9645SOL    HW230804   5.561   0.333   7.660 -1.3579 -0.3922  0.4935
 9646SOL     OW30805   0.201   6.926   5.819 -0.1292 -0.0787  0.0115
 9646SOL    HW130806   0.273   6.943   5.758 -0.5873  0.6783 -0.3278
 9646SOL    HW230807   0.208   6.832   5.839 -0.0293 -0.3544 -1.2686
 9647SOL     OW30808   5.042   7.911   0.740 -0.2726  0.3578  0.2624
 9647SOL    HW130809   5.057   8.005   0.752 -0.3798  0.4821 -0.5267
 9647SOL    HW230810   5.121   7.879   0.696  0.6045 -0.3046  2.2092
 9648SOL     OW30811   5.764   7.454   3.636 -0.2165  0.3085  0.6703
 9648SOL    HW130812   5.676   7.480   3.606 -0.0491  1.0626  0.8163
 9648SOL    HW230813   5.797   7.531   3.681  1.1764  0.5919 -0.7759
 9649SOL     OW30814   6.175   6.899   4.596 -0.1888 -0.6606  0.2785
 9649SOL    HW130815   6.122   6.977   4.608 -0.4857 -0.1009 -3.5734
 9649SOL    HW230816   6.117   6.827   4.623 -1.9894  0.1309 -1.2384
 9650SOL     OW30817   3.923   2.619   8.373 -0.0825 -0.0020  0.3316
 9650SOL    HW130818   3.970   2.568   8.308  0.2058  1.6926 -0.8563
 9650SOL    HW230819   3.939   2.573   8.456  2.1642 -0.4958 -0.3073
 9651SOL     OW30820   3.656   4.797   2.947  0.0704 -0.6361 -0.0658
 9651SOL    HW130821   3.709   4.728   2.988  1.0869 -0.8237 -1.6125
 9651SOL    HW230822   3.626   4.758   2.864  0.4141  0.6684 -0.8293
 9652SOL     OW30823   1.557   0.075   0.707  0.2240 -0.2788 -0.2689
 9652SOL    HW130824   1.647   0.053   0.731 -0.0502 -2.6765 -1.1452
 9652SOL    HW230825   1.558   0.083   0.612 -0.4318 -0.0596 -0.2662
 9653SOL     OW30826   1.177   2.655   2.760 -0.3034  0.1436  0.0280
 9653SOL    HW130827   1.255   2.698   2.727 -0.4861  0.4669  0.0088
 9653SOL    HW230828   1.196   2.562   2.754  0.9888  0.1926  2.1648
 9654SOL     OW30829   7.856   0.844   2.083 -0.7746  0.5920 -0.3231
 9654SOL    HW130830   7.870   0.831   1.989  2.0340  0.2943  0.0448
 9654SOL    HW230831   7.816   0.931   2.089  0.6143  1.3776 -1.7382
 9655SOL     OW30832   7.387   6.662   6.492  0.2490 -0.0239  0.0894
 9655SOL    HW130833   7.457   6.615   6.537  0.1022 -0.7821 -0.4530
 9655SOL    HW230834   7.364   6.733   6.551  0.8451 -0.3151  0.6863
 9656SOL     OW30835   4.382   4.553   2.225 -0.7602  0.1096 -0.2484
 9656SOL    HW130836   4.324   4.589   2.293 -0.3663 -1.4967  0.9783
 9656SOL    HW230837   4.417   4.473   2.262  1.0973  0.2365 -1.5645
 9657SOL     OW30838   6.029   1.059   5.331 -0.0955 -0.5463  0.0563
 9657SOL    HW130839   5.966   1.078   5.262  0.4549 -2.6947 -1.1161
 9657SOL    HW230840   5.975   1.042   5.408 -0.7446  1.1432  0.0353
 9658SOL     OW30841   8.610   6.603   5.837  0.3884  0.0753  0.3470
 9658SOL    HW130842   8.599   6.674   5.773 -0.4240  0.3550  0.7812
 9658SOL    HW230843   8.578   6.525   5.792 -2.2092  0.6119  1.0559
 9659SOL     OW30844   6.965   1.292   4.681 -0.0982 -0.1893  0.3797
 9659SOL    HW130845   6.977   1.368   4.738 -0.7784  0.5354 -0.4117
 9659SOL    HW230846   6.986   1.217   4.736  1.8688  0.6258  0.8275
 9660SOL     OW30847   0.974   5.643   4.362  1.1832 -0.0024  0.3809
 9660SOL    HW130848   0.970   5.549   4.380  0.3854  0.1116  0.8329
 9660SOL    HW230849   0.883   5.668   4.345  1.5575  0.4354 -1.1105
 9661SOL     OW30850   1.334   3.214   0.905 -0.5383 -0.5055  0.4244
 9661SOL    HW130851   1.296   3.275   0.843 -2.0335 -0.8357  0.9726
 9661SOL    HW230852   1.392   3.268   0.960 -2.7688  0.7304  1.7021
 9662SOL     OW30853   1.045   4.331   4.942  0.3417  0.9116  0.5030
 9662SOL    HW130854   1.114   4.270   4.917 -0.4240  0.0572  0.4281
 9662SOL    HW230855   1.047   4.333   5.037 -1.2087 -1.1718  0.6586
 9663SOL     OW30856   2.732   5.227   4.149  0.1600  0.2619  0.3063
 9663SOL    HW130857   2.730   5.243   4.055  2.2552 -1.2481 -0.0714
 9663SOL    HW230858   2.823   5.203   4.167 -0.0597  1.0700  2.8367
 9664SOL     OW30859   4.974   7.637   2.376 -0.7089 -0.0336 -0.2992
 9664SOL    HW130860   5.019   7.701   2.432  0.4609 -0.7795 -0.3627
 9664SOL    HW230861   4.968   7.680   2.291  0.5842 -0.2061 -0.4948
 9665SOL     OW30862   4.070   7.911   4.124  0.2370  0.9923  0.1489
 9665SOL    HW130863   3.984   7.907   4.081  0.9162  1.7793 -1.3528
 9665SOL    HW230864   4.130   7.873   4.060  0.7496 -1.8810  2.1220
 9666SOL     OW30865   5.190   5.444   3.964  0.5011 -0.4434  0.2993
 9666SOL    HW130866   5.105   5.405   3.981 -0.1030  1.3002  1.5616
 9666SOL    HW230867   5.227   5.460   4.051  0.9804  1.1708 -0.1717
 9667SOL     OW30868   6.806   3.834   7.862 -0.2119  0.1436  0.1830
 9667SOL    HW130869   6.755   3.757   7.885  2.3995 -1.1508  2.1603
 9667SOL    HW230870   6.870   3.803   7.799  0.8265  0.6547  0.9457
 9668SOL     OW30871   5.635   5.311   6.029  0.4684 -0.7916 -0.3363
 9668SOL    HW130872   5.637   5.333   6.122  0.8001  1.2825 -0.7780
 9668SOL    HW230873   5.726   5.290   6.007  0.9416  1.4039 -0.7144
 9669SOL     OW30874   3.868   6.018   3.142 -0.1171 -0.3991 -0.3554
 9669SOL    HW130875   3.781   6.028   3.105 -0.8997 -1.0386  1.2172
 9669SOL    HW230876   3.853   5.991   3.233  1.7106  0.3382  0.2192
 9670SOL     OW30877   6.434   6.639   6.414  0.2372 -0.2896  0.0980
 9670SOL    HW130878   6.498   6.588   6.463  1.3419 -0.8698 -1.8177
 9670SOL    HW230879   6.361   6.653   6.475  1.9085 -0.1223  2.1595
 9671SOL     OW30880   0.994   1.080   1.684 -0.2549 -0.1590  0.8015
 9671SOL    HW130881   0.959   1.037   1.606  1.0614  0.5598 -0.2358
 9671SOL    HW230882   1.070   1.027   1.709 -0.2813 -0.0186  1.1862
 9672SOL     OW30883   6.315   0.450   4.388  0.1322 -0.3443  0.1282
 9672SOL    HW130884   6.356   0.443   4.474 -0.8879 -0.2766  0.6418
 9672SOL    HW230885   6.234   0.399   4.396 -0.1777  0.0072 -0.6541
 9673SOL     OW30886   8.446   4.487   4.828 -0.3500 -0.8911 -0.3593
 9673SOL    HW130887   8.523   4.509   4.881 -0.3517  2.0355 -1.3615
 9673SOL    HW230888   8.374   4.532   4.871 -0.8435 -0.7585 -1.2943
 9674SOL     OW30889   2.793   4.839   1.417 -0.1205 -0.1810  0.3557
 9674SOL    HW130890   2.831   4.782   1.484  0.0704 -0.2150  0.2188
 9674SOL    HW230891   2.699   4.823   1.422  0.0424 -1.6936 -0.7570
 9675SOL     OW30892   6.919   4.884   0.971  0.7063 -0.0330  0.1358
 9675SOL    HW130893   6.942   4.895   1.063 -0.8845 -1.1396  0.7201
 9675SOL    HW230894   6.823   4.881   0.970  0.7178 -1.8545 -1.3125
 9676SOL     OW30895   8.782   0.155   3.543 -0.7660  0.2072  0.1692
 9676SOL    HW130896   8.778   0.194   3.456  1.8536 -0.5626 -0.3904
 9676SOL    HW230897   8.840   0.079   3.533 -1.5012 -0.7132  2.3087
 9677SOL     OW30898   1.837   4.292   7.920 -0.1349  0.5552 -0.5047
 9677SOL    HW130899   1.903   4.334   7.865 -0.5931 -0.1136 -1.6066
 9677SOL    HW230900   1.759   4.289   7.865 -0.8200  0.5061  0.4527
 9678SOL     OW30901   3.885   3.968   8.740 -0.3024  0.3957  0.7931
 9678SOL    HW130902   3.796   3.968   8.705 -0.1108  0.3375  0.3046
 9678SOL    HW230903   3.898   4.057   8.773 -0.7971  0.2073  1.5297
 9679SOL     OW30904   4.506   0.119   5.597  0.0720  0.0063  0.0699
 9679SOL    HW130905   4.509   0.143   5.504  0.5354  0.8296  0.2909
 9679SOL    HW230906   4.412   0.108   5.615 -0.0013 -0.6025 -0.5919
 9680SOL     OW30907   4.355   2.341   5.396  0.4407 -0.1701 -0.9371
 9680SOL    HW130908   4.400   2.397   5.459 -0.7432 -0.2472  0.0113
 9680SOL    HW230909   4.393   2.254   5.409  0.6699 -0.0487 -0.7995
 9681SOL     OW30910   1.221   4.559   7.605  0.4394  0.2156 -0.1473
 9681SOL    HW130911   1.163   4.573   7.530  1.2415  1.4064 -0.5652
 9681SOL    HW230912   1.190   4.622   7.671 -0.5108 -1.0853  0.7121
 9682SOL     OW30913   7.421   1.554   8.108 -0.5923  0.3874  0.8512
 9682SOL    HW130914   7.463   1.527   8.027 -1.6824 -2.2590  1.0618
 9682SOL    HW230915   7.387   1.641   8.090  0.1180  0.2913 -1.1571
 9683SOL     OW30916   4.463   6.367   6.076  0.4212 -0.2395 -0.3917
 9683SOL    HW130917   4.497   6.286   6.036  2.4870  0.3910 -0.0515
 9683SOL    HW230918   4.420   6.338   6.156  2.2686 -0.9561  0.4078
 9684SOL     OW30919   0.426   5.856   7.811 -0.1295 -0.1409  0.3682
 9684SOL    HW130920   0.511   5.848   7.854 -0.0226 -2.7995 -0.1817
 9684SOL    HW230921   0.362   5.852   7.883  0.1469  0.0523  0.6273
 9685SOL     OW30922   6.800   3.488   3.534  0.0626  0.7811  0.3107
 9685SOL    HW130923   6.868   3.423   3.520  0.3166  1.4475 -1.8942
 9685SOL    HW230924   6.845   3.572   3.528 -0.8422  1.2204 -0.7394
 9686SOL     OW30925   3.561   3.685   3.756 -0.6349 -0.1685  0.1464
 9686SOL    HW130926   3.604   3.607   3.792  0.2437 -0.9019 -2.3313
 9686SOL    HW230927   3.603   3.758   3.801 -0.5330 -1.0547  1.5539
 9687SOL     OW30928   8.956   3.768   6.177  0.3027  0.2196  0.0162
 9687SOL    HW130929   8.948   3.776   6.082  2.0483  0.1011 -0.1614
 9687SOL    HW230930   9.050   3.761   6.194 -0.0159 -0.7405  1.6760
 9688SOL     OW30931   1.496   4.272   1.447  0.5178 -0.0830 -0.0535
 9688SOL    HW130932   1.533   4.323   1.519  0.7500  0.8649 -0.8298
 9688SOL    HW230933   1.522   4.182   1.466 -0.7705 -0.1226  1.8957
 9689SOL     OW30934   3.346   4.937   3.353  0.7257  0.8463 -0.1153
 9689SOL    HW130935   3.253   4.925   3.334  0.2832  1.8408  1.3034
 9689SOL    HW230936   3.362   5.030   3.342  2.1046  0.4178 -2.4579
 9690SOL     OW30937   5.541   1.432   8.528 -0.0628 -0.0998 -0.4915
 9690SOL    HW130938   5.538   1.473   8.615 -1.2979 -0.7092 -0.2152
 9690SOL    HW230939   5.617   1.471   8.485 -0.3009  1.3059  0.3229
 9691SOL     OW30940   6.867   1.116   6.186 -0.4679 -0.0619 -0.6062
 9691SOL    HW130941   6.797   1.083   6.243  0.5567 -0.3895  0.5247
 9691SOL    HW230942   6.899   1.038   6.140  0.6125 -0.3594  0.5668
 9692SOL     OW30943   6.804   6.169   3.609 -0.0111  0.3087  0.2284
 9692SOL    HW130944   6.711   6.170   3.587 -0.0280  1.1384  0.3265
 9692SOL    HW230945   6.824   6.076   3.623 -0.6976  0.0674 -0.3110
 9693SOL     OW30946   0.074   5.586   1.932 -0.0037  0.0018  0.2972
 9693SOL    HW130947   0.026   5.520   1.883  0.9334 -0.6328  0.2067
 9693SOL    HW230948   0.129   5.629   1.866  1.2560 -0.8501  0.7672
 9694SOL     OW30949   8.919   1.337   7.681  0.2115  0.1480  0.0790
 9694SOL    HW130950   8.830   1.373   7.686 -0.0491 -0.4915  0.1732
 9694SOL    HW230951   8.963   1.371   7.758 -0.5081 -0.9622  1.0224
 9695SOL     OW30952   2.851   8.015   6.421  0.5621 -0.6877 -1.1039
 9695SOL    HW130953   2.903   8.012   6.502  0.5987  1.0893 -1.0362
 9695SOL    HW230954   2.916   8.021   6.351  0.4941 -0.1628 -1.1258
 9696SOL     OW30955   0.885   3.923   1.296 -0.2527  0.3718 -0.3585
 9696SOL    HW130956   0.924   4.010   1.291  0.6729  0.0323  0.5753
 9696SOL    HW230957   0.958   3.864   1.314 -0.8813 -0.5926 -0.8220
 9697SOL     OW30958   2.561   5.895   3.092 -0.3112 -0.0751 -0.0191
 9697SOL    HW130959   2.582   5.970   3.148  0.4321  0.1593 -0.5947
 9697SOL    HW230960   2.467   5.902   3.077 -0.1327  1.1683 -0.6540
 9698SOL     OW30961   5.032   1.083   4.765  0.1438  0.4880  0.2003
 9698SOL    HW130962   4.937   1.088   4.751  0.2984  0.5956 -0.9630
 9698SOL    HW230963   5.051   0.990   4.770 -0.1422  0.4875  1.4219
 9699SOL     OW30964   0.662   5.764   0.941  0.2634  0.0553  0.0735
 9699SOL    HW130965   0.606   5.750   1.018 -2.1861  1.3550 -1.3361
 9699SOL    HW230966   0.721   5.835   0.966 -0.2119  0.1672  0.9077
 9700SOL     OW30967   0.494   6.535   2.641  0.5492  0.1917 -0.9584
 9700SOL    HW130968   0.581   6.542   2.602  0.5456  1.1419 -0.8223
 9700SOL    HW230969   0.434   6.540   2.566  0.5983  0.0083 -1.0099
 9701SOL     OW30970   3.280   2.934   5.601  0.7196 -0.5611  0.0007
 9701SOL    HW130971   3.373   2.932   5.620  0.2808 -3.0100  2.5358
 9701SOL    HW230972   3.245   2.854   5.640 -2.3496 -0.1687 -1.5651
 9702SOL     OW30973   1.493   2.014   7.168  0.5415  0.6125  0.8356
 9702SOL    HW130974   1.426   2.082   7.160 -2.5593 -2.1246  1.1474
 9702SOL    HW230975   1.472   1.969   7.250  2.9027 -0.3525  1.0034
 9703SOL     OW30976   6.832   8.573   3.196  0.4360 -0.4622  0.0980
 9703SOL    HW130977   6.839   8.628   3.118  0.4568  1.5339  1.4230
 9703SOL    HW230978   6.895   8.503   3.182  3.2083  1.9068 -0.1297
 9704SOL     OW30979   1.926   8.348   5.912 -0.1808 -0.1550  0.0409
 9704SOL    HW130980   1.864   8.294   5.864  0.2639  1.1395 -2.1052
 9704SOL    HW230981   1.964   8.289   5.977 -2.8036 -1.2593  0.6996
 9705SOL     OW30982   3.622   3.563   4.649 -0.1522  1.0020 -0.5307
 9705SOL    HW130983   3.594   3.654   4.646  0.9810  1.3335 -1.4882
 9705SOL    HW230984   3.591   3.525   4.567 -0.2073  0.6376 -0.3474
 9706SOL     OW30985   8.633   1.944   3.622 -0.1257  0.7935 -0.4223
 9706SOL    HW130986   8.642   1.932   3.716 -0.3845 -1.5341 -0.6446
 9706SOL    HW230987   8.542   1.922   3.603  0.7572 -2.3756 -1.6006
 9707SOL     OW30988   2.129   4.093   1.695 -0.1434  0.0159 -0.0096
 9707SOL    HW130989   2.082   4.017   1.661 -1.8955 -0.2931  2.8277
 9707SOL    HW230990   2.189   4.058   1.760  1.2960  0.8303 -0.8335
 9708SOL     OW30991   8.637   1.312   2.216 -0.0624 -0.2749  0.4325
 9708SOL    HW130992   8.660   1.311   2.123 -0.1007  2.0312  0.3423
 9708SOL    HW230993   8.698   1.250   2.257  1.4514  0.3218 -0.8225
 9709SOL     OW30994   1.918   5.376   0.783 -0.1771 -0.2334 -0.2210
 9709SOL    HW130995   1.962   5.346   0.704  0.0303 -1.8885  0.4813
 9709SOL    HW230996   1.943   5.468   0.792 -1.8081  0.6373 -3.1554
 9710SOL     OW30997   4.641   6.283   1.191 -0.1668  0.7163  0.0316
 9710SOL    HW130998   4.673   6.370   1.215 -0.1106  0.2319  1.8314
 9710SOL    HW230999   4.546   6.289   1.201 -0.2501  0.8177 -0.7483
 9711SOL     OW31000   1.926   1.774   8.254 -0.1823  0.0481  0.1570
 9711SOL    HW131001   1.942   1.751   8.345  1.2101 -0.7547 -0.2719
 9711SOL    HW231002   1.912   1.868   8.255  1.5281  0.3279  1.0060
 9712SOL     OW31003   3.831   4.350   6.465  0.7731 -0.1795  0.4587
 9712SOL    HW131004   3.781   4.431   6.455  1.0236 -0.0559  0.1822
 9712SOL    HW231005   3.917   4.378   6.495  0.5721 -0.4210  1.2774
 9713SOL     OW31006   0.306   5.041   2.595 -0.1403  0.0696  0.4159
 9713SOL    HW131007   0.267   5.126   2.617 -2.9209 -0.8775 -0.4793
 9713SOL    HW231008   0.377   5.062   2.534 -1.0737  1.7201 -0.1595
 9714SOL     OW31009   5.553   8.608   0.125  0.0080  0.5816  0.8331
 9714SOL    HW131010   5.519   8.519   0.124 -0.7680  0.8629 -0.3386
 9714SOL    HW231011   5.502   8.652   0.193  0.5505  0.0823  1.5694
 9715SOL     OW31012   7.534   6.269   2.020 -0.3806  0.1268 -0.0751
 9715SOL    HW131013   7.502   6.226   1.940  1.4249  0.7669 -1.2107
 9715SOL    HW231014   7.576   6.349   1.989  1.0785  0.0047  1.4125
 9716SOL     OW31015   8.584   3.211   7.203  0.3348  0.2596  0.3079
 9716SOL    HW131016   8.504   3.179   7.161  1.1075 -0.1324 -0.9472
 9716SOL    HW231017   8.586   3.167   7.288 -0.7495  0.2471  0.3438
 9717SOL     OW31018   5.392   8.580   4.356  0.1554 -0.3700 -0.2728
 9717SOL    HW131019   5.473   8.528   4.364 -0.0325 -0.4262  1.6551
 9717SOL    HW231020   5.394   8.639   4.432 -0.6078  1.1060 -1.3534
 9718SOL     OW31021   3.716   0.264   3.721 -0.2644  0.4756  0.1917
 9718SOL    HW131022   3.765   0.312   3.655 -0.7233  0.5008 -0.1321
 9718SOL    HW231023   3.669   0.197   3.672 -0.3858  0.3113  0.5280
 9719SOL     OW31024   2.276   4.362   2.479 -0.0345 -0.5820 -0.0390
 9719SOL    HW131025   2.305   4.422   2.410  1.5308 -0.0020  1.0434
 9719SOL    HW231026   2.293   4.410   2.561 -0.4882 -1.7918  0.8034
 9720SOL     OW31027   8.981   4.192   5.233 -0.6318  0.5396  0.0921
 9720SOL    HW131028   9.043   4.163   5.166 -0.3706 -1.7564  1.2165
 9720SOL    HW231029   8.912   4.125   5.232 -1.2353  1.1065  1.3177
 9721SOL     OW31030   5.959   1.795   2.657 -0.7623 -0.0912 -0.3342
 9721SOL    HW131031   6.031   1.838   2.703 -0.3499  0.3515 -1.3695
 9721SOL    HW231032   6.001   1.733   2.599 -1.3064 -0.9980  0.2149
 9722SOL     OW31033   0.874   7.085   4.845  0.3623  0.0196 -0.0469
 9722SOL    HW131034   0.813   7.155   4.868  0.2478  0.3250 -1.2587
 9722SOL    HW231035   0.825   7.004   4.860  0.3421  0.1961  0.9035
 9723SOL     OW31036   6.460   7.721   5.043 -0.3378 -0.0320 -0.4114
 9723SOL    HW131037   6.474   7.798   4.988 -0.2594 -0.8737 -1.6124
 9723SOL    HW231038   6.368   7.698   5.029 -0.7106  0.5676  0.9315
 9724SOL     OW31039   3.199   6.137   2.556 -0.8531 -0.1790  0.4244
 9724SOL    HW131040   3.280   6.180   2.526 -0.7844 -0.1953  0.5834
 9724SOL    HW231041   3.213   6.044   2.538 -0.8757 -0.1706  0.3639
 9725SOL     OW31042   5.088   1.963   2.622 -0.3582 -0.2480  0.3218
 9725SOL    HW131043   5.022   2.026   2.649 -2.0755 -1.6291 -0.4327
 9725SOL    HW231044   5.117   1.921   2.703  0.5238  1.1773  0.7820
 9726SOL     OW31045   0.939   0.039   4.412  0.3665  0.1375 -0.1434
 9726SOL    HW131046   0.888   0.009   4.486 -0.9579  1.4796 -0.4609
 9726SOL    HW231047   1.001   0.102   4.449  0.7927 -0.3846  0.0363
 9727SOL     OW31048   2.525   4.878   6.260  0.2956 -0.0680  0.5901
 9727SOL    HW131049   2.572   4.807   6.216  1.9596  0.9328  0.6852
 9727SOL    HW231050   2.559   4.878   6.349 -2.2074 -1.3217  1.6480
 9728SOL     OW31051   5.751   3.741   4.061  0.3580 -0.1369  0.0700
 9728SOL    HW131052   5.678   3.699   4.016 -0.5219  2.4485 -1.1281
 9728SOL    HW231053   5.827   3.722   4.006 -0.2351  0.7283 -1.0998
 9729SOL     OW31054   5.468   6.548   4.475  0.6465  0.6340 -0.2353
 9729SOL    HW131055   5.424   6.616   4.423 -3.7383 -1.9862 -0.4866
 9729SOL    HW231056   5.469   6.583   4.564 -1.1298  1.2796 -0.4322
 9730SOL     OW31057   3.872   5.302   2.773 -0.0428 -0.1228  0.0563
 9730SOL    HW131058   3.904   5.226   2.823  1.4262 -0.4388 -1.2763
 9730SOL    HW231059   3.788   5.274   2.738  0.9558 -1.6017 -1.3029
 9731SOL     OW31060   0.431   7.353   2.254  0.4400  0.4473  0.3968
 9731SOL    HW131061   0.526   7.348   2.264  0.5129  2.3627  0.9578
 9731SOL    HW231062   0.401   7.403   2.329 -0.8896  0.8532 -0.3651
 9732SOL     OW31063   3.151   3.005   7.729  0.0515  0.1946 -0.1333
 9732SOL    HW131064   3.121   2.915   7.718 -0.7714  0.3261  0.9144
 9732SOL    HW231065   3.162   3.038   7.640 -1.4579 -0.3519 -0.5469
 9733SOL     OW31066   6.116   2.258   1.944  0.3082 -0.3567 -0.0171
 9733SOL    HW131067   6.128   2.222   2.032 -1.0419  2.0402  1.2730
 9733SOL    HW231068   6.042   2.318   1.953 -0.3314 -0.5479 -3.0029
 9734SOL     OW31069   2.088   4.629   2.055  0.2441  0.4045 -0.2017
 9734SOL    HW131070   2.030   4.568   2.009  0.5000  1.0692 -1.4798
 9734SOL    HW231071   2.077   4.712   2.008  2.0518  0.6033 -0.3472
 9735SOL     OW31072   3.354   8.438   8.230  0.0031  0.1481 -0.3622
 9735SOL    HW131073   3.334   8.531   8.218 -0.7326  0.0923  0.3861
 9735SOL    HW231074   3.290   8.392   8.175  1.5913  0.1068 -2.2944
 9736SOL     OW31075   8.712   0.429   6.004  0.4549 -0.4069 -0.4061
 9736SOL    HW131076   8.695   0.421   6.098  2.5429  0.7700  0.1207
 9736SOL    HW231077   8.710   0.338   5.972 -1.5395 -0.7376  0.4723
 9737SOL     OW31078   5.846   3.415   3.213  0.0016 -0.2632  0.0482
 9737SOL    HW131079   5.901   3.490   3.189 -0.8665 -0.1629 -1.7694
 9737SOL    HW231080   5.780   3.452   3.272  0.2224  0.1818  0.0247
 9738SOL     OW31081   0.007   6.825   5.474  0.7985 -0.0456 -0.6192
 9738SOL    HW131082   0.006   6.916   5.501  1.9501  0.2139 -1.3674
 9738SOL    HW231083   0.059   6.781   5.542 -1.2663 -0.5346  0.7479
 9739SOL     OW31084   4.757   5.633   6.888  0.0511  1.1025  0.3348
 9739SOL    HW131085   4.791   5.550   6.922 -0.0498  1.5952  1.6664
 9739SOL    HW231086   4.692   5.606   6.822 -0.3093  0.1154  1.0709
 9740SOL     OW31087   1.956   4.793   5.491  0.4998 -0.1943  0.4191
 9740SOL    HW131088   1.895   4.773   5.562 -0.3039 -0.9887 -0.4690
 9740SOL    HW231089   1.937   4.885   5.470  0.3563 -0.1183  0.8597
 9741SOL     OW31090   2.196   5.934   1.837 -0.0000 -0.4512 -0.0365
 9741SOL    HW131091   2.178   5.861   1.897 -1.9396  1.0174  1.2891
 9741SOL    HW231092   2.124   5.933   1.775  0.2298  0.0322 -0.3149
 9742SOL     OW31093   6.540   3.246   7.842 -0.3105 -0.3721  0.6187
 9742SOL    HW131094   6.633   3.258   7.822 -0.8211  0.2619 -1.6223
 9742SOL    HW231095   6.540   3.208   7.930  1.9622  2.0653  1.8089
 9743SOL     OW31096   3.604   7.996   8.740  0.5427  0.2206  0.0004
 9743SOL    HW131097   3.637   8.086   8.732  3.0318 -0.5344  0.8568
 9743SOL    HW231098   3.676   7.948   8.782 -0.9740 -2.0428  0.1679
 9744SOL     OW31099   6.899   3.732   8.980 -0.2263  0.5631 -0.7417
 9744SOL    HW131100   6.970   3.788   9.011 -0.7804  1.0148 -0.2671
 9744SOL    HW231101   6.942   3.668   8.923  0.8436 -0.3022  0.9248
 9745SOL     OW31102   4.149   8.166   7.918  0.3955  0.3778  0.2705
 9745SOL    HW131103   4.167   8.169   8.012 -0.4206  0.1191  0.4456
 9745SOL    HW231104   4.140   8.073   7.898  2.4987  0.2883 -0.4764
 9746SOL     OW31105   3.930   8.368   7.969 -1.1567 -0.0096 -0.1318
 9746SOL    HW131106   3.987   8.306   7.924  1.0832 -0.0218  2.4913
 9746SOL    HW231107   3.877   8.314   8.027  1.2150  0.3754  2.6020
 9747SOL     OW31108   1.768   2.736   0.414  0.3294 -0.5388 -0.1698
 9747SOL    HW131109   1.700   2.684   0.457  0.9413 -0.9319  0.3441
 9747SOL    HW231110   1.771   2.817   0.464 -0.3794 -0.1377 -0.7534
 9748SOL     OW31111   1.674   3.187   3.677 -0.1682 -0.2953 -0.0107
 9748SOL    HW131112   1.600   3.212   3.621 -0.1582 -1.6167 -0.6547
 9748SOL    HW231113   1.736   3.259   3.667 -1.0176  0.4486 -0.1001
 9749SOL     OW31114   2.982   5.192   5.014 -0.1459  0.1573 -0.0750
 9749SOL    HW131115   3.024   5.170   5.097 -0.8190 -1.9998 -0.2514
 9749SOL    HW231116   2.924   5.266   5.035 -0.0580 -0.1491  1.2948
 9750SOL     OW31117   7.055   5.748   7.938  0.2068 -0.0365  0.2042
 9750SOL    HW131118   7.020   5.795   8.014 -0.2562  0.4465 -0.2990
 9750SOL    HW231119   7.044   5.809   7.865 -1.2454 -1.2460 -0.6361
 9751SOL     OW31120   5.299   8.412   0.321  0.1912  0.4023  0.4115
 9751SOL    HW131121   5.344   8.364   0.252 -0.9487 -1.7318  1.0602
 9751SOL    HW231122   5.344   8.386   0.402 -0.3623  0.5095  0.7621
 9752SOL     OW31123   0.133   7.022   2.951  0.1243 -0.0598  0.0928
 9752SOL    HW131124   0.070   6.953   2.969  0.2834 -0.3576 -0.4952
 9752SOL    HW231125   0.120   7.045   2.859 -0.0916  0.8681  0.3383
 9753SOL     OW31126   6.681   2.801   0.087 -0.5900 -0.3975 -0.6435
 9753SOL    HW131127   6.717   2.853   0.015 -1.9462  1.3288 -0.1549
 9753SOL    HW231128   6.757   2.775   0.139  0.2132  0.3047 -1.4388
 9754SOL     OW31129   4.388   6.520   1.083  0.4014  0.7159 -0.3660
 9754SOL    HW131130   4.374   6.566   1.166 -0.6078 -0.3736  0.0940
 9754SOL    HW231131   4.315   6.548   1.028  2.1375  3.0537 -1.7107
 9755SOL     OW31132   8.599   8.944   0.180 -0.4502 -0.4253  0.2107
 9755SOL    HW131133   8.659   9.014   0.153 -0.8985 -0.3636 -0.6484
 9755SOL    HW231134   8.520   8.989   0.208 -1.0508 -0.5974 -1.1317
 9756SOL     OW31135   4.298   6.113   5.804  0.2327  0.7328 -0.4193
 9756SOL    HW131136   4.214   6.105   5.760 -0.4540  0.3393  0.9057
 9756SOL    HW231137   4.321   6.023   5.828  0.6950  0.9104 -0.1891
 9757SOL     OW31138   6.106   1.582   6.911 -0.0258  0.5346 -0.6022
 9757SOL    HW131139   6.158   1.662   6.898  0.8650  0.1140  0.2532
 9757SOL    HW231140   6.091   1.549   6.823  2.0536  0.1228 -0.8663
 9758SOL     OW31141   8.457   6.061   3.384  0.2882  0.4113  0.3462
 9758SOL    HW131142   8.488   5.973   3.361  1.3379  0.4278  1.5926
 9758SOL    HW231143   8.510   6.120   3.331  0.7346  0.3435  0.7100
 9759SOL     OW31144   4.733   2.752   7.762 -0.0312  0.7045  0.0811
 9759SOL    HW131145   4.794   2.738   7.690  0.4985 -0.2554  0.7090
 9759SOL    HW231146   4.757   2.838   7.797 -0.0322  1.0016 -0.6161
 9760SOL     OW31147   0.414   4.488   1.889 -0.7866  0.2563 -0.3092
 9760SOL    HW131148   0.494   4.481   1.941 -1.0933  1.0288  0.2779
 9760SOL    HW231149   0.426   4.424   1.819 -0.1343 -0.4094  0.3960
 9761SOL     OW31150   8.576   4.429   5.104  0.3374  0.7423 -0.1327
 9761SOL    HW131151   8.597   4.338   5.122 -1.4191  0.0419 -1.4415
 9761SOL    HW231152   8.658   4.465   5.069  0.4924 -0.9054 -1.6029
 9762SOL     OW31153   8.494   5.182   0.940  0.1835 -0.5149  0.1590
 9762SOL    HW131154   8.461   5.240   0.871  0.5811 -0.2177  0.2144
 9762SOL    HW231155   8.430   5.191   1.011 -0.3047 -0.9352 -0.2207
 9763SOL     OW31156   3.256   2.147   3.376 -0.1629  0.2855 -0.2978
 9763SOL    HW131157   3.188   2.123   3.439 -0.1908 -1.1207 -0.8284
 9763SOL    HW231158   3.283   2.063   3.337  2.0220  0.7636  0.0545
 9764SOL     OW31159   7.942   1.276   0.304 -0.8868 -0.6075  0.1429
 9764SOL    HW131160   8.016   1.277   0.244 -1.2966 -2.0009 -0.4290
 9764SOL    HW231161   7.899   1.192   0.287 -2.4866  0.0858  0.5926
 9765SOL     OW31162   4.479   2.140   6.828 -0.1127 -0.0209 -0.0217
 9765SOL    HW131163   4.458   2.112   6.917 -0.2665  0.2004  0.0119
 9765SOL    HW231164   4.490   2.059   6.780  0.7164 -0.1575  0.3740
 9766SOL     OW31165   5.946   7.931   8.571  0.6148  0.1390  0.2244
 9766SOL    HW131166   6.018   7.959   8.515 -0.1177  0.4514 -0.5751
 9766SOL    HW231167   5.924   8.008   8.623 -0.4696  0.6709 -0.9773
 9767SOL     OW31168   0.232   7.047   1.817  0.1544  0.2407  0.3290
 9767SOL    HW131169   0.213   6.977   1.879  0.5770 -1.7210 -1.6398
 9767SOL    HW231170   0.197   7.126   1.859  0.6702 -0.8917  3.1490
 9768SOL     OW31171   3.723   0.311   1.574 -0.2767  0.0646  0.2325
 9768SOL    HW131172   3.795   0.303   1.512  0.1317  0.9461  0.5701
 9768SOL    HW231173   3.646   0.330   1.519  0.1778  1.3775  0.0026
 9769SOL     OW31174   0.313   7.951   0.991 -0.1609 -0.3038  0.1835
 9769SOL    HW131175   0.262   8.007   1.049 -0.4272  0.2995 -0.6076
 9769SOL    HW231176   0.326   7.870   1.040 -1.4022 -0.2536  0.6219
 9770SOL     OW31177   0.672   6.824   8.932 -0.1218  0.3156  0.1916
 9770SOL    HW131178   0.730   6.783   8.869  2.0570  0.7384  1.7990
 9770SOL    HW231179   0.706   6.913   8.942 -1.7150  0.9425  0.4379
 9771SOL     OW31180   4.370   6.967   0.389  0.7369  0.2301 -0.2425
 9771SOL    HW131181   4.384   7.009   0.474  0.3450 -1.0835  0.4950
 9771SOL    HW231182   4.449   6.915   0.374  0.3102 -0.4508 -0.1361
 9772SOL     OW31183   7.178   0.282   0.058  0.4520  0.1189 -0.2277
 9772SOL    HW131184   7.089   0.270   0.024  0.4742 -0.0883 -0.2168
 9772SOL    HW231185   7.232   0.299  -0.019  0.3702  0.4354 -0.2145
 9773SOL     OW31186   7.668   3.454   0.827 -0.7367 -0.0643 -0.4784
 9773SOL    HW131187   7.759   3.485   0.829  0.0798 -2.2149 -1.3272
 9773SOL    HW231188   7.635   3.480   0.741  0.1379 -1.9049 -1.4270
 9774SOL     OW31189   1.455   5.725   7.995  0.3818  0.0925  0.3868
 9774SOL    HW131190   1.390   5.659   8.019  1.1737 -1.2914 -1.1531
 9774SOL    HW231191   1.445   5.793   8.062 -0.2902 -1.6703  2.1704
 9775SOL     OW31192   3.139   2.254   5.220  0.3991 -0.0104  0.4557
 9775SOL    HW131193   3.126   2.314   5.294 -1.5210 -1.0749  1.0607
 9775SOL    HW231194   3.151   2.311   5.144  0.4468  1.1166  1.2830
 9776SOL     OW31195   7.707   0.068   1.875  0.0082  0.6191 -0.0401
 9776SOL    HW131196   7.663   0.107   1.950  0.8434 -0.8771  1.2772
 9776SOL    HW231197   7.681  -0.024   1.876 -1.1223  0.8445 -2.4838
 9777SOL     OW31198   8.781   6.898   4.485 -0.2838 -0.3272 -0.4683
 9777SOL    HW131199   8.693   6.892   4.447 -0.1402  2.1587 -1.3928
 9777SOL    HW231200   8.774   6.855   4.569 -2.7676  0.8560  0.0198
 9778SOL     OW31201   3.053   7.569   2.285  0.1878 -0.4575  0.3275
 9778SOL    HW131202   2.962   7.537   2.281  0.4788 -1.2216 -0.5300
 9778SOL    HW231203   3.057   7.619   2.366 -0.7967 -1.0867  0.7879
 9779SOL     OW31204   8.370   7.046   2.695  0.0495 -0.2175 -0.1892
 9779SOL    HW131205   8.457   7.019   2.726  0.2228 -0.7588 -1.0910
 9779SOL    HW231206   8.310   6.981   2.733 -0.1131  0.7625  1.2890
 9780SOL     OW31207   2.908   4.913   2.141 -0.5406  0.0684 -0.1653
 9780SOL    HW131208   2.998   4.881   2.153 -0.4955 -0.3058 -1.4141
 9780SOL    HW231209   2.913   5.006   2.164 -0.0912 -0.1949  0.8660
 9781SOL     OW31210   3.227   8.300   5.770  0.2864  0.0549 -0.0512
 9781SOL    HW131211   3.172   8.365   5.814  1.5143  0.6130  0.7069
 9781SOL    HW231212   3.307   8.346   5.748  1.2348 -1.2082  0.6077
 9782SOL     OW31213   6.589   1.576   1.051 -0.6487  0.1116 -0.5949
 9782SOL    HW131214   6.494   1.564   1.046 -0.9205  0.4982  2.2573
 9782SOL    HW231215   6.600   1.671   1.058 -0.0914  0.0402 -0.4829
 9783SOL     OW31216   1.923   7.828   6.790 -0.3908 -0.3408 -0.1502
 9783SOL    HW131217   1.963   7.810   6.705  0.0837 -0.5256  0.1034
 9783SOL    HW231218   1.919   7.743   6.833  1.2421  0.0194  0.7930
 9784SOL     OW31219   7.430   1.518   3.581 -0.1296  0.2546 -0.0532
 9784SOL    HW131220   7.481   1.598   3.582  0.4899 -0.1180 -1.1165
 9784SOL    HW231221   7.359   1.534   3.644  0.3364  1.3911  0.1967
 9785SOL     OW31222   1.851   2.181   4.446  0.2003 -0.6759 -0.5353
 9785SOL    HW131223   1.838   2.219   4.533 -0.4139 -0.6096 -0.6527
 9785SOL    HW231224   1.773   2.127   4.432  0.3031 -0.6931 -1.0439
 9786SOL     OW31225   0.039   2.453   2.721  0.2909 -0.7253  0.3132
 9786SOL    HW131226   0.015   2.504   2.643 -2.2215 -1.1536  0.7324
 9786SOL    HW231227   0.108   2.505   2.763 -1.1465  1.6032 -0.0541
 9787SOL     OW31228   7.190   7.587   5.091  0.0404 -0.5600 -0.3830
 9787SOL    HW131229   7.109   7.600   5.041 -1.0175  0.8410  1.5670
 9787SOL    HW231230   7.169   7.519   5.154  0.0647  0.4151  0.7049
 9788SOL     OW31231   7.650   3.386   6.393 -0.0671  0.5181 -0.2558
 9788SOL    HW131232   7.624   3.300   6.360  0.4415  0.4525 -0.5016
 9788SOL    HW231233   7.644   3.377   6.488  0.5727  0.0101 -0.2532
 9789SOL     OW31234   7.565   8.594   1.818  0.2013 -0.1826 -0.1783
 9789SOL    HW131235   7.500   8.537   1.857 -1.6019  1.1229 -1.1420
 9789SOL    HW231236   7.619   8.536   1.764 -0.6102 -1.1780  0.0611
 9790SOL     OW31237   1.143   5.785   5.382  0.0684  0.4285 -0.1451
 9790SOL    HW131238   1.140   5.877   5.358 -1.1947  0.5683  0.4720
 9790SOL    HW231239   1.063   5.748   5.345 -0.0763 -0.1384  0.7173
 9791SOL     OW31240   6.294   1.925   0.083 -0.1758 -0.1814  0.0996
 9791SOL    HW131241   6.304   1.906   0.177  1.5402  0.2277  0.0281
 9791SOL    HW231242   6.340   2.008   0.070  1.1703 -1.0958 -1.3968
 9792SOL     OW31243   3.520   2.085   7.808 -0.2615 -0.3128 -0.0036
 9792SOL    HW131244   3.591   2.079   7.872 -0.4862 -2.2409  0.1472
 9792SOL    HW231245   3.465   2.009   7.827 -1.0610 -0.1903 -1.6520
 9793SOL     OW31246   1.856   2.073   3.060  0.1566  0.5923  0.7273
 9793SOL    HW131247   1.865   2.164   3.088 -0.4247  1.2516 -1.0451
 9793SOL    HW231248   1.941   2.051   3.021  0.4855  0.1607  1.6521
 9794SOL     OW31249   1.409   0.413   5.530 -0.0206  0.0649 -0.0772
 9794SOL    HW131250   1.361   0.423   5.612  1.2917  1.9946  0.5193
 9794SOL    HW231251   1.343   0.380   5.468 -1.3708 -0.1200  1.3812
 9795SOL     OW31252   2.678   2.976   4.100  0.1539 -0.5201  0.0516
 9795SOL    HW131253   2.653   3.047   4.159  2.0701  0.1385  0.1224
 9795SOL    HW231254   2.725   2.914   4.155  1.2858 -0.2743 -0.5999
 9796SOL     OW31255   3.002   6.412   3.398  0.5467  0.8913  0.3388
 9796SOL    HW131256   3.046   6.486   3.356 -1.4142  2.1542  0.3679
 9796SOL    HW231257   2.924   6.450   3.438 -0.1507 -1.0945  1.0059
 9797SOL     OW31258   5.024   8.889   4.670  0.2848 -0.4095 -0.3789
 9797SOL    HW131259   5.096   8.844   4.714  3.1416  2.7358 -1.3912
 9797SOL    HW231260   5.054   8.898   4.579 -1.9646 -0.0263 -1.1422
 9798SOL     OW31261   0.625   4.668   5.901 -0.0774  0.1163 -0.0536
 9798SOL    HW131262   0.542   4.646   5.857 -0.1021  2.0021 -1.0611
 9798SOL    HW231263   0.652   4.750   5.860  2.3495 -0.4806  0.1991
 9799SOL     OW31264   0.245   0.979   1.432  0.4189  0.0621  0.0912
 9799SOL    HW131265   0.261   1.073   1.440  1.5185 -0.2431  1.9402
 9799SOL    HW231266   0.152   0.968   1.449  0.7612  0.5925  2.5830
 9800SOL     OW31267   0.235   6.800   8.846 -0.1328  0.4638 -0.1736
 9800SOL    HW131268   0.204   6.828   8.932 -0.3565  2.0941 -0.7391
 9800SOL    HW231269   0.315   6.751   8.864 -1.9795 -2.3030  1.1908
 9801SOL     OW31270   7.961   4.732   7.633  0.5725  0.5245 -0.1193
 9801SOL    HW131271   7.936   4.687   7.714 -0.5582  1.0350 -0.1743
 9801SOL    HW231272   7.891   4.796   7.618  0.3515 -0.0837 -1.9065
 9802SOL     OW31273   8.425   7.191   5.383  0.6108  0.0278  0.1290
 9802SOL    HW131274   8.430   7.229   5.471 -1.3546 -0.1204  0.3396
 9802SOL    HW231275   8.451   7.100   5.394 -0.4415 -0.2116  0.7356
 9803SOL     OW31276   7.653   1.707   7.134 -0.7069 -0.1985 -0.1664
 9803SOL    HW131277   7.601   1.731   7.057 -0.4090  2.7668  0.4448
 9803SOL    HW231278   7.734   1.758   7.125  0.2703 -1.4649  1.0553
 9804SOL     OW31279   0.815   0.517   4.141 -0.4555 -0.5771 -0.3116
 9804SOL    HW131280   0.777   0.587   4.088 -1.7759 -0.2410  1.0239
 9804SOL    HW231281   0.845   0.561   4.220  1.9408 -0.9868 -0.9133
 9805SOL     OW31282   1.884   5.814   8.454  0.0459 -0.2574 -0.1267
 9805SOL    HW131283   1.933   5.894   8.436 -1.5668  0.8374  0.1536
 9805SOL    HW231284   1.887   5.765   8.372  0.2566  0.5202 -0.5906
 9806SOL     OW31285   6.884   7.921   4.935 -0.0713  0.3791  0.3199
 9806SOL    HW131286   6.864   7.861   5.006  0.0273 -0.3770 -0.2790
 9806SOL    HW231287   6.895   7.865   4.858  2.4507  0.9240  0.2179
 9807SOL     OW31288   2.470   6.328   8.406  0.4872  0.3498 -0.3713
 9807SOL    HW131289   2.516   6.258   8.359  2.5170  1.6179 -0.4455
 9807SOL    HW231290   2.519   6.407   8.382 -2.6492  2.1019 -1.5750
 9808SOL     OW31291   8.649   5.499   8.080 -0.5156 -0.9675  0.3799
 9808SOL    HW131292   8.624   5.588   8.103 -0.1807 -0.9033  0.4938
 9808SOL    HW231293   8.594   5.477   8.004 -0.2819 -0.5089  0.0779
 9809SOL     OW31294   4.356   7.849   4.024 -0.1546 -0.4748  0.8480
 9809SOL    HW131295   4.373   7.850   4.118  1.7737 -0.7661  0.5385
 9809SOL    HW231296   4.431   7.894   3.986  0.0696 -2.0642 -0.6866
 9810SOL     OW31297   4.400   1.670   1.465 -0.1528  0.6831 -0.2095
 9810SOL    HW131298   4.454   1.621   1.402  0.0397 -0.5810  0.8781
 9810SOL    HW231299   4.340   1.721   1.411  0.3434  0.0345 -1.4196
 9811SOL     OW31300   7.724   1.868   4.066 -0.6687  0.1571 -0.1299
 9811SOL    HW131301   7.699   1.903   4.151  0.4526 -1.9066  1.1437
 9811SOL    HW231302   7.681   1.782   4.062 -1.3411  0.5355 -2.0266
 9812SOL     OW31303   7.941   7.882   6.368 -0.5833 -0.4829  0.3043
 9812SOL    HW131304   8.007   7.815   6.350  0.0802  0.2120  0.0908
 9812SOL    HW231305   7.955   7.907   6.459 -0.6199 -0.4182  0.2930
 9813SOL     OW31306   8.396   2.203   7.292 -0.2107  0.7002 -0.0727
 9813SOL    HW131307   8.313   2.169   7.325 -0.7711  0.9811 -1.1530
 9813SOL    HW231308   8.451   2.126   7.279 -1.2001  0.2412 -1.7761
 9814SOL     OW31309   8.427   7.824   2.387  0.4957  0.0637  0.0109
 9814SOL    HW131310   8.356   7.760   2.379  0.5950 -0.0664  0.1471
 9814SOL    HW231311   8.471   7.821   2.302 -0.2518  0.8589 -0.4200
 9815SOL     OW31312   5.888   5.439   2.014 -0.2420  0.5874  0.0152
 9815SOL    HW131313   5.911   5.396   2.096 -0.7901 -0.8925 -0.5749
 9815SOL    HW231314   5.952   5.510   2.006  1.6043 -0.9429  0.3721
 9816SOL     OW31315   3.799   8.240   8.170  0.3084  0.1091  0.4304
 9816SOL    HW131316   3.767   8.158   8.207 -3.1416  0.4879 -1.2608
 9816SOL    HW231317   3.786   8.304   8.240  0.5789 -0.3502  0.9051
 9817SOL     OW31318   1.106   7.978   4.995 -0.2375  0.3034 -0.1725
 9817SOL    HW131319   1.181   7.960   4.939 -0.2800 -0.2123 -0.0776
 9817SOL    HW231320   1.045   8.025   4.939 -0.2892 -0.2266 -0.5767
 9818SOL     OW31321   5.051   1.230   4.470  0.6765 -0.5542 -0.7142
 9818SOL    HW131322   5.028   1.261   4.558  0.7978  0.2645 -0.9698
 9818SOL    HW231323   5.146   1.235   4.467  0.9333 -3.3108  0.1077
 9819SOL     OW31324   5.829   4.295   8.256 -0.0862  0.1618  0.4315
 9819SOL    HW131325   5.772   4.371   8.268  0.9423  1.0741 -0.3175
 9819SOL    HW231326   5.782   4.240   8.194  0.0484  1.1374 -0.5596
 9820SOL     OW31327   7.518   4.317   1.762  0.2628 -0.1448 -0.1340
 9820SOL    HW131328   7.524   4.366   1.844 -0.1078 -0.0939 -0.1397
 9820SOL    HW231329   7.564   4.372   1.698 -2.3208  1.4782 -0.7537
 9821SOL     OW31330   6.812   6.261   2.443 -0.2184  0.6969 -0.8773
 9821SOL    HW131331   6.877   6.297   2.503  1.6396 -1.4866 -1.4358
 9821SOL    HW231332   6.728   6.285   2.482  0.8993  0.4370  1.9433
 9822SOL     OW31333   4.736   7.257   2.656 -0.8618 -0.2232  0.1826
 9822SOL    HW131334   4.827   7.228   2.644 -0.8033 -0.1128  0.3506
 9822SOL    HW231335   4.684   7.195   2.606 -0.8959 -1.7088  1.9341
 9823SOL     OW31336   7.703   4.844   6.765 -1.0104  0.4601  0.1502
 9823SOL    HW131337   7.690   4.884   6.851 -0.1005  0.2003  0.4179
 9823SOL    HW231338   7.747   4.761   6.783 -0.0806  0.7682 -0.6185
 9824SOL     OW31339   7.367   4.123   1.248 -0.0001 -0.2008  0.0079
 9824SOL    HW131340   7.387   4.216   1.240 -0.0370 -0.2223 -0.3686
 9824SOL    HW231341   7.273   4.117   1.232  0.0514 -0.3330 -0.2608
 9825SOL     OW31342   8.703   5.973   4.819  0.8033 -0.1433 -0.8055
 9825SOL    HW131343   8.748   5.914   4.879  0.2939  1.4567  1.2670
 9825SOL    HW231344   8.621   5.928   4.798  0.7932 -0.5530  0.0647
 9826SOL     OW31345   4.352   6.938   3.813 -0.1547  0.9374 -0.2840
 9826SOL    HW131346   4.309   7.012   3.855 -0.3655 -0.3852  1.9849
 9826SOL    HW231347   4.291   6.912   3.743 -1.1921  1.5012  0.3819
 9827SOL     OW31348   4.780   5.617   3.724  0.2454  0.2349 -0.1081
 9827SOL    HW131349   4.821   5.663   3.797  1.4427 -0.7350 -0.1375
 9827SOL    HW231350   4.843   5.550   3.700 -0.1781  0.4493 -1.9608
 9828SOL     OW31351   8.893   8.850   0.590 -0.1698 -0.0153  0.1873
 9828SOL    HW131352   8.892   8.764   0.548 -1.4788  0.4629 -0.8147
 9828SOL    HW231353   8.980   8.886   0.570  0.0826 -0.7601 -0.0906
 9829SOL     OW31354   7.840   4.040   2.857  0.3778 -0.1360  0.2096
 9829SOL    HW131355   7.801   4.100   2.793 -0.3931 -1.3436 -0.4936
 9829SOL    HW231356   7.817   3.953   2.825  1.2650 -0.8105  1.3364
 9830SOL     OW31357   6.067   2.530   2.625  0.5172 -0.2154 -0.2866
 9830SOL    HW131358   6.069   2.592   2.698 -2.2633  0.4861 -0.6641
 9830SOL    HW231359   6.062   2.585   2.547 -0.8237 -0.8809 -0.7015
 9831SOL     OW31360   7.230   2.589   5.736  0.2270 -0.0179 -0.1029
 9831SOL    HW131361   7.298   2.629   5.682  0.5642 -0.5304 -0.0669
 9831SOL    HW231362   7.270   2.508   5.768  0.3371  0.6772  1.6051
 9832SOL     OW31363   1.871   7.453   1.557 -0.1104 -0.4673  0.5115
 9832SOL    HW131364   1.796   7.488   1.509 -0.2544 -1.3378  0.0874
 9832SOL    HW231365   1.881   7.363   1.524  1.0773 -0.3862  0.6049
 9833SOL     OW31366   7.303   7.321   3.454 -0.1258  0.1158  0.1782
 9833SOL    HW131367   7.261   7.331   3.369  0.4966  0.9102 -0.0470
 9833SOL    HW231368   7.322   7.410   3.482  0.5894 -0.1849  0.6840
 9834SOL     OW31369   6.400   8.167   5.642  0.0198  0.0544  0.6305
 9834SOL    HW131370   6.439   8.104   5.702  2.8494 -0.6556 -1.7724
 9834SOL    HW231371   6.357   8.231   5.700  0.9185 -1.5902  3.2896
 9835SOL     OW31372   3.931   2.833   3.564 -0.2397  0.2232  0.2163
 9835SOL    HW131373   3.898   2.767   3.503 -2.1048  0.3950  0.9805
 9835SOL    HW231374   3.980   2.894   3.508  0.3750 -1.0618 -0.6888
 9836SOL     OW31375   8.729   2.313   4.660 -0.2276  0.1838 -0.1387
 9836SOL    HW131376   8.778   2.341   4.582  0.0131  1.4906  0.4706
 9836SOL    HW231377   8.756   2.222   4.673  0.6252  0.3129 -0.8912
 9837SOL     OW31378   7.181   7.241   2.394  0.4384 -0.1545  0.4094
 9837SOL    HW131379   7.193   7.146   2.395 -1.0776 -0.3601  0.8003
 9837SOL    HW231380   7.177   7.265   2.486  0.1341  0.1955  0.3060
 9838SOL     OW31381   2.564   8.056   8.059 -0.0034  0.2691 -0.1215
 9838SOL    HW131382   2.527   8.084   7.976  0.7245 -2.1115 -1.3271
 9838SOL    HW231383   2.488   8.052   8.118 -0.8526  0.1874 -1.1834
 9839SOL     OW31384   6.786   1.765   2.244  0.4454 -0.1430 -0.2950
 9839SOL    HW131385   6.715   1.767   2.308 -0.3381 -1.6025 -1.0448
 9839SOL    HW231386   6.749   1.809   2.167  0.7725  0.1053 -0.3116
 9840SOL     OW31387   6.242   3.141   1.565 -0.0173 -0.1874  0.1515
 9840SOL    HW131388   6.333   3.125   1.588  0.2234 -1.1618 -1.3565
 9840SOL    HW231389   6.196   3.138   1.649  1.1511 -1.0797  0.7971
 9841SOL     OW31390   7.552   8.415   7.416  0.2441  0.0408 -0.1100
 9841SOL    HW131391   7.532   8.491   7.361 -2.5334 -0.4484  0.0804
 9841SOL    HW231392   7.548   8.340   7.357 -1.6926 -0.3733  0.4685
 9842SOL     OW31393   6.832   7.801   2.430  0.2333  0.6383  0.0321
 9842SOL    HW131394   6.927   7.791   2.434 -0.0091 -2.7197  0.2858
 9842SOL    HW231395   6.808   7.771   2.342 -0.6156  1.6413 -0.1046
 9843SOL     OW31396   0.974   3.233   4.389  0.1928 -0.5160 -0.3759
 9843SOL    HW131397   1.048   3.221   4.329  0.6122 -0.8249  0.1938
 9843SOL    HW231398   1.000   3.187   4.468 -0.4623 -0.3162 -0.0388
 9844SOL     OW31399   3.847   5.472   1.933  1.2879  0.5667 -0.4575
 9844SOL    HW131400   3.771   5.462   1.876  0.3389 -0.9384  0.9786
 9844SOL    HW231401   3.880   5.560   1.914 -1.0362  1.4244 -0.8694
 9845SOL     OW31402   3.778   3.211   3.949 -0.1350 -0.3478 -0.1610
 9845SOL    HW131403   3.827   3.170   4.020  1.4608  1.3191 -0.2397
 9845SOL    HW231404   3.796   3.156   3.873  0.7357 -0.3731  0.0526
 9846SOL     OW31405   6.115   3.934   4.995  0.2084 -0.2235 -0.0151
 9846SOL    HW131406   6.096   3.873   4.924  1.7843 -1.8216  0.8561
 9846SOL    HW231407   6.063   3.901   5.069 -0.1604  0.4571  0.0334
 9847SOL     OW31408   1.130   3.656   0.670  0.2237  0.3615 -0.3675
 9847SOL    HW131409   1.219   3.668   0.638  0.0166 -0.3592 -1.2708
 9847SOL    HW231410   1.090   3.743   0.661  0.4143  0.3684 -1.3487
 9848SOL     OW31411   4.418   4.943   4.685  0.0014  0.0416  0.1369
 9848SOL    HW131412   4.421   4.907   4.596 -1.0263 -0.7150  0.3844
 9848SOL    HW231413   4.467   5.024   4.680  0.7402 -0.4472 -0.9072
 9849SOL     OW31414   5.112   7.805   1.002  0.0889  0.0571 -0.2755
 9849SOL    HW131415   5.050   7.738   0.973 -0.0875  0.1454 -0.1024
 9849SOL    HW231416   5.126   7.859   0.923  0.1209 -0.0977 -0.3757
 9850SOL     OW31417   3.004   7.068   0.279  0.1811 -0.3512  0.0329
 9850SOL    HW131418   3.002   6.986   0.329 -0.7869  0.0987  0.7781
 9850SOL    HW231419   2.929   7.062   0.219  0.0746 -0.0000  0.1245
 9851SOL     OW31420   1.859   0.764   5.009 -0.3943  0.2377  0.0496
 9851SOL    HW131421   1.786   0.795   4.956 -0.0156  0.9233 -0.0811
 9851SOL    HW231422   1.848   0.807   5.094  0.9758  2.0050 -0.6054
 9852SOL     OW31423   0.250   0.828   7.637  0.1786 -0.0371  0.4958
 9852SOL    HW131424   0.225   0.918   7.653  0.6953  0.1124  0.4938
 9852SOL    HW231425   0.184   0.776   7.682  0.4371  0.3526  1.3518
 9853SOL     OW31426   4.950   1.895   0.951 -0.6677 -0.3838  0.2269
 9853SOL    HW131427   4.983   1.984   0.950 -0.3868 -0.4730 -1.2000
 9853SOL    HW231428   4.976   1.860   1.036  1.2052  0.1740 -0.0674
 9854SOL     OW31429   2.860   3.962   5.500  0.2463 -0.3661  0.1458
 9854SOL    HW131430   2.854   3.984   5.593 -0.1862  1.6662 -0.3271
 9854SOL    HW231431   2.949   3.987   5.474 -1.0478  3.8567 -1.0201
 9855SOL     OW31432   1.408   4.964   2.469  0.6717 -0.4225  0.1884
 9855SOL    HW131433   1.351   4.895   2.438 -1.6538  0.4758  2.1110
 9855SOL    HW231434   1.484   4.962   2.411 -1.0804 -2.0183 -2.2003
 9856SOL     OW31435   3.112   1.041   3.510 -0.0862  0.3939  0.4744
 9856SOL    HW131436   3.126   1.033   3.604 -0.5071  2.3002  0.7355
 9856SOL    HW231437   3.191   1.084   3.477  0.1426 -0.4302 -0.0978
 9857SOL     OW31438   6.444   1.205   0.335  0.3066  0.1778  0.5772
 9857SOL    HW131439   6.436   1.111   0.319  1.0953  0.1416  0.3843
 9857SOL    HW231440   6.436   1.214   0.430 -0.8459  0.0382  0.5195
 9858SOL     OW31441   1.519   8.292   4.715  0.7195 -0.3310 -0.2430
 9858SOL    HW131442   1.599   8.247   4.742  0.4059  0.3640  2.0870
 9858SOL    HW231443   1.507   8.361   4.780 -1.8542 -0.4937 -0.4259
 9859SOL     OW31444   8.599   6.629   3.149 -0.8180 -0.3649  0.0808
 9859SOL    HW131445   8.664   6.599   3.212 -1.3448 -3.0732 -0.5286
 9859SOL    HW231446   8.616   6.578   3.070 -4.2896 -2.1032  0.2503
 9860SOL     OW31447   6.567   3.387   3.611  0.2148 -0.1556  0.3898
 9860SOL    HW131448   6.645   3.437   3.588  0.5178 -1.7249 -2.3984
 9860SOL    HW231449   6.598   3.323   3.676  0.8918  0.2238  0.4494
 9861SOL     OW31450   0.954   4.741   8.110 -0.4229  0.0110  0.1646
 9861SOL    HW131451   1.035   4.730   8.160 -0.1105 -0.3919 -0.4080
 9861SOL    HW231452   0.983   4.774   8.025 -0.5781 -2.3225 -0.8951
 9862SOL     OW31453   3.794   8.458   5.240 -0.3357 -0.3814 -0.0428
 9862SOL    HW131454   3.728   8.400   5.278  0.3244 -0.7695  0.5398
 9862SOL    HW231455   3.748   8.540   5.224 -1.0639 -0.7811 -0.0500
 9863SOL     OW31456   5.177   4.344   3.214 -0.1556 -0.3467  0.8717
 9863SOL    HW131457   5.179   4.249   3.211  0.6337 -0.3029 -1.0393
 9863SOL    HW231458   5.170   4.372   3.123 -1.3166  1.4292  1.4431
 9864SOL     OW31459   1.902   1.256   2.962 -0.2785  0.2446  0.2829
 9864SOL    HW131460   1.886   1.206   3.042  2.0365 -0.9044  0.1031
 9864SOL    HW231461   1.992   1.236   2.938 -0.9612  0.3250 -2.7963
 9865SOL     OW31462   6.101   3.034   4.917  0.1666 -0.3354  0.5734
 9865SOL    HW131463   6.073   2.950   4.954 -1.6931  0.1345  0.3305
 9865SOL    HW231464   6.193   3.020   4.892 -0.0505 -2.2300  0.7032
 9866SOL     OW31465   4.000   6.893   1.429  0.5086 -0.2081  0.3967
 9866SOL    HW131466   4.003   6.925   1.519  0.5062  1.3181 -0.1190
 9866SOL    HW231467   4.086   6.916   1.393  0.5097 -0.8142 -0.0010
 9867SOL     OW31468   1.327   1.046   5.497  0.1178 -0.3672  0.0445
 9867SOL    HW131469   1.342   1.000   5.579 -0.2124  0.6508  0.6932
 9867SOL    HW231470   1.414   1.055   5.459  0.2054 -1.3913 -0.0426
 9868SOL     OW31471   6.466   7.959   6.787  0.2399  0.3486 -0.4154
 9868SOL    HW131472   6.383   7.994   6.754  0.4136  1.4458  0.2518
 9868SOL    HW231473   6.530   7.985   6.722  0.4207  1.6296  0.2323
 9869SOL     OW31474   2.365   3.260   4.069  0.4082 -0.4621  0.5154
 9869SOL    HW131475   2.333   3.171   4.086 -0.3995  0.1060  2.2385
 9869SOL    HW231476   2.293   3.317   4.096  0.4860  0.7403 -1.5495
 9870SOL     OW31477   1.237   6.165   3.990  0.1535 -0.4170 -0.1152
 9870SOL    HW131478   1.279   6.251   4.000 -1.9381  0.6496  0.0462
 9870SOL    HW231479   1.245   6.124   4.076  1.5935 -0.6249 -0.3265
 9871SOL     OW31480   2.245   3.169   8.652  0.0123  0.1059 -0.0984
 9871SOL    HW131481   2.331   3.132   8.673 -0.2628 -0.8803 -0.6391
 9871SOL    HW231482   2.264   3.245   8.597  0.5843  0.6560  0.8439
 9872SOL     OW31483   4.111   7.347   7.945 -0.6274 -0.4311 -1.0450
 9872SOL    HW131484   4.047   7.386   8.005 -0.8080 -0.4348 -1.2338
 9872SOL    HW231485   4.164   7.422   7.915  1.3893 -0.7489  1.3434
 9873SOL     OW31486   7.947   2.701   8.936  0.5777 -0.4668 -0.0865
 9873SOL    HW131487   7.948   2.606   8.924 -1.1115 -0.5463  0.0682
 9873SOL    HW231488   8.035   2.729   8.914  0.7276 -1.9134 -1.5063
 9874SOL     OW31489   7.060   5.050   2.282 -0.0757 -0.5029  0.1799
 9874SOL    HW131490   7.008   5.108   2.227 -2.1932 -2.9140 -0.5256
 9874SOL    HW231491   7.150   5.080   2.269 -0.8537  1.2613 -1.7698
 9875SOL     OW31492   7.994   5.289   8.971  0.0519 -0.0400 -0.2447
 9875SOL    HW131493   8.075   5.243   8.988 -1.2347 -1.7956  1.6044
 9875SOL    HW231494   7.989   5.356   9.040  0.1000  0.2800 -0.5534
 9876SOL     OW31495   4.702   2.426   5.402 -0.5127 -0.1315  0.2000
 9876SOL    HW131496   4.778   2.479   5.379 -0.3669 -0.0159  0.9225
 9876SOL    HW231497   4.681   2.378   5.322 -0.5595  0.8983 -0.4294
 9877SOL     OW31498   3.430   5.311   8.000  0.3316 -0.3847 -0.5101
 9877SOL    HW131499   3.427   5.308   8.096 -1.6779 -0.0044 -0.5147
 9877SOL    HW231500   3.472   5.230   7.975  1.3200 -0.2775  0.7046
 9878SOL     OW31501   3.400   4.367   0.907  0.1182  0.6001 -0.3041
 9878SOL    HW131502   3.357   4.305   0.967 -0.9997 -0.3712 -2.0209
 9878SOL    HW231503   3.359   4.452   0.928  0.4169  0.4749  0.8957
 9879SOL     OW31504   7.044   6.930   8.643 -0.7472 -0.2041  0.9885
 9879SOL    HW131505   7.133   6.951   8.673 -0.9283 -0.2924  1.5972
 9879SOL    HW231506   7.030   6.988   8.568  0.0019 -0.5335  0.5818
 9880SOL     OW31507   2.717   6.326   4.068  0.4816  0.1829  0.1133
 9880SOL    HW131508   2.622   6.321   4.077  0.4081  0.1592 -0.6081
 9880SOL    HW231509   2.731   6.386   3.994  1.0161 -0.1181 -0.0369
 9881SOL     OW31510   1.575   1.083   6.369  0.5130  0.0800 -0.8507
 9881SOL    HW131511   1.590   1.002   6.321  0.9557  0.1645 -0.8594
 9881SOL    HW231512   1.570   1.055   6.461 -0.8606 -0.1521 -0.9648
 9882SOL     OW31513   5.978   2.748   6.938 -0.5173  0.1504 -0.1039
 9882SOL    HW131514   5.995   2.803   7.015  3.4502  0.4257 -0.9771
 9882SOL    HW231515   6.000   2.659   6.967 -0.4023  0.0417 -0.5224
 9883SOL     OW31516   4.416   6.343   4.110 -0.1236 -0.5633 -0.3961
 9883SOL    HW131517   4.393   6.401   4.037 -1.0467  1.2266  1.2366
 9883SOL    HW231518   4.332   6.305   4.137 -0.1614  0.4706  1.0612
 9884SOL     OW31519   6.503   4.348   3.426  1.0944 -0.0723 -0.5777
 9884SOL    HW131520   6.542   4.379   3.344  1.3114 -1.8810 -1.2040
 9884SOL    HW231521   6.577   4.315   3.477  1.0432  1.6051  0.6539
 9885SOL     OW31522   7.161   7.750   7.460 -0.1070  0.5011  0.1524
 9885SOL    HW131523   7.164   7.839   7.425 -1.2455  1.0332  1.3157
 9885SOL    HW231524   7.201   7.696   7.392  1.5194  2.0123 -0.1822
 9886SOL     OW31525   6.504   2.030   5.334 -0.2307 -0.0828  0.4614
 9886SOL    HW131526   6.583   2.070   5.298 -1.8507  2.0961 -0.9415
 9886SOL    HW231527   6.514   2.038   5.429  0.9723  0.6123  0.2945
 9887SOL     OW31528   2.610   5.482   0.858 -0.6097 -0.1137 -0.1634
 9887SOL    HW131529   2.678   5.505   0.794  0.5058 -0.5461  0.8415
 9887SOL    HW231530   2.568   5.405   0.820 -0.0201 -0.3158 -0.4207
 9888SOL     OW31531   1.017   7.732   8.988 -0.5585  0.1364 -0.5943
 9888SOL    HW131532   0.937   7.683   9.004 -1.1543  0.5241 -2.2433
 9888SOL    HW231533   1.086   7.665   8.987 -1.1271 -0.4537 -1.0659
 9889SOL     OW31534   2.833   4.352   2.603  0.2615 -0.0299 -0.3736
 9889SOL    HW131535   2.917   4.357   2.649 -0.0738  0.1014  0.2321
 9889SOL    HW231536   2.848   4.399   2.521  0.5223  0.8034  0.1364
 9890SOL     OW31537   7.823   3.050   1.821 -0.2718  0.6674 -0.5204
 9890SOL    HW131538   7.918   3.054   1.814 -0.0080 -1.0289  1.3125
 9890SOL    HW231539   7.801   3.112   1.891 -0.3610  0.0524  0.0030
 9891SOL     OW31540   2.420   0.689   8.804 -0.5377  0.2832  0.3031
 9891SOL    HW131541   2.463   0.758   8.854  0.5217  0.0783 -0.2844
 9891SOL    HW231542   2.326   0.710   8.809 -0.3713  0.8023  1.5263
 9892SOL     OW31543   7.698   0.262   8.082 -0.7029 -0.1805  0.1446
 9892SOL    HW131544   7.765   0.318   8.043 -1.7370 -0.0902 -1.5973
 9892SOL    HW231545   7.636   0.323   8.122  0.0393 -0.2535  1.4644
 9893SOL     OW31546   4.197   1.324   3.775  0.4794 -0.1313  0.0664
 9893SOL    HW131547   4.209   1.407   3.729 -0.9307 -0.2253 -0.5167
 9893SOL    HW231548   4.185   1.348   3.867  0.7887  0.2377  0.0151
 9894SOL     OW31549   6.849   2.223   8.407  0.2777  0.1292 -0.5048
 9894SOL    HW131550   6.807   2.296   8.452  0.6309 -0.8225  1.4741
 9894SOL    HW231551   6.922   2.263   8.359 -1.1509  1.3994 -1.6922
 9895SOL     OW31552   4.777   3.884   3.997  0.0193 -0.4990 -0.1085
 9895SOL    HW131553   4.745   3.970   3.970 -0.4595 -0.7589 -0.3907
 9895SOL    HW231554   4.871   3.888   3.982 -0.0849 -0.2490 -0.7606
 9896SOL     OW31555   6.846   7.028   6.689 -0.5404  0.2954  0.0411
 9896SOL    HW131556   6.884   7.096   6.745 -0.2044  1.5768 -1.6401
 9896SOL    HW231557   6.769   6.997   6.737  0.6586  0.1126  1.9433
 9897SOL     OW31558   2.742   2.201   4.004 -0.9814  0.3083  0.3018
 9897SOL    HW131559   2.693   2.120   3.985 -0.7946  0.0772  0.7851
 9897SOL    HW231560   2.753   2.243   3.919 -1.0709 -0.1834  0.0428
 9898SOL     OW31561   0.628   7.125   7.277  0.4181  0.4633  0.0179
 9898SOL    HW131562   0.610   7.034   7.301  0.6311  0.7574  1.3564
 9898SOL    HW231563   0.585   7.137   7.192  2.2366 -1.5167 -1.2958
 9899SOL     OW31564   3.615   6.791   1.878  0.4158  0.1298 -0.0709
 9899SOL    HW131565   3.628   6.867   1.934  0.3405  0.1532 -0.0854
 9899SOL    HW231566   3.680   6.802   1.808 -0.5483  0.9314 -0.8654
 9900SOL     OW31567   6.580   6.144   3.467  0.6230 -0.8219  0.2065
 9900SOL    HW131568   6.512   6.122   3.404  0.4346 -3.2429  1.1539
 9900SOL    HW231569   6.661   6.147   3.415 -0.1090  2.2962 -0.9615
 9901SOL     OW31570   2.707   6.963   3.627 -0.3313 -0.4325 -0.3899
 9901SOL    HW131571   2.783   7.019   3.639 -0.7848  0.1346 -0.1030
 9901SOL    HW231572   2.737   6.876   3.653 -0.5754  0.2937  2.8215
 9902SOL     OW31573   1.090   8.503   8.319  0.3546 -0.6775 -0.7552
 9902SOL    HW131574   1.142   8.581   8.298 -0.6585 -0.3456 -2.2890
 9902SOL    HW231575   1.023   8.502   8.251  0.0558 -2.6426 -0.4657
 9903SOL     OW31576   3.197   6.739   5.099  0.0575 -0.0513 -0.0692
 9903SOL    HW131577   3.267   6.787   5.143 -0.2787 -0.2145  0.6609
 9903SOL    HW231578   3.222   6.647   5.106  0.6017 -0.0263 -1.2947
 9904SOL     OW31579   8.625   6.719   0.725 -0.0928  0.6460 -0.0556
 9904SOL    HW131580   8.649   6.760   0.808 -2.6642  0.5226  0.8505
 9904SOL    HW231581   8.666   6.774   0.658  1.8815  0.8535  1.2639
 9905SOL     OW31582   8.309   1.943   2.897  0.3308 -0.6835 -0.2196
 9905SOL    HW131583   8.345   2.001   2.830 -0.6855  0.8773  0.5297
 9905SOL    HW231584   8.231   1.989   2.929  0.9524 -1.2039  2.2475
 9906SOL     OW31585   7.675   2.077   3.535  0.5175 -0.2398  0.0645
 9906SOL    HW131586   7.703   2.027   3.458  0.3524 -0.2088 -0.0170
 9906SOL    HW231587   7.750   2.074   3.594  0.6083 -0.3518 -0.0547
 9907SOL     OW31588   7.386   4.012   0.797  0.1855  0.3840 -0.0624
 9907SOL    HW131589   7.394   3.919   0.817 -0.0872  0.1887 -0.8498
 9907SOL    HW231590   7.474   4.047   0.810 -0.0303  0.3563  1.8535
 9908SOL     OW31591   4.803   7.249   1.129  0.2965  0.5017  0.1471
 9908SOL    HW131592   4.740   7.319   1.145 -1.3349 -1.1250  1.2852
 9908SOL    HW231593   4.800   7.195   1.208  2.0459 -0.4671 -0.3836
 9909SOL     OW31594   7.448   2.449   2.271 -0.1438  0.0247 -0.0823
 9909SOL    HW131595   7.443   2.475   2.363 -2.3414  0.8630 -0.3794
 9909SOL    HW231596   7.356   2.440   2.244  0.4712 -2.4410 -1.6013
 9910SOL     OW31597   4.477   3.426   7.355  0.6861  0.4723 -0.5233
 9910SOL    HW131598   4.518   3.340   7.358 -0.9701 -0.3486 -0.3179
 9910SOL    HW231599   4.393   3.415   7.399  0.4276  2.2016 -0.4772
 9911SOL     OW31600   8.502   3.498   1.355  0.1763 -0.0543 -0.0608
 9911SOL    HW131601   8.569   3.434   1.376 -0.0660 -0.5973 -0.9142
 9911SOL    HW231602   8.530   3.578   1.399  0.8567 -0.5479  0.4084
 9912SOL     OW31603   0.133   3.992   2.316 -0.6589 -0.4988  0.1938
 9912SOL    HW131604   0.130   4.013   2.223  0.2766  0.8595  0.4445
 9912SOL    HW231605   0.083   4.060   2.359 -2.4216 -1.9787  0.6018
 9913SOL     OW31606   3.153   0.444   7.942  0.1826 -0.4440  0.2026
 9913SOL    HW131607   3.134   0.428   7.850  0.2899  2.3421 -0.3778
 9913SOL    HW231608   3.081   0.400   7.989  1.3918 -3.9761 -0.9357
 9914SOL     OW31609   4.562   7.017   3.062 -0.3951 -0.0280  0.1240
 9914SOL    HW131610   4.528   7.009   2.973  1.2757  2.6818 -0.8805
 9914SOL    HW231611   4.551   7.110   3.083  0.9054 -0.2622  2.0280
 9915SOL     OW31612   6.788   0.979   1.999  0.3653  0.1178 -0.1275
 9915SOL    HW131613   6.752   0.945   2.081 -0.7338  1.3686 -0.0731
 9915SOL    HW231614   6.837   1.057   2.025  0.2177  0.3825 -0.6252
 9916SOL     OW31615   0.111   0.393   8.693  0.5489  0.3955  0.2965
 9916SOL    HW131616   0.036   0.443   8.662 -0.2855 -0.1377  1.3643
 9916SOL    HW231617   0.167   0.457   8.738  0.8466  0.8291 -0.6765
 9917SOL     OW31618   4.406   5.066   6.673 -0.4839 -0.2298  0.4188
 9917SOL    HW131619   4.427   5.023   6.756 -1.1311  1.5215  1.5428
 9917SOL    HW231620   4.486   5.112   6.649 -0.2483 -0.8587 -0.0345
 9918SOL     OW31621   2.556   7.297   0.736  0.6906 -0.1690 -0.7538
 9918SOL    HW131622   2.551   7.282   0.831  0.0632  1.5785 -0.4789
 9918SOL    HW231623   2.649   7.313   0.719  0.6698  0.5772 -0.2337
 9919SOL     OW31624   1.509   5.561   4.345  0.7401 -0.5789  0.5868
 9919SOL    HW131625   1.502   5.649   4.383  0.7537 -0.0434 -0.6057
 9919SOL    HW231626   1.463   5.505   4.407 -1.6498  0.6717  0.1037
 9920SOL     OW31627   7.979   1.831   3.579  0.0525  0.4040  0.1761
 9920SOL    HW131628   7.917   1.880   3.633 -0.1919  0.9231 -0.5591
 9920SOL    HW231629   8.063   1.874   3.594  0.3300 -0.5315  1.4614
 9921SOL     OW31630   5.135   0.206   7.438 -0.7696 -0.3502  0.2202
 9921SOL    HW131631   5.103   0.263   7.368 -0.0626 -0.2184  0.0028
 9921SOL    HW231632   5.085   0.125   7.428 -1.2465 -0.0423  0.0711
 9922SOL     OW31633   6.780   3.520   1.179 -0.2192 -0.2733  0.7637
 9922SOL    HW131634   6.724   3.552   1.109  0.4152 -0.2648  0.2594
 9922SOL    HW231635   6.793   3.427   1.159  2.0203  0.2628 -0.5593
 9923SOL     OW31636   0.817   8.380   7.011 -0.0976  0.0305  0.3284
 9923SOL    HW131637   0.795   8.355   7.101 -0.5588  0.0193  0.2191
 9923SOL    HW231638   0.758   8.326   6.958  0.7445 -0.5718 -0.0166
 9924SOL     OW31639   7.742   4.176   5.101 -0.3939  0.1794 -0.2843
 9924SOL    HW131640   7.715   4.198   5.190 -3.1003 -2.2383 -0.3886
 9924SOL    HW231641   7.688   4.232   5.045  1.1655  1.5528 -0.5243
 9925SOL     OW31642   6.083   8.680   5.421  0.5437 -0.1576 -0.3858
 9925SOL    HW131643   6.050   8.636   5.499  1.5098 -1.1635 -0.5140
 9925SOL    HW231644   6.095   8.610   5.358  1.5662  0.3711 -0.7953
 9926SOL     OW31645   8.883   1.615   6.458 -0.0730 -0.3422 -0.3589
 9926SOL    HW131646   8.932   1.636   6.537  1.3770 -2.4167 -0.6270
 9926SOL    HW231647   8.910   1.682   6.394 -0.7366  0.9300  0.6385
 9927SOL     OW31648   0.005   8.689   8.468 -0.3100  0.7652 -0.5197
 9927SOL    HW131649  -0.089   8.679   8.457 -0.3325  1.8759 -1.6805
 9927SOL    HW231650   0.021   8.669   8.560 -1.1089 -3.0292 -1.0362
 9928SOL     OW31651   7.562   5.765   1.320 -0.1932  0.5570  0.1267
 9928SOL    HW131652   7.638   5.771   1.262  0.2867 -1.9822  0.3744
 9928SOL    HW231653   7.499   5.826   1.282  0.0317 -1.0675 -3.2185
 9929SOL     OW31654   0.421   2.221   7.229  0.0865  0.6100  0.2512
 9929SOL    HW131655   0.328   2.205   7.245  0.2500 -0.3302  0.3416
 9929SOL    HW231656   0.465   2.175   7.300  0.6678 -0.1467 -0.5752
 9930SOL     OW31657   6.377   5.771   7.319  0.5359 -0.0927 -0.2108
 9930SOL    HW131658   6.431   5.849   7.303 -0.7174  0.9659  0.5468
 9930SOL    HW231659   6.346   5.781   7.409  0.0520 -1.2973 -0.2229
 9931SOL     OW31660   1.699   6.567   7.983 -0.3950  0.0167 -0.1776
 9931SOL    HW131661   1.631   6.633   7.971 -0.1383  0.1896 -0.7347
 9931SOL    HW231662   1.655   6.484   7.967 -0.9801 -0.0566  1.5910
 9932SOL     OW31663   4.688   7.772   4.385 -0.0593  0.2050  0.1030
 9932SOL    HW131664   4.673   7.774   4.479 -2.1586  0.5421 -0.1780
 9932SOL    HW231665   4.761   7.832   4.371  0.3788  0.0436  1.5029
 9933SOL     OW31666   0.151   7.674   6.358  0.3488 -0.4064 -0.5203
 9933SOL    HW131667   0.134   7.634   6.443 -1.4929 -2.6767 -1.8089
 9933SOL    HW231668   0.211   7.612   6.315 -0.4204 -0.4265 -1.6030
 9934SOL     OW31669   0.293   8.123   0.202  0.3799 -0.9144  0.0711
 9934SOL    HW131670   0.250   8.076   0.130  1.4069 -1.4537 -0.2143
 9934SOL    HW231671   0.222   8.166   0.248 -0.4376 -1.5732 -0.5369
 9935SOL     OW31672   3.865   8.744   0.703 -0.2777  0.1040 -0.5742
 9935SOL    HW131673   3.900   8.706   0.784 -0.0750  0.6160 -0.4148
 9935SOL    HW231674   3.867   8.838   0.718  2.4646  0.4333 -2.2199
 9936SOL     OW31675   3.630   1.653   3.224 -0.0483 -0.5093  0.2128
 9936SOL    HW131676   3.701   1.644   3.160 -0.5183 -0.5154 -0.3158
 9936SOL    HW231677   3.550   1.639   3.173 -0.4166 -0.7498  0.8534
 9937SOL     OW31678   6.224   2.112   8.713 -0.4685 -0.5895 -0.3597
 9937SOL    HW131679   6.283   2.123   8.788  1.2916  1.9593 -1.9721
 9937SOL    HW231680   6.279   2.074   8.645 -0.5512  1.8641 -1.9074
 9938SOL     OW31681   7.502   1.932   5.949  0.0854  0.4185  0.1753
 9938SOL    HW131682   7.519   1.843   5.918 -0.5530  0.7034 -1.0765
 9938SOL    HW231683   7.452   1.972   5.878 -0.7008  1.3935  1.2575
 9939SOL     OW31684   2.468   6.458   0.875  0.0700 -0.1872  0.1306
 9939SOL    HW131685   2.452   6.379   0.825 -1.5221 -0.4169  0.9455
 9939SOL    HW231686   2.484   6.427   0.965 -1.1295  0.4156  0.5746
 9940SOL     OW31687   2.506   4.464   3.681 -0.8816 -0.2479 -0.0013
 9940SOL    HW131688   2.497   4.398   3.749 -1.3020 -0.9126 -0.6940
 9940SOL    HW231689   2.417   4.499   3.669 -0.6877  0.3647  0.2699
 9941SOL     OW31690   7.544   7.416   6.943  0.3048 -0.8743  0.0538
 9941SOL    HW131691   7.463   7.397   6.990  0.2467 -1.6389 -0.3462
 9941SOL    HW231692   7.521   7.486   6.882  0.1576 -0.5114  0.5193
 9942SOL     OW31693   1.025   6.440   1.889 -0.1648 -0.2972 -0.3363
 9942SOL    HW131694   1.030   6.357   1.843  0.9280  0.5060 -1.7544
 9942SOL    HW231695   1.026   6.506   1.820  2.3266  0.9687  0.7851
 9943SOL     OW31696   2.737   6.811   3.921 -0.0406  0.6637  0.5906
 9943SOL    HW131697   2.768   6.769   3.841  0.2625 -0.0393  1.0657
 9943SOL    HW231698   2.817   6.833   3.969 -0.2331 -0.3688  1.4244
 9944SOL     OW31699   1.400   3.127   8.010 -0.6435  0.4622  0.0080
 9944SOL    HW131700   1.406   3.222   8.023 -1.0639  0.5362 -0.3239
 9944SOL    HW231701   1.434   3.112   7.922 -0.3996  0.2799  0.1321
 9945SOL     OW31702   0.640   3.060   2.139  0.2072 -0.0806 -0.0170
 9945SOL    HW131703   0.688   2.979   2.123  0.3014 -0.0648  0.1845
 9945SOL    HW231704   0.549   3.038   2.121  0.2416 -0.2146 -0.0275
 9946SOL     OW31705   7.213   4.250   5.433 -0.0307 -0.2738  0.1177
 9946SOL    HW131706   7.168   4.190   5.374  0.0792 -1.0362  0.7981
 9946SOL    HW231707   7.152   4.261   5.506  0.8239 -1.2460  1.0050
 9947SOL     OW31708   6.183   3.958   6.910  0.6265  0.1442  0.0960
 9947SOL    HW131709   6.197   3.913   6.827 -1.1484  1.3539 -0.9279
 9947SOL    HW231710   6.173   3.888   6.975 -0.2425 -0.8928 -1.1207
 9948SOL     OW31711   2.107   0.008   7.897 -0.8118  0.2165 -0.0764
 9948SOL    HW131712   2.140   0.021   7.986  3.3731  0.8208 -1.5200
 9948SOL    HW231713   2.101   0.096   7.860  1.7978 -0.1528 -1.6296
 9949SOL     OW31714   3.861   7.636   1.727 -0.1978 -0.2582  0.3015
 9949SOL    HW131715   3.879   7.622   1.820  0.2542 -1.3409  0.0666
 9949SOL    HW231716   3.909   7.716   1.705  2.9536 -2.0191  0.1416
 9950SOL     OW31717   0.777   2.411   1.197 -0.7073 -0.0266  0.3133
 9950SOL    HW131718   0.771   2.339   1.260 -1.3594  0.0459  0.3386
 9950SOL    HW231719   0.841   2.470   1.235 -0.5888 -0.3171  0.5720
 9951SOL     OW31720   1.244   5.549   2.240  0.1684 -0.9339  0.7223
 9951SOL    HW131721   1.172   5.548   2.304 -0.5447 -3.3756 -0.0322
 9951SOL    HW231722   1.203   5.576   2.158  0.6038 -0.0814  0.7795
 9952SOL     OW31723   0.786   0.822   5.482 -0.6055 -1.0654  0.1112
 9952SOL    HW131724   0.834   0.803   5.562 -0.4995 -2.0164 -0.1716
 9952SOL    HW231725   0.695   0.834   5.511 -0.3951 -0.3608  0.5018
 9953SOL     OW31726   4.796   8.707   0.018 -0.0918 -0.0861 -0.2942
 9953SOL    HW131727   4.803   8.651  -0.059  0.6091 -0.4535  0.0342
 9953SOL    HW231728   4.846   8.786  -0.005  0.2813 -0.2783 -0.1397
 9954SOL     OW31729   8.055   2.099   8.743  0.4304  0.3177  0.5820
 9954SOL    HW131730   8.005   2.037   8.796 -0.7315  0.1599 -0.6642
 9954SOL    HW231731   8.097   2.046   8.676  1.3393  0.6070  0.9018
 9955SOL     OW31732   0.941   2.372   3.805 -0.4268 -0.2693 -0.1709
 9955SOL    HW131733   0.901   2.351   3.720 -0.4935  1.5736 -0.6271
 9955SOL    HW231734   1.030   2.399   3.783 -0.2514 -0.3577  0.4278
 9956SOL     OW31735   1.490   1.236   3.557 -0.0490 -0.6033  0.1699
 9956SOL    HW131736   1.514   1.311   3.504  0.0873  0.7380  2.0234
 9956SOL    HW231737   1.401   1.255   3.587 -0.3572 -1.6274 -0.0400
 9957SOL     OW31738   6.279   3.397   1.771  0.1395 -0.2272  0.1767
 9957SOL    HW131739   6.253   3.318   1.725  2.0561 -1.2114  0.6887
 9957SOL    HW231740   6.232   3.392   1.855 -0.6745 -0.1907 -0.2697
 9958SOL     OW31741   4.854   5.770   7.309 -0.1967 -0.3174  0.5648
 9958SOL    HW131742   4.919   5.700   7.313 -0.4132 -0.6653 -1.2563
 9958SOL    HW231743   4.903   5.847   7.279 -0.7039 -0.7878 -1.6615
 9959SOL     OW31744   2.593   8.994   6.617  0.0169  0.5511 -0.0611
 9959SOL    HW131745   2.499   8.982   6.604  0.2528 -0.0270 -1.3753
 9959SOL    HW231746   2.606   9.089   6.614 -0.6229  0.6964  1.0306
 9960SOL     OW31747   2.478   4.987   4.293 -0.3769 -0.2937  0.1286
 9960SOL    HW131748   2.529   5.035   4.357 -1.4326  1.8023 -0.5036
 9960SOL    HW231749   2.541   4.930   4.249  0.5898 -0.8151  2.1053
 9961SOL     OW31750   4.508   2.275   2.681 -0.2248  0.8067  0.3909
 9961SOL    HW131751   4.467   2.192   2.657 -1.0460  0.9908  1.1130
 9961SOL    HW231752   4.600   2.265   2.654  0.4610 -1.4744  3.0875
 9962SOL     OW31753   5.389   2.702   8.897  0.3168  0.7217 -0.4187
 9962SOL    HW131754   5.371   2.786   8.941 -3.6932  0.1155 -0.4940
 9962SOL    HW231755   5.384   2.637   8.968  3.9460  0.4256 -0.2621
 9963SOL     OW31756   0.762   8.981   5.838  0.4599  0.7931  0.0014
 9963SOL    HW131757   0.821   8.922   5.790 -0.0825  0.7671 -0.6418
 9963SOL    HW231758   0.768   9.064   5.790 -0.1589  0.7386 -0.1742
 9964SOL     OW31759   6.545   5.537   4.338 -0.5256  0.8183  0.4423
 9964SOL    HW131760   6.508   5.449   4.329 -0.2699  0.5950  1.3992
 9964SOL    HW231761   6.569   5.543   4.431 -0.1864  1.7591  0.3040
 9965SOL     OW31762   1.505   4.539   2.142  0.1940 -0.1885 -0.7057
 9965SOL    HW131763   1.525   4.459   2.094  1.9565  0.7112 -1.5819
 9965SOL    HW231764   1.588   4.587   2.144 -0.8109  1.6303 -0.2225
 9966SOL     OW31765   3.151   0.541   6.535  0.2476  0.2826  0.5115
 9966SOL    HW131766   3.216   0.520   6.602  1.2069  2.0312  0.1724
 9966SOL    HW231767   3.072   0.495   6.564  1.5038 -1.6855  1.0852
 9967SOL     OW31768   1.268   4.237   1.092  0.4514 -0.8802 -0.2758
 9967SOL    HW131769   1.198   4.299   1.112  3.7745  2.6547  1.5377
 9967SOL    HW231770   1.275   4.240   0.997  0.5359  1.7720 -0.2731
 9968SOL     OW31771   1.421   0.685   7.601  0.3715 -0.3572 -0.0859
 9968SOL    HW131772   1.384   0.693   7.513 -0.9147 -1.3680  0.3347
 9968SOL    HW231773   1.509   0.649   7.586  1.3822  2.2700 -1.1050
 9969SOL     OW31774   2.085   8.555   8.439  0.6766  0.1964  0.7105
 9969SOL    HW131775   2.003   8.506   8.433  0.8723 -0.0562  0.0521
 9969SOL    HW231776   2.110   8.548   8.531  1.4992 -2.2775  0.3541
 9970SOL     OW31777   2.956   0.220   3.179 -0.5014 -0.0757 -0.6635
 9970SOL    HW131778   2.959   0.176   3.094 -0.5343 -0.4353 -0.4780
 9970SOL    HW231779   2.966   0.150   3.243  0.6558  0.3142 -0.3902
 9971SOL     OW31780   0.810   3.894   0.488  0.1633 -0.7677 -0.2905
 9971SOL    HW131781   0.720   3.903   0.520  0.4134  0.1580  0.1729
 9971SOL    HW231782   0.825   3.799   0.488 -1.0780 -0.9921 -1.1509
 9972SOL     OW31783   4.469   5.592   0.340  0.2626 -0.5127 -0.1382
 9972SOL    HW131784   4.523   5.661   0.299  0.0581  0.0689  0.5552
 9972SOL    HW231785   4.379   5.617   0.319  0.2051 -0.8023 -0.2379
 9973SOL     OW31786   2.710   4.213   7.610 -0.0824 -0.1499 -0.7437
 9973SOL    HW131787   2.778   4.192   7.546  0.3283 -0.1420 -0.3200
 9973SOL    HW231788   2.661   4.285   7.570 -0.6257 -0.9684 -1.5916
 9974SOL     OW31789   5.070   0.281   2.098  0.1805 -0.0819  0.1806
 9974SOL    HW131790   5.013   0.350   2.062 -0.3095  0.2261  1.5088
 9974SOL    HW231791   5.123   0.253   2.023 -1.4894 -0.1619 -1.0372
 9975SOL     OW31792   0.684   4.145   2.668  0.3789 -0.0946  0.1960
 9975SOL    HW131793   0.634   4.087   2.610 -1.3513  1.2606  0.2443
 9975SOL    HW231794   0.730   4.204   2.608 -0.3697  0.4742  0.1736
 9976SOL     OW31795   2.361   8.866   4.514 -0.4898 -0.4622 -0.3893
 9976SOL    HW131796   2.423   8.804   4.553  0.2788 -0.0809 -0.9708
 9976SOL    HW231797   2.340   8.928   4.584 -0.2658 -0.6378 -0.1676
 9977SOL     OW31798   1.026   2.389   8.433 -0.2282  0.6542  0.0746
 9977SOL    HW131799   0.987   2.389   8.345  0.4446 -0.6052 -0.2425
 9977SOL    HW231800   1.084   2.312   8.434  0.1100  0.9006  1.4740
 9978SOL     OW31801   0.244   4.166   1.783 -0.1031  0.0897  0.0453
 9978SOL    HW131802   0.294   4.244   1.757 -0.0870  0.4840  1.2017
 9978SOL    HW231803   0.195   4.142   1.704 -0.6090  1.6635 -0.1630
 9979SOL     OW31804   4.748   7.990   5.982  0.5695 -0.3918  1.0795
 9979SOL    HW131805   4.738   8.084   5.990  0.0113 -0.3729  0.3233
 9979SOL    HW231806   4.721   7.971   5.892  1.2847 -1.1894  1.0225
 9980SOL     OW31807   8.133   4.003   2.885  0.0941 -0.2695 -0.1541
 9980SOL    HW131808   8.106   3.917   2.852 -1.4595  0.1192  0.0392
 9980SOL    HW231809   8.051   4.049   2.902  0.8994  0.9820  0.4761
 9981SOL     OW31810   2.159   5.058   2.553  0.2882  0.4189 -0.3467
 9981SOL    HW131811   2.093   4.996   2.585  1.2036 -0.9025 -0.9232
 9981SOL    HW231812   2.154   5.132   2.613 -0.6355 -0.3459  0.5522
 9982SOL     OW31813   8.490   0.107   2.666  0.2225  0.3551  0.4170
 9982SOL    HW131814   8.463   0.132   2.578  1.2323 -1.8106 -0.6092
 9982SOL    HW231815   8.425   0.146   2.724 -0.8952  1.2293 -1.3390
 9983SOL     OW31816   8.755   2.392   0.074 -0.2843 -0.1103 -0.0806
 9983SOL    HW131817   8.753   2.483   0.104  0.4218 -0.0455 -0.2203
 9983SOL    HW231818   8.664   2.372   0.053 -0.3823  0.7005 -0.4550
 9984SOL     OW31819   5.714   2.061   4.462 -0.2367  0.7876 -0.2405
 9984SOL    HW131820   5.696   2.111   4.542 -0.0610  0.0224  0.2878
 9984SOL    HW231821   5.685   2.118   4.391  0.7318  1.9804  0.2944
 9985SOL     OW31822   0.627   3.081   4.718  0.4477  0.4867  0.2399
 9985SOL    HW131823   0.544   3.035   4.706 -0.0538  1.1727  1.0376
 9985SOL    HW231824   0.691   3.025   4.673 -0.3347 -0.3770  0.1621
 9986SOL     OW31825   1.596   5.506   0.980  0.4066  0.0831  0.0112
 9986SOL    HW131826   1.611   5.438   1.045 -0.0258 -0.4135 -0.3934
 9986SOL    HW231827   1.542   5.571   1.025 -1.7027 -1.2720 -0.4249
 9987SOL     OW31828   7.496   1.532   2.311 -0.1316 -0.0649 -0.1313
 9987SOL    HW131829   7.436   1.509   2.240  0.1675 -2.0741  0.2068
 9987SOL    HW231830   7.528   1.619   2.288 -3.0390  1.0540 -0.4063
 9988SOL     OW31831   1.543   0.237   6.936  0.1249 -0.1920 -0.3401
 9988SOL    HW131832   1.599   0.288   6.878  2.3060 -2.0112  0.0345
 9988SOL    HW231833   1.601   0.172   6.976 -2.2905 -2.4664 -0.1941
 9989SOL     OW31834   4.550   0.366   4.825 -1.3056 -0.0547  0.6716
 9989SOL    HW131835   4.464   0.338   4.856 -1.6656  0.3497  0.0711
 9989SOL    HW231836   4.612   0.307   4.868 -1.9555 -0.9636  0.3874
 9990SOL     OW31837   3.292   4.057   8.184  0.3453  0.4085  0.6976
 9990SOL    HW131838   3.278   3.978   8.236  0.9160 -0.5982 -0.6089
 9990SOL    HW231839   3.209   4.104   8.188  0.4129  0.4437  2.5984
 9991SOL     OW31840   3.060   8.769   3.551 -0.1186  0.5450 -0.0316
 9991SOL    HW131841   3.028   8.734   3.468  1.4805  1.5805 -1.1432
 9991SOL    HW231842   3.075   8.862   3.535 -2.4585  1.4627  2.3099
 9992SOL     OW31843   4.893   6.524   8.503 -0.1249 -0.0082 -0.1799
 9992SOL    HW131844   4.973   6.476   8.523  1.4043  1.8414 -1.5024
 9992SOL    HW231845   4.900   6.605   8.554 -0.1268  1.0718 -1.8114
 9993SOL     OW31846   5.222   7.456   5.672  0.5214  0.2056 -0.2969
 9993SOL    HW131847   5.278   7.496   5.738 -0.4150  1.2277 -0.0980
 9993SOL    HW231848   5.133   7.481   5.698  0.1473  0.8332 -2.0726
 9994SOL     OW31849   4.730   6.774   0.225 -0.5807  0.7707 -0.2707
 9994SOL    HW131850   4.667   6.760   0.155 -0.8266  4.0566 -0.8665
 9994SOL    HW231851   4.677   6.784   0.304 -0.6016  0.7031 -0.2767
 9995SOL     OW31852   3.826   4.739   4.065  0.1773  0.5675 -0.4098
 9995SOL    HW131853   3.775   4.670   4.022  1.2958 -0.5026 -0.0756
 9995SOL    HW231854   3.802   4.733   4.157 -1.5959  2.3165 -0.6954
 9996SOL     OW31855   2.079   0.800   8.677 -0.5091 -0.1664 -0.0564
 9996SOL    HW131856   2.025   0.739   8.726  1.0093 -2.4777 -1.0916
 9996SOL    HW231857   2.041   0.886   8.695 -4.0692 -1.5460 -0.1984
 9997SOL     OW31858   7.662   6.961   2.045  0.6793 -0.0149  0.1986
 9997SOL    HW131859   7.726   6.931   1.980  0.8076  0.0675  0.2850
 9997SOL    HW231860   7.608   7.024   1.998 -1.1692 -2.1496 -0.6882
 9998SOL     OW31861   6.211   7.690   5.441 -0.4676 -0.2639  0.3317
 9998SOL    HW131862   6.191   7.782   5.427  2.1947  0.3022 -0.2614
 9998SOL    HW231863   6.146   7.643   5.389 -1.1096  1.3056 -0.3391
 9999SOL     OW31864   6.869   0.578   3.666  0.0332 -0.0099  0.3086
 9999SOL    HW131865   6.947   0.603   3.715  1.2632  0.8700 -1.9561
 9999SOL    HW231866   6.801   0.638   3.696  0.6936  0.4155  0.9891
10000SOL     OW31867   2.860   7.928   3.550  0.0650  0.4454 -0.2370
10000SOL    HW131868   2.807   7.886   3.617 -0.5245  0.8610 -0.4341
10000SOL    HW231869   2.946   7.938   3.590 -0.0218 -0.1712  0.1103
10001SOL     OW31870   1.304   5.111   4.212 -0.1062  0.1527  0.0762
10001SOL    HW131871   1.263   5.197   4.203 -1.6745 -0.5543  0.1825
10001SOL    HW231872   1.361   5.104   4.135 -0.5869  0.9511 -0.3614
10002SOL     OW31873   6.531   5.534   1.905 -0.3758 -0.0476 -0.0350
10002SOL    HW131874   6.511   5.604   1.967 -1.6213  0.6328 -1.1592
10002SOL    HW231875   6.558   5.579   1.825 -0.4421 -0.8665 -0.5279
10003SOL     OW31876   5.273   1.521   4.316  0.0833 -0.1512  0.1501
10003SOL    HW131877   5.324   1.531   4.236 -2.0983  0.3035 -1.2664
10003SOL    HW231878   5.270   1.609   4.354 -1.7378  0.4361 -1.1899
10004SOL     OW31879   1.499   3.325   7.133 -0.3974 -0.4330  0.2913
10004SOL    HW131880   1.473   3.238   7.162  1.1924 -0.6817  1.0450
10004SOL    HW231881   1.584   3.313   7.091 -0.3071  0.7055  0.1114
10005SOL     OW31882   3.428   0.818   4.810 -0.2720  0.1068  0.2634
10005SOL    HW131883   3.440   0.779   4.724 -1.6866 -2.2041  1.0041
10005SOL    HW231884   3.476   0.760   4.869 -0.6943  0.6965  1.2108
10006SOL     OW31885   8.525   2.305   4.811 -0.2410 -0.3498  0.1621
10006SOL    HW131886   8.572   2.253   4.876 -1.3810 -2.8875 -0.8982
10006SOL    HW231887   8.587   2.316   4.739 -0.8236 -2.8884 -0.8419
10007SOL     OW31888   7.559   2.679   5.267  0.6810  0.2757  0.3088
10007SOL    HW131889   7.637   2.733   5.251  0.8955  0.3667  1.5864
10007SOL    HW231890   7.521   2.715   5.346  0.2762 -0.8308  0.6339
10008SOL     OW31891   1.433   5.162   1.620  0.7997  0.1944  0.1742
10008SOL    HW131892   1.518   5.125   1.594  0.4949 -0.4655  0.0956
10008SOL    HW231893   1.445   5.257   1.612  1.9867  0.1930  1.5502
10009SOL     OW31894   4.508   3.668   0.135  0.2658  0.1007  0.1507
10009SOL    HW131895   4.538   3.757   0.117  2.0241 -0.1872  1.4366
10009SOL    HW231896   4.551   3.615   0.068  0.0300  0.0714  0.0196
10010SOL     OW31897   6.673   1.650   3.155  0.4937 -0.0716  0.2593
10010SOL    HW131898   6.674   1.731   3.206  0.7664  0.1935 -0.1655
10010SOL    HW231899   6.614   1.669   3.082  0.7146 -0.1889  0.0511
10011SOL     OW31900   3.840   3.134   8.701  0.3100 -0.0588 -0.5008
10011SOL    HW131901   3.828   3.178   8.785  0.5808  1.9614 -1.4714
10011SOL    HW231902   3.907   3.067   8.719  0.2340  0.2191  0.9158
10012SOL     OW31903   8.350   8.429   8.108 -0.3031  0.2990  0.3338
10012SOL    HW131904   8.312   8.343   8.089 -0.3923  0.2797  0.5958
10012SOL    HW231905   8.378   8.463   8.022  0.6805 -0.4306  0.3467
10013SOL     OW31906   0.306   0.715   7.337  0.7195  0.3872  0.1309
10013SOL    HW131907   0.257   0.772   7.278  0.9008  0.0339 -0.3719
10013SOL    HW231908   0.312   0.764   7.419 -1.9645 -0.2386  0.7971
10014SOL     OW31909   7.505   3.310   7.098 -0.2191  0.3169 -0.5907
10014SOL    HW131910   7.563   3.254   7.150 -1.8592  1.0151  2.2421
10014SOL    HW231911   7.562   3.379   7.065  0.8970 -0.0144  0.5593
10015SOL     OW31912   6.840   3.430   4.013  0.3385 -0.6041  0.5947
10015SOL    HW131913   6.746   3.447   4.022  0.4244 -0.4564  1.2738
10015SOL    HW231914   6.846   3.361   3.947 -0.3218 -1.3719  1.3208
10016SOL     OW31915   6.904   7.465   2.486 -0.2138 -0.5995 -0.0975
10016SOL    HW131916   6.993   7.448   2.515 -0.1247 -1.8847 -0.9928
10016SOL    HW231917   6.850   7.405   2.538 -0.5046 -0.1342  0.1400
10017SOL     OW31918   3.081   4.536   3.635 -0.6489 -0.4187 -0.5587
10017SOL    HW131919   3.132   4.586   3.572  0.5554 -0.7813  0.0881
10017SOL    HW231920   3.098   4.445   3.612 -1.3331 -0.5428 -0.5794
10018SOL     OW31921   0.014   1.030   4.664 -0.2965  0.1596  0.2751
10018SOL    HW131922   0.097   0.991   4.690 -0.4613  0.0840  0.7048
10018SOL    HW231923  -0.027   0.965   4.607 -1.0423 -0.7945  1.8233
10019SOL     OW31924   1.105   8.033   7.430 -0.3614  0.3158 -0.2656
10019SOL    HW131925   1.081   8.042   7.523 -1.1457 -0.6956 -0.3520
10019SOL    HW231926   1.024   8.052   7.383 -0.4995 -1.1001 -0.6485
10020SOL     OW31927   8.103   3.416   1.519 -0.1706 -0.2081 -0.1303
10020SOL    HW131928   8.133   3.402   1.429  0.8797  0.5063  0.0837
10020SOL    HW231929   8.133   3.339   1.567  0.6383  0.1217 -0.0905
10021SOL     OW31930   5.301   8.868   3.927  0.0476 -0.2794  0.2080
10021SOL    HW131931   5.388   8.903   3.910 -0.9056  2.5975  0.6286
10021SOL    HW231932   5.259   8.864   3.841  0.1019 -0.1958  0.1782
10022SOL     OW31933   2.794   0.463   0.415  0.2395 -0.0767  0.2969
10022SOL    HW131934   2.758   0.465   0.504  1.0748 -1.1483  0.6732
10022SOL    HW231935   2.722   0.431   0.360  0.3849 -1.5637  0.9391
10023SOL     OW31936   5.207   8.735   1.837  0.2642 -0.2800 -0.2733
10023SOL    HW131937   5.299   8.755   1.853  0.0796  1.3768 -1.0009
10023SOL    HW231938   5.159   8.799   1.890 -0.4014  0.5347 -1.7865
10024SOL     OW31939   1.349   5.051   8.506  0.2685 -0.3689  0.2619
10024SOL    HW131940   1.352   5.114   8.578  1.2982 -0.9493  0.7516
10024SOL    HW231941   1.370   5.102   8.428 -2.3530  0.5814  0.0867
10025SOL     OW31942   8.036   6.348   8.412  0.3620  0.0811  0.5534
10025SOL    HW131943   7.959   6.402   8.394  1.4399  1.3072 -0.5726
10025SOL    HW231944   8.102   6.409   8.444  0.8223 -0.9829  1.7257
10026SOL     OW31945   0.523   3.762   3.033 -0.4101  0.5687 -0.4852
10026SOL    HW131946   0.525   3.795   2.943  0.1020  0.7399 -0.4160
10026SOL    HW231947   0.439   3.791   3.067 -0.1320  1.5071 -0.5511
10027SOL     OW31948   6.848   6.929   8.892 -0.2228  0.4725  0.2063
10027SOL    HW131949   6.883   6.973   8.814  0.6423  2.4540  1.6306
10027SOL    HW231950   6.798   6.997   8.937 -1.6632 -0.9472  0.8337
10028SOL     OW31951   5.672   0.992   4.720  0.0281 -0.5059 -0.0330
10028SOL    HW131952   5.633   1.043   4.649 -1.6013  0.7218  1.6356
10028SOL    HW231953   5.644   0.902   4.701 -0.3838 -0.2106 -0.9433
10029SOL     OW31954   0.942   1.824   2.466  0.1851 -0.7868  0.1813
10029SOL    HW131955   0.958   1.915   2.438 -0.1976 -0.8360 -0.1971
10029SOL    HW231956   0.866   1.830   2.523 -0.9215 -1.0933 -1.2162
10030SOL     OW31957   8.238   1.097   1.214 -0.1175  0.1263 -0.2957
10030SOL    HW131958   8.210   1.005   1.217 -2.7762  0.8261 -0.7764
10030SOL    HW231959   8.161   1.144   1.182 -0.0740  2.9761  3.1567
10031SOL     OW31960   7.579   2.588   7.151 -0.6933 -0.1220  0.6620
10031SOL    HW131961   7.511   2.575   7.217 -1.2914  1.0280  0.3110
10031SOL    HW231962   7.543   2.656   7.094  0.2327 -0.3962 -0.2683
10032SOL     OW31963   5.927   1.782   6.000 -0.0101  0.4183 -0.4400
10032SOL    HW131964   5.892   1.807   5.914 -2.0153  2.2392  0.8156
10032SOL    HW231965   5.890   1.695   6.016  0.5046 -0.0018 -1.4509
10033SOL     OW31966   3.193   8.634   3.744  0.9016 -0.2249 -0.1108
10033SOL    HW131967   3.141   8.670   3.672  2.1677  0.9925 -0.4571
10033SOL    HW231968   3.226   8.551   3.709  0.1661 -0.4493 -0.3092
10034SOL     OW31969   0.152   5.925   1.884  0.1266  0.6350  0.5185
10034SOL    HW131970   0.178   6.017   1.884 -0.7713  0.9062  1.1054
10034SOL    HW231971   0.229   5.878   1.918  1.9718  0.6805 -3.0921
10035SOL     OW31972   4.642   4.157   8.314  0.4243  0.1228 -0.4387
10035SOL    HW131973   4.585   4.233   8.326  0.5852  0.3049 -0.8222
10035SOL    HW231974   4.717   4.174   8.371 -1.5904 -1.9061  3.1874
10036SOL     OW31975   7.712   5.624   3.843  0.0283 -0.0402 -0.2615
10036SOL    HW131976   7.639   5.652   3.788  0.7781 -0.2756 -1.4102
10036SOL    HW231977   7.714   5.528   3.833  0.5940 -0.0206 -0.3979
10037SOL     OW31978   6.510   0.710   4.562 -0.5251 -0.4002  0.4006
10037SOL    HW131979   6.518   0.772   4.490  2.5916  0.2085  1.0957
10037SOL    HW231980   6.541   0.627   4.526 -3.3669 -1.3119 -0.1421
10038SOL     OW31981   5.937   3.098   1.537 -0.5099 -0.2104 -0.0443
10038SOL    HW131982   5.846   3.073   1.550 -1.3824  0.9266 -3.1022
10038SOL    HW231983   5.958   3.068   1.449  1.6370  0.7850  0.0640
10039SOL     OW31984   4.823   5.417   5.529  0.2676 -0.0928  0.2372
10039SOL    HW131985   4.849   5.509   5.532  3.0226 -0.7436 -0.9865
10039SOL    HW231986   4.765   5.411   5.453  0.9976  0.4410 -0.3704
10040SOL     OW31987   2.806   6.213   0.076 -0.1216 -0.3863  0.1622
10040SOL    HW131988   2.731   6.202   0.017 -0.2009 -1.4030  0.4316
10040SOL    HW231989   2.799   6.139   0.137  1.3895 -0.7900 -0.1226
10041SOL     OW31990   1.345   3.427   6.546  0.1548 -0.0864 -0.3551
10041SOL    HW131991   1.348   3.390   6.458  0.3799 -0.3772 -0.2277
10041SOL    HW231992   1.346   3.351   6.604  0.0278  0.1047 -0.1010
10042SOL     OW31993   1.124   2.646   0.601  0.0174 -0.9194 -0.0669
10042SOL    HW131994   1.190   2.703   0.640 -0.3715 -0.4313 -0.1124
10042SOL    HW231995   1.068   2.621   0.675 -1.0576  0.4617 -0.3753
10043SOL     OW31996   7.769   6.811   4.727  0.3598  0.1524 -0.1233
10043SOL    HW131997   7.845   6.848   4.773  1.5750 -1.9419 -0.3065
10043SOL    HW231998   7.775   6.717   4.743 -1.9338 -0.1240 -0.6171
10044SOL     OW31999   5.633   6.048   2.979  0.1388  0.4196  0.4176
10044SOL    HW132000   5.691   6.114   3.018 -0.6279  1.2959  0.1190
10044SOL    HW232001   5.634   6.068   2.886  1.7491 -1.5011 -0.0492
10045SOL     OW32002   7.351   1.901   1.924 -0.1427 -0.2282 -0.1428
10045SOL    HW132003   7.275   1.923   1.869 -0.9972  0.7000  1.3459
10045SOL    HW232004   7.340   1.809   1.945 -0.7156 -0.1626 -0.1450
10046SOL     OW32005   2.694   8.272   7.623  0.3120 -0.1899  0.3153
10046SOL    HW132006   2.711   8.348   7.567 -1.6067  0.8209  1.0243
10046SOL    HW232007   2.690   8.198   7.562 -2.7101  0.9882 -1.1552
10047SOL     OW32008   4.117   3.423   5.343  0.1899  0.6387 -0.4732
10047SOL    HW132009   4.065   3.382   5.273 -0.5840  0.4664  0.1906
10047SOL    HW232010   4.208   3.412   5.314 -0.0521 -0.5918 -0.8368
10048SOL     OW32011   7.690   2.748   8.955 -0.4049  0.3921  0.6285
10048SOL    HW132012   7.780   2.719   8.971 -0.8949 -0.7208  1.5804
10048SOL    HW232013   7.654   2.762   9.042 -1.4177 -0.0445  0.2948
10049SOL     OW32014   8.373   8.724   4.850 -0.1128  0.3259  0.0118
10049SOL    HW132015   8.422   8.802   4.824 -0.0819  0.2803 -0.0695
10049SOL    HW232016   8.431   8.679   4.911 -1.6889  2.3974  3.3041
10050SOL     OW32017   0.668   0.823   0.069  0.1473  0.4871 -0.4233
10050SOL    HW132018   0.755   0.813   0.107  0.2621  1.1089 -0.5110
10050SOL    HW232019   0.657   0.745   0.014  0.1864 -0.1639  0.4595
10051SOL     OW32020   4.017   0.117   2.346  0.4685  0.0674  0.3201
10051SOL    HW132021   3.969   0.146   2.424  1.2647  0.7997  0.5561
10051SOL    HW232022   4.108   0.141   2.364  0.4653  1.5488 -1.4445
10052SOL     OW32023   7.847   8.780   1.332 -0.6527 -0.2972 -0.3474
10052SOL    HW132024   7.859   8.873   1.313 -0.7763 -0.1865  0.1003
10052SOL    HW232025   7.814   8.778   1.422 -0.0471 -0.8085 -0.1272
10053SOL     OW32026   3.379   3.385   5.687 -0.1639 -0.4099 -0.1185
10053SOL    HW132027   3.314   3.346   5.628 -1.8245 -2.1840  2.6437
10053SOL    HW232028   3.347   3.474   5.703 -0.8428 -0.6174 -0.2992
10054SOL     OW32029   7.634   6.674   7.698 -0.1947 -0.4621 -0.3923
10054SOL    HW132030   7.592   6.714   7.775  0.7852 -2.2231  1.1375
10054SOL    HW232031   7.725   6.706   7.702 -0.8259  1.9960 -2.7329
10055SOL     OW32032   8.908   3.489   6.525 -0.0768 -0.1271  0.2478
10055SOL    HW132033   8.854   3.512   6.601 -0.8834 -0.9427 -0.0634
10055SOL    HW232034   8.886   3.397   6.507 -1.7369  0.6616 -2.4355
10056SOL     OW32035   8.513   5.819   7.874 -0.6550 -0.1217  0.0636
10056SOL    HW132036   8.559   5.811   7.957 -2.0917  1.0019  1.0104
10056SOL    HW232037   8.426   5.781   7.890 -1.3359  1.0948 -0.5747
10057SOL     OW32038   3.669   2.057   8.284 -0.5427  0.2920  0.1195
10057SOL    HW132039   3.672   2.040   8.190 -0.2488  0.7164  0.0482
10057SOL    HW232040   3.588   2.016   8.313  0.5136 -1.9854  0.1102
10058SOL     OW32041   0.435   5.298   3.245  0.2512  0.0696  0.0071
10058SOL    HW132042   0.367   5.357   3.213  0.9426  0.5521 -0.6028
10058SOL    HW232043   0.501   5.297   3.175 -0.2919 -2.3784 -0.5686
10059SOL     OW32044   4.846   1.733   7.458  0.0559 -0.1288 -0.6314
10059SOL    HW132045   4.855   1.670   7.530  0.1112 -0.8249 -1.2382
10059SOL    HW232046   4.931   1.776   7.453  0.3391 -0.7150 -0.8659
10060SOL     OW32047   3.158   7.585   8.423 -0.0911  0.7634 -0.0152
10060SOL    HW132048   3.253   7.582   8.430 -0.1566 -0.7762  0.5903
10060SOL    HW232049   3.128   7.596   8.514 -0.5026  1.8231 -0.2569
10061SOL     OW32050   1.938   8.532   7.173 -0.3334  0.2692 -0.2541
10061SOL    HW132051   1.975   8.501   7.256 -0.3221 -0.9906 -0.7096
10061SOL    HW232052   1.945   8.627   7.178  0.6348  0.1675  0.7434
10062SOL     OW32053   2.093   3.633   2.626 -0.5071  0.1508  0.0152
10062SOL    HW132054   2.182   3.614   2.655  1.1418 -0.3030 -4.6225
10062SOL    HW232055   2.043   3.555   2.650  1.0682 -0.8760  0.1044
10063SOL     OW32056   1.178   5.472   5.785 -0.1691  0.1272 -0.8368
10063SOL    HW132057   1.250   5.410   5.795 -0.9549 -0.8059 -0.9149
10063SOL    HW232058   1.218   5.546   5.739  1.2042  0.4740  0.7924
10064SOL     OW32059   4.232   7.893   6.323  0.0558  0.5741  1.0164
10064SOL    HW132060   4.324   7.887   6.349 -0.2364  2.5856  2.7139
10064SOL    HW232061   4.222   7.982   6.290 -1.0455 -0.0089 -0.3090
10065SOL     OW32062   1.067   5.175   0.001 -0.1121 -0.2938 -0.2290
10065SOL    HW132063   1.160   5.197   0.013  0.1091 -0.7148 -1.1268
10065SOL    HW232064   1.035   5.240  -0.062 -0.3410 -0.3693 -0.1898
10066SOL     OW32065   7.875   1.223   3.139  0.3289 -0.0452  0.3316
10066SOL    HW132066   7.874   1.127   3.133  1.4990 -0.1742  1.8343
10066SOL    HW232067   7.898   1.251   3.050  2.5053 -1.2787  0.4281
10067SOL     OW32068   5.300   2.875   6.145  0.3787  0.3839  0.0811
10067SOL    HW132069   5.298   2.820   6.067 -0.0773  0.0798  0.3044
10067SOL    HW232070   5.274   2.817   6.216  1.0477  0.5918  0.5059
10068SOL     OW32071   2.333   7.350   6.763  0.1249 -0.1267  0.6563
10068SOL    HW132072   2.365   7.300   6.688 -1.4927  0.7369 -0.6861
10068SOL    HW232073   2.364   7.439   6.748  1.5685 -0.3198  2.1642
10069SOL     OW32074   6.755   7.266   8.554 -0.3203 -0.1306  0.5908
10069SOL    HW132075   6.797   7.283   8.470 -2.0758 -0.2177 -0.3616
10069SOL    HW232076   6.692   7.337   8.564 -2.5536 -1.9022  0.1111
10070SOL     OW32077   6.922   1.773   3.001 -0.2681  0.1561 -0.1865
10070SOL    HW132078   6.888   1.710   3.065 -0.3063 -0.6208 -0.9474
10070SOL    HW232079   7.016   1.776   3.018 -0.2836 -0.0234 -0.0647
10071SOL     OW32080   5.485   6.036   3.810 -0.1342  0.4659  0.2057
10071SOL    HW132081   5.447   5.950   3.791 -1.8158  1.5628 -1.7301
10071SOL    HW232082   5.438   6.066   3.888  0.8953 -0.5710  1.2695
10072SOL     OW32083   5.415   3.346   0.572  0.0812 -0.8471  0.0822
10072SOL    HW132084   5.386   3.330   0.483 -0.5488 -1.9774  0.4670
10072SOL    HW232085   5.403   3.440   0.585  0.0592 -0.6949 -0.9677
10073SOL     OW32086   6.862   4.510   6.552 -0.3715  0.3522 -0.6079
10073SOL    HW132087   6.833   4.448   6.619  1.3125  0.6638  0.4862
10073SOL    HW232088   6.783   4.555   6.524 -1.0292  0.8929  1.9044
10074SOL     OW32089   0.065   6.289   7.561  0.1850  0.1096  0.2646
10074SOL    HW132090  -0.010   6.238   7.591  1.1416 -0.9301  0.9802
10074SOL    HW232091   0.085   6.349   7.633 -0.5945  1.1425 -0.3528
10075SOL     OW32092   5.835   0.599   6.571  0.1683  0.4103 -0.0097
10075SOL    HW132093   5.791   0.678   6.541 -1.3973 -0.7476 -0.9613
10075SOL    HW232094   5.868   0.558   6.491  0.9241  0.0619  0.4642
10076SOL     OW32095   3.614   4.083   6.169  0.1121 -0.6844  0.5711
10076SOL    HW132096   3.622   4.089   6.265 -2.6339 -0.0167  0.8399
10076SOL    HW232097   3.650   4.166   6.138 -1.2607  0.2095  1.2622
10077SOL     OW32098   6.186   5.487   5.204 -0.0557  0.2123  0.1206
10077SOL    HW132099   6.225   5.441   5.278 -0.4493  0.7784  0.6907
10077SOL    HW232100   6.135   5.419   5.158  1.3445 -0.4684 -0.4768
10078SOL     OW32101   2.046   6.763   8.037  0.1652  0.1501  0.1164
10078SOL    HW132102   2.105   6.801   7.973  0.6919 -0.6214  0.1337
10078SOL    HW232103   2.050   6.823   8.112  2.6061 -0.9350  0.9812
10079SOL     OW32104   6.113   1.077   3.264  0.1292  0.1523  0.4041
10079SOL    HW132105   6.107   0.982   3.274 -0.5580  0.0678 -0.5956
10079SOL    HW232106   6.092   1.112   3.350  3.0741 -0.6402  1.5496
10080SOL     OW32107   8.208   5.977   0.708 -0.6856 -0.0982  0.9028
10080SOL    HW132108   8.131   5.936   0.668  0.4500 -1.4282  0.0096
10080SOL    HW232109   8.262   5.904   0.739 -0.3038  0.8436  2.5900
10081SOL     OW32110   6.364   1.914   8.044 -0.1943  0.2416  0.2473
10081SOL    HW132111   6.449   1.921   8.001 -0.0854  0.7593  0.5455
10081SOL    HW232112   6.365   1.826   8.083  0.0000  0.0521 -0.1705
10082SOL     OW32113   7.788   6.941   1.789 -0.7969 -0.4549 -0.7488
10082SOL    HW132114   7.825   6.854   1.799 -0.7526 -0.2866  0.7388
10082SOL    HW232115   7.863   7.000   1.799 -1.0093 -0.2048 -0.6190
10083SOL     OW32116   2.665   8.056   8.455  0.2395 -0.8740  0.2827
10083SOL    HW132117   2.584   8.105   8.440 -0.8787 -3.0844 -1.3272
10083SOL    HW232118   2.669   7.992   8.384  2.7843 -1.6773  1.0260
10084SOL     OW32119   4.610   8.078   6.263  0.2604  0.3025  0.3714
10084SOL    HW132120   4.620   8.071   6.168  0.8737 -1.0918  0.5255
10084SOL    HW232121   4.646   8.164   6.285 -3.5176  2.5042 -1.1122
10085SOL     OW32122   0.299   7.402   1.666 -0.0935 -0.2951 -0.6837
10085SOL    HW132123   0.386   7.388   1.628 -0.6898 -0.0608 -2.1989
10085SOL    HW232124   0.284   7.497   1.657 -0.1401 -0.1924  0.4032
10086SOL     OW32125   0.647   8.064   0.462 -0.3215  0.0782  0.4826
10086SOL    HW132126   0.629   8.076   0.369  0.4809 -2.7892 -0.1577
10086SOL    HW232127   0.638   8.151   0.500 -0.7606  1.3295 -2.2473
10087SOL     OW32128   8.890   8.963   4.335  0.4068 -0.3884  0.6463
10087SOL    HW132129   8.883   9.058   4.322  0.3020 -0.3063  1.2943
10087SOL    HW232130   8.802   8.930   4.316  0.4078 -0.3443  0.5613
10088SOL     OW32131   3.510   6.513   2.394 -0.1727 -0.1660  0.1371
10088SOL    HW132132   3.512   6.419   2.375 -0.5481 -0.2542  0.5170
10088SOL    HW232133   3.552   6.553   2.319  2.4309 -0.8117  1.1285
10089SOL     OW32134   5.047   3.068   7.269 -0.0739 -0.1654 -0.8865
10089SOL    HW132135   5.093   3.091   7.188  0.4178 -0.1668 -0.6124
10089SOL    HW232136   5.015   3.152   7.302  2.2313  0.3099  0.4221
10090SOL     OW32137   5.123   0.399   1.386  0.0976  0.1236  0.1322
10090SOL    HW132138   5.142   0.377   1.477  1.6887 -0.2483 -0.2571
10090SOL    HW232139   5.112   0.315   1.342  1.7500  0.1710 -0.4668
10091SOL     OW32140   6.162   8.396   1.300 -0.4526 -0.5606 -0.0975
10091SOL    HW132141   6.077   8.364   1.270  0.3094 -2.4998 -0.3429
10091SOL    HW232142   6.222   8.374   1.230  0.5943 -1.1348  0.9402
10092SOL     OW32143   5.859   7.327   2.782 -0.3018 -0.3260  0.2141
10092SOL    HW132144   5.863   7.359   2.872 -0.5929 -0.0316  0.1238
10092SOL    HW232145   5.941   7.357   2.743 -0.5247  0.2348  0.1599
10093SOL     OW32146   2.848   4.775   3.843  0.1986 -0.0787 -0.0323
10093SOL    HW132147   2.829   4.867   3.863  0.1205 -0.0200 -0.3736
10093SOL    HW232148   2.839   4.769   3.748  1.0261 -0.2465 -0.1125
10094SOL     OW32149   2.420   2.202   7.711 -0.1549 -0.1576 -0.2113
10094SOL    HW132150   2.339   2.247   7.686 -0.3452 -0.6439 -0.4754
10094SOL    HW232151   2.448   2.158   7.631  1.0436  1.0232 -0.4666
10095SOL     OW32152   6.136   5.559   7.279 -0.1762  0.3106  0.2305
10095SOL    HW132153   6.127   5.646   7.318 -1.3524  0.5068 -0.4449
10095SOL    HW232154   6.224   5.559   7.240 -0.2571  1.2740  0.0388
10096SOL     OW32155   4.881   2.035   8.396  0.2681  0.5080 -0.1806
10096SOL    HW132156   4.944   1.988   8.451 -1.2408 -0.3475  0.8943
10096SOL    HW232157   4.831   2.089   8.457 -3.2523 -2.4501 -0.0830
10097SOL     OW32158   3.087   4.059   8.524  0.0912 -0.2738  0.2082
10097SOL    HW132159   3.159   4.057   8.587 -0.4807  0.0703  0.8827
10097SOL    HW232160   3.086   3.971   8.486  0.8142 -0.3052  0.2357
10098SOL     OW32161   4.512   5.047   7.862  0.4824  0.2495  0.1333
10098SOL    HW132162   4.483   5.103   7.790 -0.8543 -2.7193 -1.8603
10098SOL    HW232163   4.432   5.010   7.897  1.2129  0.7121  2.4457
10099SOL     OW32164   8.134   3.650   8.904 -0.7243  0.6947 -0.8292
10099SOL    HW132165   8.082   3.587   8.953 -0.6930  0.4323 -1.1322
10099SOL    HW232166   8.179   3.701   8.972 -0.7445  0.3891 -0.5824
10100SOL     OW32167   4.669   0.686   7.105  0.7078  0.1969 -0.2367
10100SOL    HW132168   4.762   0.662   7.099  1.0072  1.3045 -0.3693
10100SOL    HW232169   4.642   0.695   7.014  1.1722  2.3108 -0.2193
10101SOL     OW32170   2.131   3.792   5.384 -0.0971 -0.1194 -0.5111
10101SOL    HW132171   2.179   3.769   5.464 -0.2242  1.1408 -0.0506
10101SOL    HW232172   2.047   3.747   5.393 -0.2189  0.2385  0.2022
10102SOL     OW32173   8.865   4.548   5.137  0.3217 -0.0565  0.7774
10102SOL    HW132174   8.880   4.485   5.067 -1.5386 -0.6731  0.8753
10102SOL    HW232175   8.937   4.533   5.199  0.5222 -1.3266  0.2731
10103SOL     OW32176   7.407   6.500   6.275  0.2465 -0.0591  0.2527
10103SOL    HW132177   7.415   6.562   6.347  1.1329 -0.4133  0.4677
10103SOL    HW232178   7.496   6.487   6.243 -0.3311  2.3901 -2.9140
10104SOL     OW32179   1.059   0.644   2.112  0.1252 -0.7131 -0.2580
10104SOL    HW132180   1.110   0.706   2.163  0.0460 -1.3721  0.6282
10104SOL    HW232181   1.004   0.699   2.055  0.7554  0.0060 -0.1780
10105SOL     OW32182   1.533   3.558   3.492  0.0391 -0.5418  0.8492
10105SOL    HW132183   1.601   3.492   3.508 -0.5020 -1.6101 -1.0281
10105SOL    HW232184   1.456   3.525   3.538  0.1442 -0.5267  1.0365
10106SOL     OW32185   4.514   2.957   3.370 -0.3052  0.4809 -0.3548
10106SOL    HW132186   4.609   2.965   3.357 -0.3656 -0.0696 -1.2373
10106SOL    HW232187   4.505   2.893   3.440 -0.0188  0.4131 -0.3770
10107SOL     OW32188   6.883   2.880   7.026  0.1629  0.2764 -0.0385
10107SOL    HW132189   6.900   2.914   6.939  0.0819  1.0603  0.2507
10107SOL    HW232190   6.891   2.955   7.084  4.0285 -0.8304  1.1676
10108SOL     OW32191   8.960   0.155   5.014  0.3206  0.0677  0.1748
10108SOL    HW132192   8.950   0.060   5.006 -0.8250  0.1082  0.9699
10108SOL    HW232193   8.955   0.187   4.924 -0.5105 -0.5254  0.0031
10109SOL     OW32194   7.492   4.152   2.112  0.1839  0.5546  0.2176
10109SOL    HW132195   7.452   4.232   2.079 -0.1585  0.3451  0.1210
10109SOL    HW232196   7.528   4.176   2.198  0.2333  0.8539  0.1124
10110SOL     OW32197   1.328   1.560   2.942  0.2567 -0.4214  0.0311
10110SOL    HW132198   1.358   1.576   2.852 -0.7349  0.8549 -0.1100
10110SOL    HW232199   1.296   1.470   2.941 -1.2480  0.0798 -1.3746
10111SOL     OW32200   6.554   2.683   4.439 -0.1848  0.0267 -0.3819
10111SOL    HW132201   6.547   2.774   4.412 -0.3908  0.2158  0.2662
10111SOL    HW232202   6.594   2.687   4.526  2.2730 -0.6693 -1.3888
10112SOL     OW32203   7.211   1.019   4.011  0.2940 -0.3881  0.3732
10112SOL    HW132204   7.194   1.013   4.105 -0.3877 -0.9077  0.2214
10112SOL    HW232205   7.273   1.092   4.003 -0.6680  0.5421  1.0981
10113SOL     OW32206   7.968   4.529   8.342  0.5120 -0.1770  0.1094
10113SOL    HW132207   8.038   4.518   8.406  0.5376  1.1002  0.3353
10113SOL    HW232208   7.924   4.610   8.369 -1.4414 -1.2433  0.3260
10114SOL     OW32209   6.633   8.281   1.597  0.0751  0.2355 -0.0479
10114SOL    HW132210   6.688   8.239   1.663  1.2631  0.3349 -0.9364
10114SOL    HW232211   6.666   8.247   1.513 -2.0096 -0.6174 -0.5736
10115SOL     OW32212   0.280   2.761   0.680 -0.0797  0.2734  0.2933
10115SOL    HW132213   0.203   2.719   0.643 -1.6804  1.7077  1.7985
10115SOL    HW232214   0.245   2.824   0.743  2.3006  1.6978  0.3124
10116SOL     OW32215   0.955   1.201   4.014  0.2352  0.0021 -0.0287
10116SOL    HW132216   0.874   1.241   4.043  0.7765 -0.1515  1.8299
10116SOL    HW232217   0.950   1.111   4.047  1.2198  0.0484  0.2816
10117SOL     OW32218   1.915   0.677   6.517  0.4344 -0.3547 -0.5252
10117SOL    HW132219   1.997   0.726   6.520 -0.0951  0.6091 -1.2661
10117SOL    HW232220   1.895   0.659   6.609  0.5343  1.0116 -0.2139
10118SOL     OW32221   8.985   6.686   1.140 -0.3265  0.1663  0.1271
10118SOL    HW132222   8.952   6.596   1.137 -0.3069  0.1567  0.1982
10118SOL    HW232223   9.018   6.696   1.230  1.3978 -0.3738 -0.3945
10119SOL     OW32224   4.990   8.560   6.494 -0.1116 -0.5094  0.2515
10119SOL    HW132225   5.063   8.622   6.494 -0.8694  0.4321 -0.8870
10119SOL    HW232226   4.912   8.616   6.491 -0.8410 -1.5195  0.0265
10120SOL     OW32227   5.758   8.840   7.288  0.4411  0.2999 -0.7683
10120SOL    HW132228   5.761   8.918   7.233  1.0207 -0.0345 -1.2136
10120SOL    HW232229   5.834   8.789   7.262 -0.2669 -0.7070 -0.9120
10121SOL     OW32230   6.998   3.947   3.870 -0.3560  0.2911  0.0078
10121SOL    HW132231   6.998   4.040   3.845 -1.7263  0.1478 -0.6233
10121SOL    HW232232   7.006   3.901   3.787 -1.8574 -0.1662  0.0935
10122SOL     OW32233   4.565   0.024   5.998 -0.2165  0.3672 -0.4549
10122SOL    HW132234   4.479   0.003   5.962 -0.0803 -0.2705 -0.4242
10122SOL    HW232235   4.595  -0.058   6.037 -0.5307  1.1387  1.4909
10123SOL     OW32236   4.685   3.508   8.939 -0.4811  0.4167 -0.8490
10123SOL    HW132237   4.723   3.456   8.868  1.1170  1.0716 -0.5197
10123SOL    HW232238   4.760   3.531   8.994 -1.2658  2.3147 -0.5024
10124SOL     OW32239   4.165   5.012   0.981 -0.0233 -0.0566  0.2306
10124SOL    HW132240   4.077   5.041   1.004  0.1091  0.7308 -0.2145
10124SOL    HW232241   4.162   4.916   0.990 -1.0605 -0.0862 -0.2621
10125SOL     OW32242   3.505   4.570   1.243 -0.2175  0.1929  0.3756
10125SOL    HW132243   3.526   4.600   1.155 -0.0305 -0.5924  0.1420
10125SOL    HW232244   3.480   4.649   1.290 -0.9671  0.5456 -0.5643
10126SOL     OW32245   6.257   4.813   7.137  0.2629 -0.0380 -0.1306
10126SOL    HW132246   6.343   4.825   7.096  0.6888 -0.9586  0.4434
10126SOL    HW232247   6.277   4.779   7.224 -0.6735  0.4707  0.2943
10127SOL     OW32248   8.185   1.437   2.097  0.2619  0.4003 -0.3592
10127SOL    HW132249   8.257   1.460   2.156 -0.2028  0.7011  0.0984
10127SOL    HW232250   8.226   1.384   2.029  0.8655  0.3303  0.0513
10128SOL     OW32251   2.260   7.204   2.532 -0.6359  0.1617  0.3396
10128SOL    HW132252   2.319   7.269   2.494 -0.6592  0.8082  1.3705
10128SOL    HW232253   2.305   7.175   2.611  0.1828 -2.3645 -0.9472
10129SOL     OW32254   0.590   2.277   4.391  0.0199 -0.2230  0.2299
10129SOL    HW132255   0.609   2.255   4.483  0.4374  0.8959  0.4245
10129SOL    HW232256   0.496   2.262   4.381 -0.2608  0.8098  1.1816
10130SOL     OW32257   5.995   0.449   1.694 -0.0746  0.3463 -0.2643
10130SOL    HW132258   6.081   0.426   1.728 -0.1184  1.2840  0.5031
10130SOL    HW232259   5.996   0.416   1.604  0.5971 -0.8082  0.1341
10131SOL     OW32260   5.855   6.424   6.998 -0.3710  0.1844  0.0315
10131SOL    HW132261   5.774   6.373   6.992 -0.2933 -0.1230  1.3147
10131SOL    HW232262   5.888   6.427   6.908 -1.3259 -0.4751 -0.3567
10132SOL     OW32263   5.922   8.376   3.572 -0.3857  0.1496  0.3067
10132SOL    HW132264   5.899   8.289   3.539 -0.6078  0.4962 -0.4870
10132SOL    HW232265   5.949   8.424   3.494 -0.1876  0.7661  0.7532
10133SOL     OW32266   3.300   2.033   6.019 -0.0647  0.3449 -0.0808
10133SOL    HW132267   3.315   1.957   5.962 -2.4000  0.1578 -0.5782
10133SOL    HW232268   3.365   2.097   5.991 -1.1782  0.3000 -3.1512
10134SOL     OW32269   5.136   7.705   5.890 -0.2373 -0.1331 -0.8547
10134SOL    HW132270   5.088   7.787   5.901 -0.9321 -0.7874  1.4789
10134SOL    HW232271   5.097   7.665   5.812 -1.9936  0.3487 -0.2626
10135SOL     OW32272   4.484   4.178   7.260 -0.1086 -0.1462 -0.0537
10135SOL    HW132273   4.423   4.116   7.221  0.8829 -0.4187 -1.2291
10135SOL    HW232274   4.482   4.157   7.354 -0.3165 -1.4936 -0.3317
10136SOL     OW32275   3.336   1.123   3.414 -0.0656  0.3597  0.2420
10136SOL    HW132276   3.381   1.199   3.378 -0.2521  1.5841  2.4154
10136SOL    HW232277   3.404   1.072   3.457 -0.1883  0.2585  0.3184
10137SOL     OW32278   5.723   1.792   2.832  0.3074  0.0148 -0.0952
10137SOL    HW132279   5.712   1.703   2.798 -0.2587  0.0490 -0.0180
10137SOL    HW232280   5.797   1.828   2.784  0.1470 -0.2866 -0.5742
10138SOL     OW32281   5.668   3.769   5.462 -0.0088 -0.5565 -0.3316
10138SOL    HW132282   5.625   3.737   5.382 -2.1836 -0.4083  0.6959
10138SOL    HW232283   5.614   3.735   5.533  0.7867  0.8618  1.0109
10139SOL     OW32284   6.106   5.226   7.693  0.2463 -0.3579  0.0621
10139SOL    HW132285   6.188   5.241   7.647  0.5649 -0.5712  0.5450
10139SOL    HW232286   6.097   5.130   7.695 -0.9028 -0.3212 -1.5076
10140SOL     OW32287   0.593   3.267   8.554 -0.0355 -0.0905 -0.0943
10140SOL    HW132288   0.621   3.176   8.543 -0.0335 -0.1833  0.6636
10140SOL    HW232289   0.673   3.319   8.538  0.2556 -0.2859  0.6778
10141SOL     OW32290   8.163   6.582   4.154 -0.2677 -0.3478  0.0872
10141SOL    HW132291   8.252   6.591   4.188  0.3457  1.7435 -1.7981
10141SOL    HW232292   8.107   6.623   4.220  0.4064  0.0642  0.4072
10142SOL     OW32293   6.174   0.369   5.106 -0.2676  0.1929  0.1260
10142SOL    HW132294   6.104   0.304   5.101  0.2493 -0.3564 -0.0896
10142SOL    HW232295   6.134   0.450   5.075 -1.1341  0.1644  1.1213
10143SOL     OW32296   4.989   3.715   8.867  0.7019  0.5254 -0.1754
10143SOL    HW132297   4.929   3.787   8.847 -0.3012 -0.4428 -0.7315
10143SOL    HW232298   4.968   3.647   8.804  1.3024 -0.4577  0.6450
10144SOL     OW32299   4.372   0.407   3.006 -0.3342 -0.0610  0.0472
10144SOL    HW132300   4.445   0.462   3.036  0.2143 -0.9417  0.3659
10144SOL    HW232301   4.412   0.322   2.987 -1.2254 -0.4569 -0.1108
10145SOL     OW32302   6.415   8.907   4.657 -0.6888 -0.1410 -0.7829
10145SOL    HW132303   6.470   8.856   4.597  0.8965  0.5297  0.0279
10145SOL    HW232304   6.421   8.859   4.740  0.8797  1.3115  0.0071
10146SOL     OW32305   7.683   4.066   6.999 -0.3400 -0.0034  0.2284
10146SOL    HW132306   7.704   3.996   7.061 -2.6428 -1.2078 -0.1981
10146SOL    HW232307   7.592   4.088   7.019 -0.3048  1.4067 -1.0393
10147SOL     OW32308   5.131   8.972   5.853 -0.1073 -0.0324 -0.0565
10147SOL    HW132309   5.089   8.892   5.822 -0.0732 -0.2392  0.4204
10147SOL    HW232310   5.101   9.040   5.793  1.1848 -0.6939 -1.5236
10148SOL     OW32311   0.858   6.227   4.450  0.2422 -0.0058  0.2652
10148SOL    HW132312   0.832   6.308   4.406 -0.2290  0.6792  1.7492
10148SOL    HW232313   0.871   6.164   4.379 -1.2350  0.8445 -0.8101
10149SOL     OW32314   4.507   3.260   7.847  0.3321 -0.1007  0.2810
10149SOL    HW132315   4.560   3.304   7.781  2.1436 -1.3877  0.8177
10149SOL    HW232316   4.567   3.240   7.918 -1.3349  0.2292  1.8519
10150SOL     OW32317   4.036   1.528   6.147  0.5326 -0.4531  0.1672
10150SOL    HW132318   4.121   1.503   6.183  1.1981  2.3242  0.7545
10150SOL    HW232319   3.976   1.525   6.221  0.4917 -0.7554  0.1232
10151SOL     OW32320   7.961   7.408   0.411 -0.3124  0.9003 -0.0651
10151SOL    HW132321   7.879   7.358   0.409 -1.0528  2.0323  0.5256
10151SOL    HW232322   7.956   7.458   0.493  0.9592  1.0242 -0.0430
10152SOL     OW32323   0.509   0.509   8.376  0.0227 -0.3819 -0.1468
10152SOL    HW132324   0.498   0.589   8.325 -1.2984  0.6127  1.5590
10152SOL    HW232325   0.600   0.483   8.362  0.9664  2.2975  0.4219
10153SOL     OW32326   6.342   0.130   7.927  0.1642  0.1795  0.1930
10153SOL    HW132327   6.346   0.140   8.022  1.5585 -0.1055  0.1983
10153SOL    HW232328   6.264   0.077   7.911  0.1962 -0.2015  1.2227
10154SOL     OW32329   8.250   1.626   6.962 -0.4948 -0.6885 -0.3877
10154SOL    HW132330   8.180   1.572   6.998  0.0016 -1.3864 -0.4479
10154SOL    HW232331   8.289   1.669   7.038  0.5125 -2.1101 -0.0387
10155SOL     OW32332   6.762   8.198   2.594 -0.6507 -0.2725 -0.1781
10155SOL    HW132333   6.729   8.192   2.683 -1.2225 -0.2982 -0.3880
10155SOL    HW232334   6.857   8.203   2.604 -0.7063 -0.3537  0.4251
10156SOL     OW32335   5.851   4.947   7.827 -0.2684  0.1035  0.3048
10156SOL    HW132336   5.867   4.893   7.905 -1.7101  0.7611  1.0984
10156SOL    HW232337   5.936   4.986   7.808  0.1545 -0.2021  1.4460
10157SOL     OW32338   2.955   1.200   0.204  0.1253 -0.0186  0.3582
10157SOL    HW132339   2.919   1.139   0.140  0.0066  1.1088 -0.6855
10157SOL    HW232340   3.039   1.161   0.230  1.5120  0.7744 -2.5404
10158SOL     OW32341   2.938   5.777   3.702  0.0641 -0.3451  0.2123
10158SOL    HW132342   2.962   5.728   3.781  0.3429 -0.2687  0.1777
10158SOL    HW232343   2.968   5.866   3.719  0.6545 -0.4530 -0.2113
10159SOL     OW32344   3.563   2.871   4.102  0.2047  0.4574  0.1859
10159SOL    HW132345   3.491   2.824   4.144 -1.5605  2.8187 -0.0212
10159SOL    HW232346   3.611   2.911   4.175 -0.1539  0.8746  0.1928
10160SOL     OW32347   6.409   6.085   5.337 -0.1255  0.0888 -0.3357
10160SOL    HW132348   6.335   6.101   5.280  0.7263 -0.9996 -1.8154
10160SOL    HW232349   6.441   5.999   5.312  1.0105  0.0868  0.9791
10161SOL     OW32350   7.702   3.293   2.665 -0.4505 -0.3563 -0.4800
10161SOL    HW132351   7.739   3.350   2.733 -0.3538 -1.2982  0.2921
10161SOL    HW232352   7.670   3.353   2.598 -0.6224  0.6182  0.4340
10162SOL     OW32353   8.318   2.255   1.129  0.2289 -0.3396  0.6005
10162SOL    HW132354   8.402   2.243   1.174  0.6816  0.7808  0.0963
10162SOL    HW232355   8.275   2.169   1.134  0.0477 -0.1830  3.5503
10163SOL     OW32356   7.933   5.426   4.287 -0.5981  0.0766 -0.0753
10163SOL    HW132357   7.905   5.484   4.358 -0.2387 -1.1851  1.1418
10163SOL    HW232358   7.863   5.433   4.222 -0.6554  1.7044  0.1123
10164SOL     OW32359   4.190   0.693   7.268  0.3071 -0.2276  0.2145
10164SOL    HW132360   4.095   0.692   7.253  0.1614 -1.5304  1.0466
10164SOL    HW232361   4.227   0.656   7.188 -0.2025 -3.4986  1.3444
10165SOL     OW32362   7.811   5.428   2.984  0.0356 -0.1094 -0.1305
10165SOL    HW132363   7.782   5.513   3.019 -1.5248 -0.8476  0.4574
10165SOL    HW232364   7.895   5.412   3.028 -1.1056 -0.2603  2.1556
10166SOL     OW32365   2.189   2.555   4.439  0.2433  0.3802  0.1383
10166SOL    HW132366   2.250   2.516   4.502  0.6539  1.0881  0.1941
10166SOL    HW232367   2.102   2.542   4.478  0.4063 -0.0923  0.3521
10167SOL     OW32368   8.573   0.521   6.633  0.7067  0.9084 -0.5761
10167SOL    HW132369   8.559   0.592   6.695 -0.3373 -0.2525  0.5788
10167SOL    HW232370   8.492   0.469   6.637  0.9976  0.2630 -2.2070
10168SOL     OW32371   4.705   8.840   7.684 -0.4183 -0.1254  0.9417
10168SOL    HW132372   4.628   8.867   7.634  0.0020 -1.1195 -0.2927
10168SOL    HW232373   4.728   8.917   7.737  0.1501  1.6441 -1.6900
10169SOL     OW32374   2.958   7.490   2.882  0.5187 -0.4217 -0.3915
10169SOL    HW132375   2.912   7.423   2.933 -0.8129  0.7052 -0.0632
10169SOL    HW232376   2.975   7.447   2.798 -1.2567 -0.8605 -0.5694
10170SOL     OW32377   0.457   3.120   6.963  0.1846  0.3000  0.3958
10170SOL    HW132378   0.415   3.186   7.018  1.3704 -0.1875  1.9374
10170SOL    HW232379   0.550   3.140   6.967  0.2983  0.4163 -1.6983
10171SOL     OW32380   8.733   6.751   6.219  0.6791 -0.2912 -0.4531
10171SOL    HW132381   8.660   6.783   6.166 -0.0086 -1.1840 -0.0787
10171SOL    HW232382   8.754   6.823   6.277  0.9585  0.4403 -1.4306
10172SOL     OW32383   7.756   1.641   4.725  0.7728 -0.3470  0.2206
10172SOL    HW132384   7.782   1.643   4.633 -0.7598  1.2277 -0.2414
10172SOL    HW232385   7.807   1.711   4.766  0.1967  0.1244  0.1567
10173SOL     OW32386   1.464   2.642   7.256  0.3057  0.0189 -0.2387
10173SOL    HW132387   1.453   2.695   7.335 -0.5240 -0.6825  0.1363
10173SOL    HW232388   1.390   2.664   7.201  0.7367  0.3040 -0.7118
10174SOL     OW32389   5.174   5.966   4.782 -0.0759 -0.1206  0.7574
10174SOL    HW132390   5.214   5.880   4.797 -0.0282 -0.0854  0.8314
10174SOL    HW232391   5.248   6.027   4.785  0.2444 -0.3117 -1.4960
10175SOL     OW32392   2.220   4.563   5.904 -0.1968 -0.0205 -0.0374
10175SOL    HW132393   2.125   4.561   5.890 -0.5387  0.3808  1.9527
10175SOL    HW232394   2.242   4.656   5.904  0.2408 -0.1150 -0.5995
10176SOL     OW32395   3.612   5.243   6.126  0.1454 -0.4328 -0.3187
10176SOL    HW132396   3.583   5.196   6.205  0.5933 -0.4052 -0.1352
10176SOL    HW232397   3.697   5.279   6.149  0.0787 -0.0385 -0.6666
10177SOL     OW32398   7.841   7.913   6.645  0.4253 -0.2257  0.5709
10177SOL    HW132399   7.862   8.004   6.625  0.7447 -0.3451  0.3509
10177SOL    HW232400   7.911   7.884   6.703  1.9185 -1.1501 -1.5747
10178SOL     OW32401   1.084   3.824   8.147  0.5215 -0.0612 -0.1780
10178SOL    HW132402   1.139   3.789   8.218  0.8570  0.5266 -0.1474
10178SOL    HW232403   1.023   3.753   8.128 -2.6640  1.2058  3.8277
10179SOL     OW32404   7.926   1.601   7.339 -0.0142  0.2001 -0.4036
10179SOL    HW132405   7.976   1.575   7.262  0.7199  1.8417 -0.5364
10179SOL    HW232406   7.837   1.613   7.307  0.2262  0.5860 -0.9440
10180SOL     OW32407   3.583   7.716   7.277 -0.2489  0.2689 -0.0524
10180SOL    HW132408   3.590   7.632   7.231  0.0794  1.2415 -1.8714
10180SOL    HW232409   3.489   7.731   7.285 -0.3426 -0.8555  1.4997
10181SOL     OW32410   4.261   0.707   8.330  0.0935 -0.1172  0.3812
10181SOL    HW132411   4.272   0.720   8.425  0.4503  0.6013  0.2502
10181SOL    HW232412   4.253   0.613   8.319 -1.9946 -0.1154  1.3596
10182SOL     OW32413   3.451   2.275   6.462  0.4462 -1.0708 -0.1840
10182SOL    HW132414   3.369   2.226   6.462 -0.1098 -0.1844 -1.0342
10182SOL    HW232415   3.424   2.365   6.443  1.5229 -0.5882  0.5234
10183SOL     OW32416   4.901   0.015   2.380  0.3085  0.2114 -0.4945
10183SOL    HW132417   4.947  -0.058   2.422  0.0753 -0.2050 -0.9587
10183SOL    HW232418   4.813   0.014   2.418  0.4014  0.4503 -0.2690
10184SOL     OW32419   6.887   2.634   7.665 -0.6111 -0.1685 -0.0586
10184SOL    HW132420   6.921   2.723   7.659 -0.9822 -0.0802 -1.1359
10184SOL    HW232421   6.901   2.608   7.756 -1.7239  1.4729  0.6117
10185SOL     OW32422   8.285   0.699   5.893  0.0412  0.3542  0.5078
10185SOL    HW132423   8.215   0.685   5.831  0.4065  1.6165 -0.2252
10185SOL    HW232424   8.363   0.716   5.839  1.2125 -2.0746  1.2632
10186SOL     OW32425   6.513   5.795   6.213  0.2731 -0.1799  0.1072
10186SOL    HW132426   6.486   5.885   6.195  0.3922 -0.3818 -1.1866
10186SOL    HW232427   6.601   5.803   6.249  0.3079  0.2173 -0.0627
10187SOL     OW32428   7.117   0.929   3.717 -0.1608  0.8522  0.2960
10187SOL    HW132429   7.131   1.000   3.654 -0.5060  1.5717  1.0125
10187SOL    HW232430   7.121   0.972   3.802  0.4219 -0.1251  0.7830
10188SOL     OW32431   8.951   8.990   4.042 -0.2026  0.4805  0.5770
10188SOL    HW132432   8.878   8.995   3.980 -0.2695 -1.4169  0.4284
10188SOL    HW232433   8.933   9.059   4.106 -2.0578  0.1600  0.4555
10189SOL     OW32434   1.410   5.659   1.627 -0.0029 -0.0792  0.5576
10189SOL    HW132435   1.386   5.632   1.539 -0.6907 -1.7080  1.1988
10189SOL    HW232436   1.505   5.648   1.630 -0.0146 -0.3115  0.1090
10190SOL     OW32437   0.244   6.021   1.400  0.7191 -0.4433  0.1663
10190SOL    HW132438   0.298   6.098   1.388 -2.2840  1.8826  0.3638
10190SOL    HW232439   0.165   6.038   1.347 -1.6394 -1.6627  3.0061
10191SOL     OW32440   7.647   0.267   4.406  0.8366 -0.5187 -0.0340
10191SOL    HW132441   7.657   0.177   4.436 -1.3516 -1.6142 -2.2180
10191SOL    HW232442   7.583   0.262   4.335  0.1428  2.8675  0.1702
10192SOL     OW32443   3.464   8.150   7.547 -0.3907 -0.1394 -0.3206
10192SOL    HW132444   3.386   8.203   7.529 -0.3427  0.0203 -0.0660
10192SOL    HW232445   3.518   8.205   7.604  0.3931  0.1723 -1.3449
10193SOL     OW32446   4.864   0.769   4.386  0.4741  0.2163  0.3013
10193SOL    HW132447   4.876   0.863   4.369  0.5040 -0.0195 -1.0492
10193SOL    HW232448   4.851   0.764   4.481 -0.9049  1.7368  0.2326
10194SOL     OW32449   1.816   7.496   0.453  0.0130  0.2474 -0.7672
10194SOL    HW132450   1.801   7.517   0.545 -0.5264  0.9546 -1.0083
10194SOL    HW232451   1.909   7.474   0.448  0.0145  0.0448 -0.0288
10195SOL     OW32452   3.773   6.576   0.818 -0.0289 -0.0676 -0.3539
10195SOL    HW132453   3.681   6.595   0.799 -0.2435 -0.4867  0.2564
10195SOL    HW232454   3.817   6.590   0.734 -0.3589  1.8984 -0.2663
10196SOL     OW32455   0.863   8.340   2.565  0.5237 -0.1552 -0.1440
10196SOL    HW132456   0.785   8.367   2.515  2.2833  0.8781 -2.5313
10196SOL    HW232457   0.883   8.253   2.531  0.1651 -0.6238  0.8214
10197SOL     OW32458   2.480   5.177   6.810  0.3467 -0.5450  0.2766
10197SOL    HW132459   2.416   5.166   6.880 -0.2543 -2.0190 -0.4635
10197SOL    HW232460   2.432   5.223   6.741  0.6205 -0.0669  0.3994
10198SOL     OW32461   5.249   3.996   0.598 -0.1994  0.1363  0.1882
10198SOL    HW132462   5.224   4.022   0.686 -0.7632  1.0180 -0.2260
10198SOL    HW232463   5.301   4.069   0.565  1.6118 -0.9604  0.4362
10199SOL     OW32464   2.633   2.520   0.641  0.4479 -0.1296  0.2089
10199SOL    HW132465   2.625   2.604   0.596  3.3982 -0.5113 -1.3376
10199SOL    HW232466   2.623   2.455   0.571  4.7907 -0.7537 -0.1514
10200SOL     OW32467   5.819   8.789   7.963 -0.6191  0.0768 -0.2170
10200SOL    HW132468   5.787   8.767   7.875 -0.1372 -0.3578 -0.2822
10200SOL    HW232469   5.842   8.882   7.958  0.2661 -0.1696 -0.8065
10201SOL     OW32470   7.668   5.613   3.336 -0.0577 -0.4392 -0.3664
10201SOL    HW132471   7.591   5.671   3.343  0.1771 -0.3104  1.9562
10201SOL    HW232472   7.639   5.531   3.376  0.6183 -0.8422 -0.6934
10202SOL     OW32473   6.694   5.059   7.830 -0.4380 -0.4874 -0.3513
10202SOL    HW132474   6.648   5.021   7.755 -0.0038 -1.4263 -0.1542
10202SOL    HW232475   6.645   5.027   7.906 -0.1101 -0.5963 -0.1873
10203SOL     OW32476   3.056   5.906   4.557 -0.0004 -0.1008 -0.0983
10203SOL    HW132477   3.082   5.930   4.646 -0.3861  0.8218 -0.2230
10203SOL    HW232478   3.050   5.990   4.511  0.5095 -0.5874 -1.0847
10204SOL     OW32479   2.731   5.179   8.705 -0.6877  0.0808 -0.0259
10204SOL    HW132480   2.798   5.197   8.639 -1.3310  1.8599 -0.2316
10204SOL    HW232481   2.693   5.095   8.677 -0.9239  0.7640 -1.9465
10205SOL     OW32482   3.269   1.469   8.499  0.7670 -0.3981 -0.4338
10205SOL    HW132483   3.287   1.388   8.546  1.6860  0.4631  0.7311
10205SOL    HW232484   3.187   1.451   8.452 -0.4827 -1.1303  1.8878
10206SOL     OW32485   5.924   7.142   5.576 -0.0052  0.6414  0.0817
10206SOL    HW132486   5.892   7.185   5.497 -0.5097 -1.0691 -0.6884
10206SOL    HW232487   6.016   7.122   5.557  0.2400  1.3845  0.4540
10207SOL     OW32488   8.293   1.141   7.099  0.0008 -0.2618 -0.0818
10207SOL    HW132489   8.232   1.213   7.114  0.7349  0.1706  0.9792
10207SOL    HW232490   8.345   1.168   7.023 -2.5830 -1.6708 -2.5604
10208SOL     OW32491   6.668   4.540   5.847  0.3180 -0.0476 -0.6805
10208SOL    HW132492   6.651   4.470   5.910  0.8810 -0.2233 -0.7168
10208SOL    HW232493   6.633   4.619   5.889  1.0533 -0.0914  0.0436
10209SOL     OW32494   0.443   2.136   2.637  0.2288  0.0962  0.0089
10209SOL    HW132495   0.520   2.112   2.586  0.0176 -0.7237  0.0724
10209SOL    HW232496   0.369   2.098   2.590 -0.0760  0.2690  0.3366
10210SOL     OW32497   8.944   4.957   3.324  0.5133  0.0970 -0.0443
10210SOL    HW132498   8.935   4.864   3.345  0.7094 -0.0764 -0.6904
10210SOL    HW232499   8.958   4.959   3.229  2.6354  0.6239  0.2111
10211SOL     OW32500   8.856   8.479   7.002 -0.0243 -0.3064  0.3724
10211SOL    HW132501   8.936   8.471   7.054  0.9406 -1.8362 -1.2203
10211SOL    HW232502   8.863   8.565   6.962  1.0686 -0.5695 -0.0571
10212SOL     OW32503   5.028   7.669   7.821 -1.0053  0.1715  1.0811
10212SOL    HW132504   5.104   7.619   7.851 -2.1839 -1.8980  0.7979
10212SOL    HW232505   5.001   7.721   7.897  1.1315  1.6214  0.9483
10213SOL     OW32506   7.642   0.800   0.772  0.2258  0.3959  0.0392
10213SOL    HW132507   7.673   0.740   0.840 -0.3494 -1.3794 -1.1683
10213SOL    HW232508   7.613   0.878   0.819 -1.2072 -1.2004  1.9586
10214SOL     OW32509   3.699   7.334   7.469 -0.2068  0.6460 -0.3641
10214SOL    HW132510   3.773   7.283   7.503 -1.6781 -0.2777  1.6871
10214SOL    HW232511   3.708   7.329   7.374  2.9208  1.4770 -0.2003
10215SOL     OW32512   7.467   6.912   4.038 -0.0586 -0.2217 -0.5394
10215SOL    HW132513   7.515   6.840   3.998 -0.5513 -0.6181 -0.4192
10215SOL    HW232514   7.474   6.896   4.132 -1.8555 -1.2391 -0.5427
10216SOL     OW32515   3.576   6.596   0.382  1.2242 -0.1324 -0.1746
10216SOL    HW132516   3.524   6.528   0.340  1.4641 -0.7470  0.4945
10216SOL    HW232517   3.521   6.675   0.376  0.0030 -0.8548  0.8910
10217SOL     OW32518   6.626   1.233   5.453 -0.3822  0.2053  0.0495
10217SOL    HW132519   6.604   1.310   5.505  1.5746  0.7300  0.1734
10217SOL    HW232520   6.698   1.191   5.501  0.0075 -0.5085 -1.1083
10218SOL     OW32521   5.828   3.767   7.736 -0.2287 -0.8193  0.2452
10218SOL    HW132522   5.880   3.713   7.676 -0.2475 -0.7183  0.1354
10218SOL    HW232523   5.804   3.708   7.807  0.6792 -0.6708  0.6882
10219SOL     OW32524   6.613   8.244   5.843  0.4931 -0.1894 -0.0478
10219SOL    HW132525   6.645   8.276   5.927  0.3249 -0.3798  0.0921
10219SOL    HW232526   6.627   8.149   5.847  0.7124 -0.1706 -0.3350
10220SOL     OW32527   0.273   5.441   4.668  0.1679  0.4674  0.5410
10220SOL    HW132528   0.300   5.443   4.760  0.2155  0.0088  0.5415
10220SOL    HW232529   0.322   5.513   4.627  0.7950  0.1438  0.7027
10221SOL     OW32530   4.086   3.449   1.174  0.7552  0.0693  0.4259
10221SOL    HW132531   4.070   3.369   1.224  0.9369  0.8901  1.8443
10221SOL    HW232532   4.003   3.468   1.131 -0.2878  0.8120  2.6182
10222SOL     OW32533   2.868   6.126   4.810  0.4003 -0.3715  0.6502
10222SOL    HW132534   2.956   6.090   4.812  0.3342 -0.5719 -0.0122
10222SOL    HW232535   2.857   6.166   4.896  2.3820  2.6467 -0.3565
10223SOL     OW32536   4.886   8.448   8.352 -0.1773  0.0641  0.2391
10223SOL    HW132537   4.799   8.482   8.373  0.9644  3.7885 -0.3556
10223SOL    HW232538   4.899   8.472   8.261  1.1871 -1.2434  0.0554
10224SOL     OW32539   0.719   3.167   8.016 -0.6110  0.1178 -0.1610
10224SOL    HW132540   0.700   3.200   8.104 -0.8920 -2.2781  0.7638
10224SOL    HW232541   0.808   3.197   7.998 -0.0661 -0.3730  1.5097
10225SOL     OW32542   3.143   8.336   8.081  0.0871 -0.2218  0.0221
10225SOL    HW132543   3.073   8.385   8.124 -1.0897 -0.6586 -1.3093
10225SOL    HW232544   3.127   8.245   8.105 -0.5197 -0.4572 -1.1830
10226SOL     OW32545   1.750   4.115   3.481  0.0752  0.0308  0.0217
10226SOL    HW132546   1.802   4.039   3.455  3.2361  1.7379  0.8485
10226SOL    HW232547   1.776   4.131   3.571 -1.5458  1.3421  0.2912
10227SOL     OW32548   4.415   8.701   4.770  0.4219 -0.5374 -0.3655
10227SOL    HW132549   4.412   8.797   4.772 -1.5435 -0.5633  1.2272
10227SOL    HW232550   4.505   8.680   4.747  0.6739  1.6859 -1.6515
10228SOL     OW32551   4.334   2.963   3.703  0.5302  0.6051 -0.3504
10228SOL    HW132552   4.394   2.902   3.660 -0.8046  0.3933 -2.0123
10228SOL    HW232553   4.379   3.047   3.699  0.6232  0.5167 -1.8634
10229SOL     OW32554   6.870   3.291   6.431  0.7341  0.3127  0.2698
10229SOL    HW132555   6.806   3.319   6.365  0.4169  0.1384  0.4972
10229SOL    HW232556   6.816   3.251   6.499  1.2058 -1.1839 -0.2072
10230SOL     OW32557   2.938   1.803   1.822 -0.2730  0.2256 -0.5307
10230SOL    HW132558   2.940   1.723   1.874  2.0749  0.4984 -0.0424
10230SOL    HW232559   2.981   1.779   1.740  0.5305  0.9720 -0.3442
10231SOL     OW32560   1.491   3.831   0.853 -0.0157 -0.0004 -0.2921
10231SOL    HW132561   1.440   3.864   0.779 -0.4461  0.0616  0.0293
10231SOL    HW232562   1.452   3.747   0.874  0.4614 -0.2719 -0.4854
10232SOL     OW32563   4.414   4.390   7.608 -0.6577 -0.1059  0.0312
10232SOL    HW132564   4.497   4.437   7.609 -0.4640 -0.1604 -3.0231
10232SOL    HW232565   4.363   4.432   7.538 -2.6399 -0.9969  0.8555
10233SOL     OW32566   0.902   8.107   8.256 -0.9967  0.2780  0.0273
10233SOL    HW132567   0.975   8.167   8.274 -0.3836 -0.5213  0.2751
10233SOL    HW232568   0.826   8.164   8.244 -0.3708  1.1151 -0.0286
10234SOL     OW32569   0.795   5.133   7.838 -0.4097 -0.3583  0.1538
10234SOL    HW132570   0.867   5.103   7.782 -0.4521 -0.8763  0.3757
10234SOL    HW232571   0.763   5.212   7.795  0.2083 -0.1943 -0.0213
10235SOL     OW32572   7.192   8.118   1.796 -0.1077 -0.0116 -0.3380
10235SOL    HW132573   7.283   8.129   1.769  0.7571  0.3201  2.4124
10235SOL    HW232574   7.176   8.191   1.856 -1.6279 -1.0395  0.5655
10236SOL     OW32575   7.265   3.065   7.131 -0.0529  0.8518  0.2372
10236SOL    HW132576   7.306   3.094   7.049  1.2930 -2.3184 -0.3846
10236SOL    HW232577   7.320   3.102   7.199  2.6008 -1.2371 -0.5510
10237SOL     OW32578   3.528   2.288   8.802  0.2395 -0.1766  0.2324
10237SOL    HW132579   3.488   2.370   8.775  2.4642  0.9704  0.2076
10237SOL    HW232580   3.567   2.253   8.721 -0.7710 -1.3563  0.2177
10238SOL     OW32581   3.261   7.393   7.981 -0.3206  0.5478 -0.5419
10238SOL    HW132582   3.186   7.372   8.037  0.4109  1.3677  0.7889
10238SOL    HW232583   3.329   7.423   8.041  1.1005 -0.1689 -1.7183
10239SOL     OW32584   3.478   7.136   2.962 -0.4106 -0.0201  0.0327
10239SOL    HW132585   3.453   7.046   2.981  1.2767 -0.9492 -1.8249
10239SOL    HW232586   3.421   7.163   2.890 -1.1015  0.5489  0.7620
10240SOL     OW32587   5.867   3.826   1.652 -0.4032 -0.0445 -0.0914
10240SOL    HW132588   5.890   3.833   1.559  0.5051 -1.0062  0.0504
10240SOL    HW232589   5.949   3.837   1.699 -0.7217 -0.3798  0.5634
10241SOL     OW32590   4.597   0.452   0.452 -0.1212 -0.0463 -0.5176
10241SOL    HW132591   4.551   0.466   0.369 -1.7240  0.7753  0.4570
10241SOL    HW232592   4.539   0.489   0.518  2.1557  1.5148  0.7814
10242SOL     OW32593   6.836   3.359   5.050  0.3821  0.2350  0.2642
10242SOL    HW132594   6.793   3.294   5.107  2.2279  0.8665  2.5365
10242SOL    HW232595   6.825   3.324   4.961 -0.1803 -2.3031  1.2442
10243SOL     OW32596   1.645   5.135   6.761  0.1692  0.1636 -0.2304
10243SOL    HW132597   1.734   5.103   6.775  0.1593  0.1931 -0.1046
10243SOL    HW232598   1.595   5.055   6.743  0.2132  0.1428 -0.2612
10244SOL     OW32599   4.570   4.209   1.024  0.3096 -0.6804  0.0280
10244SOL    HW132600   4.648   4.193   0.972  1.4410 -0.7803  1.6933
10244SOL    HW232601   4.531   4.288   0.985  2.1369  0.3302  0.1643
10245SOL     OW32602   8.072   7.945   1.260 -0.1161  0.6011  0.1407
10245SOL    HW132603   8.065   7.874   1.197  0.5463  1.5720 -1.0758
10245SOL    HW232604   8.078   7.902   1.345  0.0945 -0.7770 -0.5514
10246SOL     OW32605   1.451   3.389   3.270  0.1616  0.7501  0.2742
10246SOL    HW132606   1.400   3.338   3.332  0.8695 -0.6098 -0.2294
10246SOL    HW232607   1.392   3.402   3.196  0.0642  0.4254  0.2927
10247SOL     OW32608   2.291   1.234   1.612 -0.4368 -0.2469 -0.1025
10247SOL    HW132609   2.360   1.276   1.664  0.4637 -1.0364 -0.6264
10247SOL    HW232610   2.335   1.163   1.566 -1.7157 -1.1350 -0.0279
10248SOL     OW32611   3.987   8.403   0.177 -0.4314 -0.0913 -0.2982
10248SOL    HW132612   3.960   8.446   0.259 -1.6732 -1.0484 -0.1807
10248SOL    HW232613   4.011   8.315   0.203  0.7511  0.0864 -0.7469
10249SOL     OW32614   8.808   0.918   4.482 -0.1419 -0.5426  0.2308
10249SOL    HW132615   8.772   0.869   4.408  0.8344 -2.6064  1.0537
10249SOL    HW232616   8.731   0.956   4.525 -0.8721 -0.7544 -0.8496
10250SOL     OW32617   7.168   6.377   0.464  0.1807 -0.3664  0.8671
10250SOL    HW132618   7.103   6.436   0.501  0.5849  0.4816  0.2539
10250SOL    HW232619   7.171   6.399   0.371  1.4913 -0.2322  0.9224
10251SOL     OW32620   2.172   7.249   3.310 -0.3359  0.1637  0.1196
10251SOL    HW132621   2.250   7.303   3.323  0.8012 -1.0209 -1.3684
10251SOL    HW232622   2.103   7.311   3.286  0.3614  1.1499  0.6098
10252SOL     OW32623   1.933   4.925   3.575  0.0261  0.3890 -0.2824
10252SOL    HW132624   1.853   4.876   3.592  0.5274 -0.2954  0.1523
10252SOL    HW232625   1.906   4.993   3.514 -1.0110  0.5425  0.3201
10253SOL     OW32626   5.033   0.623   4.135  0.2783  0.6932 -0.5923
10253SOL    HW132627   4.987   0.590   4.212  0.3731  1.6078 -0.1346
10253SOL    HW232628   4.985   0.585   4.061  1.7663 -2.4087 -0.1415
10254SOL     OW32629   5.213   7.868   8.061  0.2953  0.0533 -0.0034
10254SOL    HW132630   5.203   7.903   7.973  1.5729 -2.0054 -1.0509
10254SOL    HW232631   5.134   7.897   8.107 -1.4175 -0.4462 -2.4031
10255SOL     OW32632   4.209   7.199   3.818  0.1832  0.0450 -0.4849
10255SOL    HW132633   4.226   7.291   3.798 -1.3439  0.3446 -0.5293
10255SOL    HW232634   4.136   7.201   3.880  0.8184 -1.1041  0.3310
10256SOL     OW32635   1.969   5.671   7.183  0.5185 -0.2348  0.2084
10256SOL    HW132636   2.025   5.699   7.110 -0.4509 -0.9857 -0.8617
10256SOL    HW232637   2.027   5.619   7.239  1.2842  0.3749  0.0024
10257SOL     OW32638   8.637   5.979   7.204  0.3382  0.4956 -0.0807
10257SOL    HW132639   8.693   5.970   7.281 -1.1181 -2.7970  0.7846
10257SOL    HW232640   8.574   6.048   7.228  1.0941  0.8888  0.8609
10258SOL     OW32641   2.079   7.861   8.964  0.5813  0.2366  0.0609
10258SOL    HW132642   2.045   7.800   8.900 -1.5509  1.4167 -0.0173
10258SOL    HW232643   2.074   7.815   9.048 -1.3076  0.3567  0.0514
10259SOL     OW32644   6.190   3.431   3.153  0.2952 -0.4067  0.0101
10259SOL    HW132645   6.141   3.509   3.181 -0.3041 -1.1561  1.1236
10259SOL    HW232646   6.281   3.461   3.146  0.1454  0.2955  0.8743
10260SOL     OW32647   1.433   6.558   5.517  0.2996  0.2261  0.2636
10260SOL    HW132648   1.438   6.475   5.564  0.7235 -0.2485 -0.6030
10260SOL    HW232649   1.457   6.537   5.427 -0.9170  1.0446 -0.2751
10261SOL     OW32650   4.650   4.913   6.466  0.2065 -0.7453  0.0782
10261SOL    HW132651   4.623   4.843   6.526  1.6461 -2.1049 -0.7820
10261SOL    HW232652   4.743   4.926   6.485 -0.1145  1.2610  0.4908
10262SOL     OW32653   2.868   4.749   5.844  0.6242  0.1021 -0.1408
10262SOL    HW132654   2.938   4.807   5.816  0.4506  0.6764  0.5784
10262SOL    HW232655   2.799   4.761   5.779  0.9273  0.0549 -0.4695
10263SOL     OW32656   5.167   6.178   1.805  0.3872  0.3029 -0.0573
10263SOL    HW132657   5.243   6.206   1.755  0.8992  0.7185  0.9250
10263SOL    HW232658   5.111   6.134   1.741  2.4073 -1.9529 -0.4035
10264SOL     OW32659   6.357   2.745   5.177 -0.2079 -0.0418  0.2903
10264SOL    HW132660   6.422   2.688   5.136  0.4609  0.1852  0.9926
10264SOL    HW232661   6.281   2.689   5.191  0.7221 -1.0176  1.7224
10265SOL     OW32662   6.851   6.447   3.464  0.2880 -0.1650  0.7438
10265SOL    HW132663   6.765   6.458   3.506 -0.0448 -1.2478  0.3851
10265SOL    HW232664   6.913   6.448   3.536  0.1735  2.2091  0.8987
10266SOL     OW32665   5.645   4.483   6.954 -0.1089 -0.5592  0.7961
10266SOL    HW132666   5.697   4.437   6.889  0.7888 -0.1826  1.2278
10266SOL    HW232667   5.702   4.488   7.031 -0.7139  0.0325  1.2167
10267SOL     OW32668   2.879   0.015   4.012 -0.8763 -0.1226  0.3161
10267SOL    HW132669   2.931   0.055   3.942  0.7441 -0.7247  1.1214
10267SOL    HW232670   2.863  -0.074   3.981 -0.9422 -0.1123  0.3202
10268SOL     OW32671   7.828   0.070   2.714  0.7911 -0.1569 -0.2014
10268SOL    HW132672   7.786   0.002   2.661  0.1433  0.1785 -0.1227
10268SOL    HW232673   7.821   0.149   2.662 -0.9342  0.4439  0.8613
10269SOL     OW32674   6.805   7.596   1.011  0.1387 -0.2108 -0.5596
10269SOL    HW132675   6.806   7.504   1.039  0.6766 -0.2579 -0.7144
10269SOL    HW232676   6.713   7.615   0.994  0.1677 -1.1938 -2.0256
10270SOL     OW32677   2.482   5.635   1.554  0.2051 -0.0277  0.3582
10270SOL    HW132678   2.565   5.641   1.507 -0.1032  0.7151 -0.1102
10270SOL    HW232679   2.473   5.720   1.597 -0.4915  0.0340  0.1016
10271SOL     OW32680   5.662   3.373   6.113  0.0423 -0.1829 -0.2673
10271SOL    HW132681   5.688   3.283   6.135 -0.7882 -0.5174 -0.6039
10271SOL    HW232682   5.610   3.402   6.187 -2.2315 -1.0876 -1.4108
10272SOL     OW32683   1.851   2.153   3.403 -0.2127  0.6352  0.2952
10272SOL    HW132684   1.920   2.118   3.347  1.0913  1.0450  1.5847
10272SOL    HW232685   1.839   2.243   3.373 -0.5248  0.4250 -0.2243
10273SOL     OW32686   0.828   3.825   5.039 -0.4517 -0.0867  0.2094
10273SOL    HW132687   0.833   3.747   4.985  1.8891 -0.1263  0.3800
10273SOL    HW232688   0.844   3.898   4.978 -0.1483  0.0544  0.4545
10274SOL     OW32689   6.926   1.449   5.870 -0.3448 -0.0045  0.2279
10274SOL    HW132690   6.949   1.541   5.855  1.6141 -0.4357  0.3314
10274SOL    HW232691   6.956   1.404   5.792 -0.8644 -0.6277  0.3844
10275SOL     OW32692   4.591   0.116   4.341  0.1426  0.5447  0.1731
10275SOL    HW132693   4.655   0.144   4.275 -2.4318  2.1180 -1.8718
10275SOL    HW232694   4.614   0.025   4.359  4.0774  1.5470  1.0893
10276SOL     OW32695   0.031   4.406   3.239  0.2882 -0.4850 -0.0416
10276SOL    HW132696   0.093   4.413   3.167  1.4746  2.6789  1.0969
10276SOL    HW232697   0.085   4.382   3.315  0.5856  3.3416  1.1927
10277SOL     OW32698   0.341   1.219   4.680  0.0069 -0.3671  0.1695
10277SOL    HW132699   0.250   1.206   4.708 -0.4753  0.8408 -0.7578
10277SOL    HW232700   0.388   1.244   4.759 -0.2941 -1.6978  0.8029
10278SOL     OW32701   8.069   3.732   0.187 -0.6077 -0.2206 -0.0509
10278SOL    HW132702   8.132   3.772   0.247  0.9395 -2.6299  0.0947
10278SOL    HW232703   8.016   3.676   0.243 -0.4292 -1.0041 -0.6493
10279SOL     OW32704   2.042   1.701   5.320 -0.7098  0.3541 -0.4130
10279SOL    HW132705   2.122   1.755   5.321 -0.2943 -0.2302  1.2342
10279SOL    HW232706   1.984   1.743   5.382 -0.1753 -1.3356  1.3165
10280SOL     OW32707   8.015   3.544   3.996  0.1412 -0.7085  0.6989
10280SOL    HW132708   8.110   3.535   3.984 -0.1508 -1.3159 -1.6019
10280SOL    HW232709   7.980   3.458   3.975 -1.0049 -0.1142  0.0613
10281SOL     OW32710   3.016   1.117   6.619  0.5784  0.6915  0.0888
10281SOL    HW132711   2.964   1.143   6.695  0.7481 -1.4060  0.9888
10281SOL    HW232712   3.074   1.049   6.652  0.0311 -0.9245 -2.0769
10282SOL     OW32713   0.817   5.860   2.732  0.7321 -0.6733 -0.0843
10282SOL    HW132714   0.826   5.768   2.755 -0.1100 -0.7272  0.0883
10282SOL    HW232715   0.824   5.907   2.815 -0.2127 -0.7015  0.0236
10283SOL     OW32716   2.790   5.450   8.978  0.0702  0.3052  0.2772
10283SOL    HW132717   2.845   5.396   8.920 -0.7987  0.1310 -0.4161
10283SOL    HW232718   2.703   5.444   8.939 -0.3555  0.9148  1.1208
10284SOL     OW32719   3.462   8.820   8.330  0.2031  0.4420  0.0016
10284SOL    HW132720   3.387   8.835   8.387 -1.1727 -0.6532 -1.4268
10284SOL    HW232721   3.438   8.862   8.247  1.7621  1.2140 -0.0988
10285SOL     OW32722   6.436   2.866   0.507 -0.2790  0.4400 -0.3678
10285SOL    HW132723   6.435   2.857   0.602 -0.7857 -0.9100 -0.4725
10285SOL    HW232724   6.509   2.810   0.479 -0.9240 -0.2015 -0.8309
10286SOL     OW32725   0.218   6.195   7.012  0.5117 -0.1263 -0.0821
10286SOL    HW132726   0.312   6.180   7.021  0.7386  0.4340 -1.3056
10286SOL    HW232727   0.210   6.255   6.938 -0.8865 -1.1937 -0.8618
10287SOL     OW32728   0.663   3.541   5.111 -0.0797  0.6795  0.1833
10287SOL    HW132729   0.588   3.596   5.088  0.1778  0.7466 -0.5174
10287SOL    HW232730   0.709   3.590   5.179  1.3100  2.3623 -1.8547
10288SOL     OW32731   2.529   4.003   3.146  0.3575 -0.2468 -0.0384
10288SOL    HW132732   2.573   3.959   3.073  1.1757 -0.4289  0.5463
10288SOL    HW232733   2.577   3.974   3.223  0.0395  0.6059  0.4896
10289SOL     OW32734   8.320   2.066   2.660 -0.2585 -0.6210  0.0659
10289SOL    HW132735   8.348   2.025   2.578  1.3294 -1.4190  0.9624
10289SOL    HW232736   8.305   2.158   2.637  1.5110 -0.5262 -0.8591
10290SOL     OW32737   0.652   4.553   4.352  0.2143 -0.2194 -0.6964
10290SOL    HW132738   0.674   4.540   4.444  0.0305 -0.8155 -0.7325
10290SOL    HW232739   0.709   4.493   4.305  0.2409  0.0157 -0.9712
10291SOL     OW32740   6.632   2.915   2.144  0.2323  0.7900  0.1462
10291SOL    HW132741   6.631   2.902   2.239 -0.2197  1.7691  0.2901
10291SOL    HW232742   6.599   2.832   2.109 -0.7238  0.8180  0.9131
10292SOL     OW32743   1.999   7.101   0.622 -0.2674  0.4879 -0.3433
10292SOL    HW132744   2.070   7.040   0.604 -0.6644  0.3405 -1.4603
10292SOL    HW232745   2.019   7.178   0.568  0.3650  1.4887  1.2357
10293SOL     OW32746   0.466   3.767   1.168 -0.3133  0.1922  0.6246
10293SOL    HW132747   0.524   3.717   1.227  1.9251  0.9053 -0.8338
10293SOL    HW232748   0.449   3.707   1.095 -1.5617 -0.0535  1.1004
10294SOL     OW32749   7.386   1.858   0.938  0.1085  0.2625  0.5375
10294SOL    HW132750   7.322   1.879   1.006 -1.1067  0.8127 -0.7416
10294SOL    HW232751   7.379   1.929   0.875  0.7005 -0.5880 -0.5247
10295SOL     OW32752   6.925   7.772   1.166 -0.3688 -0.4811 -0.0232
10295SOL    HW132753   7.013   7.757   1.130 -0.0015  0.2364  0.5529
10295SOL    HW232754   6.868   7.718   1.111  0.4834 -1.3324 -0.1074
10296SOL     OW32755   2.953   4.864   6.631 -0.3991 -0.2130  0.2877
10296SOL    HW132756   3.023   4.805   6.658  0.9020  1.2487  0.2272
10296SOL    HW232757   2.967   4.944   6.681 -1.1295  0.6461 -0.8199
10297SOL     OW32758   5.694   7.604   0.705  0.2611 -0.1510 -0.1243
10297SOL    HW132759   5.643   7.681   0.732 -1.7882 -0.0666 -3.6746
10297SOL    HW232760   5.771   7.640   0.662  0.8321 -0.1882  0.8424
10298SOL     OW32761   7.927   4.554   8.843  0.1169 -0.9390 -0.3237
10298SOL    HW132762   7.916   4.649   8.851  2.2503 -0.4875 -1.9751
10298SOL    HW232763   7.849   4.518   8.885 -1.3859  1.5533 -0.7499
10299SOL     OW32764   7.523   2.237   2.469  0.2503  0.1919 -0.4021
10299SOL    HW132765   7.443   2.202   2.430 -0.8374  3.1021 -1.0988
10299SOL    HW232766   7.492   2.295   2.539  1.9761 -1.1747  1.6118
10300SOL     OW32767   7.922   0.289   8.542  0.1902  0.6894 -0.8585
10300SOL    HW132768   7.882   0.202   8.544  0.0595  0.7624  0.2812
10300SOL    HW232769   7.899   0.324   8.456 -2.0426  0.6544 -0.3360
10301SOL     OW32770   2.298   3.679   0.920  0.0389 -0.1744  0.1738
10301SOL    HW132771   2.392   3.660   0.928 -0.0515 -0.3590  0.8501
10301SOL    HW232772   2.287   3.764   0.963 -0.0933 -0.1144  0.0231
10302SOL     OW32773   2.456   2.289   0.107 -0.0172  0.3085  0.1974
10302SOL    HW132774   2.550   2.282   0.123 -0.1278  1.9770  1.9211
10302SOL    HW232775   2.417   2.290   0.194 -1.4498  1.6122 -0.4256
10303SOL     OW32776   6.354   3.544   8.009  0.1139  0.3817 -0.0953
10303SOL    HW132777   6.348   3.631   8.048 -1.6900  0.2228  0.0874
10303SOL    HW232778   6.406   3.557   7.930  1.9737  1.1194  1.1938
10304SOL     OW32779   4.743   0.625   5.367  0.3460  0.1014 -0.0582
10304SOL    HW132780   4.833   0.593   5.373  0.6245  0.6789 -0.8829
10304SOL    HW232781   4.706   0.577   5.294 -0.3997 -0.9792  1.0015
10305SOL     OW32782   0.960   4.059   6.342 -0.2564  0.5137 -0.0795
10305SOL    HW132783   0.939   3.996   6.272 -0.3745 -0.3341  0.7016
10305SOL    HW232784   0.874   4.087   6.375 -0.1925  0.3103  0.2573
10306SOL     OW32785   7.486   3.861   7.282 -0.2634 -0.3074  0.0684
10306SOL    HW132786   7.494   3.803   7.357  1.3577 -0.4205 -0.1508
10306SOL    HW232787   7.409   3.914   7.301 -0.8853 -1.4893  0.9863
10307SOL     OW32788   7.299   3.143   8.342 -0.0371 -0.7869  0.0240
10307SOL    HW132789   7.350   3.155   8.262  1.7999 -1.3976  1.0418
10307SOL    HW232790   7.209   3.130   8.312 -0.0316  2.2936 -1.7638
10308SOL     OW32791   7.609   3.516   4.993  0.0576 -0.1857 -0.0697
10308SOL    HW132792   7.611   3.598   5.043  1.4649 -0.0787 -0.2641
10308SOL    HW232793   7.644   3.450   5.052 -0.3548 -0.5034 -0.1727
10309SOL     OW32794   0.663   2.868   6.746 -0.2799  0.3878 -0.2973
10309SOL    HW132795   0.670   2.800   6.680  1.0453 -0.3357  0.5516
10309SOL    HW232796   0.571   2.895   6.743 -2.0269 -4.2349  2.0174
10310SOL     OW32797   7.701   6.059   4.324 -0.3321  0.0829  0.3471
10310SOL    HW132798   7.719   6.106   4.243 -0.0142  0.1418  0.4511
10310SOL    HW232799   7.645   6.118   4.375 -1.7451 -0.5377 -0.4261
10311SOL     OW32800   5.845   2.105   0.739 -0.0686 -0.2708  0.2313
10311SOL    HW132801   5.861   2.031   0.797  0.3783 -1.2151 -1.0338
10311SOL    HW232802   5.890   2.179   0.780  0.6558 -1.0300  0.8203
10312SOL     OW32803   6.361   6.532   4.413  0.2077 -0.5193  0.0599
10312SOL    HW132804   6.433   6.594   4.420  1.3205 -1.8525  0.7381
10312SOL    HW232805   6.359   6.487   4.497 -2.0395  0.0925  0.4274
10313SOL     OW32806   3.730   0.975   4.795  0.0036  0.7133 -0.0497
10313SOL    HW132807   3.682   1.048   4.834  0.3079  0.7024  0.3584
10313SOL    HW232808   3.675   0.899   4.812  0.3131  0.6520  0.7029
10314SOL     OW32809   4.179   5.838   7.977 -0.1401  0.2488  0.3037
10314SOL    HW132810   4.090   5.855   7.945  0.1491  0.0745 -0.6196
10314SOL    HW232811   4.223   5.922   7.971  0.7308 -0.3008 -2.4678
10315SOL     OW32812   0.107   6.002   4.023  0.4260 -0.1151 -0.3261
10315SOL    HW132813   0.021   5.961   4.034  0.9842 -1.4998 -0.8536
10315SOL    HW232814   0.137   6.021   4.112 -0.4316  0.4206 -0.1419
10316SOL     OW32815   8.522   3.849   2.786 -0.4535 -0.0846  0.0933
10316SOL    HW132816   8.578   3.900   2.728  0.9277  0.7387  2.0662
10316SOL    HW232817   8.566   3.852   2.871 -0.9265 -3.5768  0.6058
10317SOL     OW32818   6.874   1.698   0.724  0.4380 -0.4612  0.0889
10317SOL    HW132819   6.814   1.718   0.652  0.1175  0.1139  0.5073
10317SOL    HW232820   6.951   1.752   0.706 -0.5949  1.5731  1.4454
10318SOL     OW32821   6.009   4.558   8.855  0.2851 -0.0387  0.5142
10318SOL    HW132822   5.986   4.475   8.814 -0.6113 -0.0642  1.0307
10318SOL    HW232823   6.028   4.535   8.946 -1.6061  0.5181  1.0902
10319SOL     OW32824   8.751   2.142   0.245 -0.0890 -0.4471 -0.1143
10319SOL    HW132825   8.749   2.079   0.173 -1.9474  0.0932 -0.5957
10319SOL    HW232826   8.768   2.226   0.203 -2.0222  0.0009 -0.0947
10320SOL     OW32827   1.705   4.708   6.209 -0.3284  0.2736  0.1283
10320SOL    HW132828   1.787   4.737   6.170 -0.1098 -0.5857 -0.0736
10320SOL    HW232829   1.730   4.638   6.269 -0.9528 -0.3905 -0.3618
10321SOL     OW32830   5.818   1.905   0.956  0.3641  0.7935 -0.6260
10321SOL    HW132831   5.805   1.861   0.873  0.1833  0.1225 -0.2434
10321SOL    HW232832   5.731   1.937   0.981  0.2199  0.0506 -0.1679
10322SOL     OW32833   5.440   1.849   3.349 -0.4819  0.2508 -0.0928
10322SOL    HW132834   5.404   1.762   3.333 -0.0292  0.4889 -2.9608
10322SOL    HW232835   5.508   1.860   3.283  2.3779  1.2806  2.7185
10323SOL     OW32836   2.855   6.833   8.514 -0.6360 -0.2747  0.0913
10323SOL    HW132837   2.787   6.868   8.457  0.4765  0.8464 -0.5726
10323SOL    HW232838   2.844   6.738   8.509 -2.8316 -0.1173  0.8616
10324SOL     OW32839   7.975   8.955   0.861 -0.0777 -0.0354  0.1864
10324SOL    HW132840   7.964   8.860   0.863 -2.0251  0.1717  2.6869
10324SOL    HW232841   8.057   8.970   0.908 -0.7804 -0.4114  1.5839
10325SOL     OW32842   7.633   4.948   4.890 -0.0544  0.1681 -0.2931
10325SOL    HW132843   7.596   4.878   4.945  1.0731  0.3020  0.6747
10325SOL    HW232844   7.582   5.026   4.914  0.1668  0.1417  0.2861
10326SOL     OW32845   6.203   1.425   1.000 -0.2465 -0.0866  0.3007
10326SOL    HW132846   6.247   1.399   1.080  0.9460  0.3782 -0.1822
10326SOL    HW232847   6.181   1.342   0.956  0.8235 -0.3202  0.1983
10327SOL     OW32848   5.096   7.054   4.608  0.5222 -0.3319 -0.3006
10327SOL    HW132849   5.153   7.066   4.532  3.0554 -3.5567  0.8525
10327SOL    HW232850   5.116   7.128   4.664  0.1540  0.9838 -1.8294
10328SOL     OW32851   5.973   5.224   2.719 -0.1312  0.5405 -0.8121
10328SOL    HW132852   5.887   5.200   2.754  0.4738 -0.0818  0.2783
10328SOL    HW232853   5.953   5.289   2.651 -1.3819  1.5067  0.3963
10329SOL     OW32854   1.541   6.375   2.479 -0.1257 -0.2063  0.1835
10329SOL    HW132855   1.584   6.343   2.558  0.5400  2.5272  1.0204
10329SOL    HW232856   1.604   6.434   2.439 -1.1597 -0.1118 -1.3803
10330SOL     OW32857   5.949   3.206   8.523 -0.0461  0.1619  0.9307
10330SOL    HW132858   5.919   3.118   8.499  0.3923  0.1983  0.2224
10330SOL    HW232859   5.989   3.240   8.443  0.6211  0.6445  1.4618
10331SOL     OW32860   3.385   7.528   6.907 -0.2824 -0.1391  0.2338
10331SOL    HW132861   3.373   7.589   6.833 -0.3887  0.7449  0.9618
10331SOL    HW232862   3.397   7.443   6.866 -0.7515  0.2751 -0.7975
10332SOL     OW32863   0.337   3.180   3.157  0.1588 -0.4644 -0.1583
10332SOL    HW132864   0.365   3.248   3.097 -0.7942  1.5460  1.5311
10332SOL    HW232865   0.394   3.189   3.233  0.5404 -2.1317 -0.2019
10333SOL     OW32866   0.370   5.044   3.703  0.3556 -0.4642 -0.1550
10333SOL    HW132867   0.292   5.028   3.649 -0.1552  2.2459 -0.3731
10333SOL    HW232868   0.432   5.086   3.644  0.9234 -0.1372  0.6532
10334SOL     OW32869   1.231   8.119   2.206  0.3461 -0.7406  0.5770
10334SOL    HW132870   1.152   8.077   2.241  0.1192 -1.1453 -0.3727
10334SOL    HW232871   1.294   8.115   2.277 -0.3968 -0.6642  1.2628
10335SOL     OW32872   8.458   0.584   4.758 -0.0152 -0.2028 -0.0335
10335SOL    HW132873   8.412   0.534   4.825  0.9650 -0.6053  0.3535
10335SOL    HW232874   8.550   0.558   4.768  0.2655  0.4265 -0.9257
10336SOL     OW32875   6.391   7.396   8.683  0.1998 -0.2888  0.0956
10336SOL    HW132876   6.463   7.441   8.727  0.9472 -1.1157 -0.2729
10336SOL    HW232877   6.327   7.379   8.753  0.7627 -0.3652  0.5988
10337SOL     OW32878   2.441   7.310   4.145 -0.4535  0.3497  0.0805
10337SOL    HW132879   2.502   7.343   4.079  0.0753  2.9489  1.7121
10337SOL    HW232880   2.487   7.237   4.186 -0.4042 -0.6810 -1.6904
10338SOL     OW32881   6.192   3.554   7.739  0.2343  0.0496  0.4381
10338SOL    HW132882   6.254   3.494   7.698  0.9151  2.0891 -1.7260
10338SOL    HW232883   6.190   3.527   7.831  3.3829 -0.8841  0.3456
10339SOL     OW32884   0.683   2.556   1.878  0.6020  0.2309  0.1748
10339SOL    HW132885   0.723   2.639   1.855 -0.2691  0.2995 -1.2250
10339SOL    HW232886   0.589   2.574   1.878  0.3260 -1.0227 -1.4135
10340SOL     OW32887   8.139   8.871   6.250  0.2516  0.0645  0.2092
10340SOL    HW132888   8.148   8.799   6.188  0.4473  0.0094  0.3022
10340SOL    HW232889   8.082   8.836   6.319  0.5328 -0.0789  0.3710
10341SOL     OW32890   8.647   6.630   0.186 -0.4914  0.1206 -0.0590
10341SOL    HW132891   8.647   6.538   0.163 -0.0327  0.3441 -0.9665
10341SOL    HW232892   8.729   6.665   0.151  0.0856  0.5532  1.6204
10342SOL     OW32893   0.388   5.268   7.297  0.3479 -0.1691  0.0997
10342SOL    HW132894   0.340   5.327   7.238  1.6547  0.4410 -0.3992
10342SOL    HW232895   0.480   5.282   7.275  0.7616 -1.4775  0.8632
10343SOL     OW32896   5.413   0.536   1.242 -0.0088  0.3445  0.4902
10343SOL    HW132897   5.356   0.608   1.217 -0.8995  0.0512  1.6024
10343SOL    HW232898   5.447   0.502   1.158  0.3374  1.9464 -0.0510
10344SOL     OW32899   0.035   2.230   4.892 -0.4704 -0.5188 -0.0293
10344SOL    HW132900   0.088   2.201   4.817  0.1828  0.8191 -0.1149
10344SOL    HW232901   0.013   2.321   4.872 -1.0945 -0.4344  0.9732
10345SOL     OW32902   4.432   1.429   5.687  0.0719 -0.1127 -0.1914
10345SOL    HW132903   4.443   1.519   5.716 -0.9908 -0.0720  0.1098
10345SOL    HW232904   4.421   1.379   5.767  2.0203 -0.7461 -0.2612
10346SOL     OW32905   6.059   1.627   2.443 -0.2673 -0.3746  0.0990
10346SOL    HW132906   6.042   1.699   2.383  0.7673  1.1289  1.5121
10346SOL    HW232907   5.979   1.575   2.443 -1.0620  0.8105 -0.9244
10347SOL     OW32908   6.030   4.110   0.741 -0.3986 -0.0387  0.4735
10347SOL    HW132909   6.046   4.016   0.748  2.0607  0.3625  1.1580
10347SOL    HW232910   6.098   4.142   0.681  0.1536  1.5792  1.8891
10348SOL     OW32911   8.028   0.515   2.466  0.4543  0.2498  0.8273
10348SOL    HW132912   8.028   0.547   2.376 -1.6674 -1.0450  0.3034
10348SOL    HW232913   8.055   0.591   2.519 -0.3921  1.6743 -0.7038
10349SOL     OW32914   5.832   4.915   7.426 -0.3915  0.0702  0.7077
10349SOL    HW132915   5.897   4.985   7.428 -0.4479  0.1290  0.5723
10349SOL    HW232916   5.768   4.939   7.493 -0.5321  0.2699  0.5044
10350SOL     OW32917   3.019   5.891   5.635 -0.4318 -0.1921 -0.0316
10350SOL    HW132918   3.105   5.930   5.622 -0.9066  0.9934  0.2174
10350SOL    HW232919   2.959   5.948   5.587 -1.0539 -1.1731 -0.4534
10351SOL     OW32920   5.480   6.206   6.793 -0.1023  0.2334  0.2516
10351SOL    HW132921   5.429   6.267   6.740  1.1383  1.1702  0.1020
10351SOL    HW232922   5.463   6.120   6.753 -1.7696  0.4731  0.3987
10352SOL     OW32923   3.810   4.825   1.480  0.2571  0.0362 -0.4764
10352SOL    HW132924   3.803   4.900   1.539  0.2917 -0.3030 -0.0399
10352SOL    HW232925   3.778   4.751   1.531  1.4401 -0.4827 -0.4696
10353SOL     OW32926   6.742   6.074   3.244  0.2512 -0.3470 -0.4211
10353SOL    HW132927   6.726   6.100   3.153  1.5030  0.4485 -0.4391
10353SOL    HW232928   6.800   6.142   3.278 -3.2369  1.6670  2.2090
10354SOL     OW32929   5.886   6.180   1.405 -0.2490 -0.4878 -0.9774
10354SOL    HW132930   5.805   6.210   1.446  0.8799 -0.4779  1.4496
10354SOL    HW232931   5.933   6.260   1.382  0.7841 -0.3386  1.3655
10355SOL     OW32932   4.567   1.569   8.363  0.7202 -0.3816  0.3122
10355SOL    HW132933   4.550   1.476   8.350 -0.2978 -0.4387  1.8679
10355SOL    HW232934   4.485   1.612   8.339  0.4778 -0.0796  1.6388
10356SOL     OW32935   4.484   3.733   7.420 -0.3934 -0.0306 -0.3189
10356SOL    HW132936   4.538   3.698   7.490 -0.6351 -0.6615 -0.4448
10356SOL    HW232937   4.396   3.701   7.439 -0.8958  1.6241  0.3202
10357SOL     OW32938   6.393   0.132   8.801 -0.1537 -0.0710 -0.4710
10357SOL    HW132939   6.380   0.177   8.884 -2.5121  1.7587 -1.7073
10357SOL    HW232940   6.452   0.189   8.752  1.1079 -1.0663 -0.1434
10358SOL     OW32941   7.424   4.980   1.402 -0.4360  0.2910  0.1400
10358SOL    HW132942   7.358   4.952   1.465 -1.6653  2.2866 -0.1676
10358SOL    HW232943   7.393   5.066   1.372  1.1590  0.2881 -1.6813
10359SOL     OW32944   6.570   2.949   1.335 -0.2253 -0.0135  0.0082
10359SOL    HW132945   6.486   2.952   1.289  0.0670 -0.9531 -0.6349
10359SOL    HW232946   6.576   2.858   1.366  0.0542  0.3428  1.0175
10360SOL     OW32947   2.072   1.035   4.492  0.2540  0.5745  1.0715
10360SOL    HW132948   2.098   1.077   4.410 -0.4905 -1.7416 -0.4256
10360SOL    HW232949   2.102   1.096   4.560  2.9130  1.5329 -0.7852
10361SOL     OW32950   0.171   0.390   7.094  0.1847 -0.0078 -0.0755
10361SOL    HW132951   0.078   0.412   7.093  0.4071  1.0273 -0.0334
10361SOL    HW232952   0.175   0.302   7.130 -0.6688  0.6086  1.6821
10362SOL     OW32953   7.042   3.420   5.973  0.8540  0.4065 -0.4375
10362SOL    HW132954   6.993   3.497   6.004  0.9448  0.3296 -0.0996
10362SOL    HW232955   7.003   3.347   6.020  1.2522  0.3357 -0.2129
10363SOL     OW32956   6.516   8.952   5.583  0.1433  0.4299  0.2495
10363SOL    HW132957   6.530   8.879   5.643  2.9457 -1.2835 -2.1950
10363SOL    HW232958   6.461   8.916   5.514 -1.5821  1.8426  0.8146
10364SOL     OW32959   0.738   1.723   0.299  0.5072  0.1392  0.7490
10364SOL    HW132960   0.649   1.701   0.272  0.9057  0.1999 -0.6992
10364SOL    HW232961   0.761   1.657   0.364  0.2141 -1.2753 -0.5427
10365SOL     OW32962   1.369   4.962   2.751  0.1797 -0.2303 -0.1064
10365SOL    HW132963   1.403   4.984   2.664  0.5380 -0.6463 -0.0755
10365SOL    HW232964   1.274   4.956   2.738  0.0986  1.0389 -0.1695
10366SOL     OW32965   7.772   0.580   2.373 -0.4643 -0.0878 -0.1790
10366SOL    HW132966   7.845   0.530   2.411 -0.9608 -1.3079 -0.7965
10366SOL    HW232967   7.814   0.637   2.308  0.2096  0.9778  1.1225
10367SOL     OW32968   8.965   4.128   8.911 -0.0022  0.4955 -0.2106
10367SOL    HW132969   9.007   4.049   8.944 -1.8501 -0.7639 -0.7018
10367SOL    HW232970   9.018   4.153   8.835  0.3697 -0.5185 -0.3011
10368SOL     OW32971   3.494   7.088   3.811 -0.0190  0.1463 -0.2478
10368SOL    HW132972   3.435   7.118   3.743  0.5671 -0.3102 -0.9768
10368SOL    HW232973   3.470   7.139   3.888  0.1494  1.6034 -1.1234
10369SOL     OW32974   7.355   3.367   0.210 -0.4161 -0.3022 -0.4583
10369SOL    HW132975   7.315   3.315   0.140  2.0263 -0.4144 -1.8750
10369SOL    HW232976   7.378   3.303   0.277  1.7758 -1.0413 -1.8150
10370SOL     OW32977   7.795   6.746   2.519 -0.1606  0.1091 -0.2562
10370SOL    HW132978   7.757   6.810   2.459 -0.1881  0.3805  0.0479
10370SOL    HW232979   7.834   6.679   2.462 -0.4823  0.1899 -0.5710
10371SOL     OW32980   1.346   1.258   8.445  0.1702  0.3219  0.9226
10371SOL    HW132981   1.336   1.334   8.501 -0.7603  0.4902  0.5414
10371SOL    HW232982   1.258   1.240   8.411  0.7581  0.4767 -0.8002
10372SOL     OW32983   0.530   6.204   1.583  0.1209  0.3739 -1.0316
10372SOL    HW132984   0.545   6.110   1.576 -1.9975  0.0618 -2.3896
10372SOL    HW232985   0.469   6.224   1.512  0.3091  2.7474 -0.6198
10373SOL     OW32986   4.029   3.484   0.228 -0.4393 -0.0969 -0.3910
10373SOL    HW132987   4.111   3.488   0.179 -0.1389  0.4855  0.1422
10373SOL    HW232988   4.056   3.460   0.317 -0.9663 -1.0924 -0.4872
10374SOL     OW32989   6.466   6.212   3.058  0.4837  0.4094 -0.3965
10374SOL    HW132990   6.462   6.122   3.026  0.2381 -0.3587  1.6466
10374SOL    HW232991   6.552   6.244   3.028  0.3704 -0.3027 -1.5613
10375SOL     OW32992   2.350   5.906   8.357 -0.2539 -0.4828 -0.0403
10375SOL    HW132993   2.347   5.843   8.284  0.4603 -2.9005  1.8879
10375SOL    HW232994   2.409   5.975   8.326  0.0047 -1.4062 -1.7505
10376SOL     OW32995   8.185   8.355   5.187 -0.0526 -0.4559  0.0812
10376SOL    HW132996   8.198   8.388   5.276 -1.0671  3.0338 -0.8804
10376SOL    HW232997   8.100   8.312   5.190 -0.6006  0.6095  0.6280
10377SOL     OW32998   5.752   6.606   2.791  0.4607  0.9169 -0.5737
10377SOL    HW132999   5.807   6.587   2.714 -0.4223  0.8814 -1.2039
10377SOL    HW233000   5.735   6.700   2.785 -1.4190  0.5479 -1.6614
10378SOL     OW33001   2.370   3.628   2.450 -0.1436  0.4652  0.5437
10378SOL    HW133002   2.359   3.558   2.514 -1.7861 -0.5636 -0.7788
10378SOL    HW233003   2.281   3.656   2.429  0.4137  1.6599 -0.3404
10379SOL     OW33004   4.546   1.531   4.729  0.1096  0.4111 -0.2596
10379SOL    HW133005   4.562   1.513   4.636  2.4895 -2.4960  0.5468
10379SOL    HW233006   4.551   1.626   4.736  2.0584  0.6314 -2.7927
10380SOL     OW33007   8.424   4.074   5.286  0.6189  0.0768 -0.3197
10380SOL    HW133008   8.332   4.100   5.280  0.8136  0.5757 -1.7333
10380SOL    HW233009   8.423   3.981   5.267  0.4420  0.1803 -0.8450
10381SOL     OW33010   0.798   2.456   5.192  0.2992  0.1056 -0.2746
10381SOL    HW133011   0.872   2.443   5.133  0.4862  2.1823 -0.5617
10381SOL    HW233012   0.834   2.441   5.279  1.0226  0.9345 -0.4244
10382SOL     OW33013   4.265   0.053   1.957  0.1046 -0.7497  0.1360
10382SOL    HW133014   4.202   0.111   2.001  1.9777  0.4265  1.3946
10382SOL    HW233015   4.261   0.081   1.865  0.5992  1.0939  0.6230
10383SOL     OW33016   2.775   7.098   0.165 -0.0781  0.5463  0.2047
10383SOL    HW133017   2.778   7.169   0.229  1.8360  0.9162 -0.2411
10383SOL    HW233018   2.763   7.141   0.081  2.1307  0.4961 -0.1927
10384SOL     OW33019   0.402   1.266   8.189 -0.2021  0.2812  0.3644
10384SOL    HW133020   0.332   1.233   8.245  0.1128  0.2058  0.7202
10384SOL    HW233021   0.374   1.246   8.100  0.6668 -2.3807  0.5896
10385SOL     OW33022   3.131   7.495   6.443  0.1739 -0.8203 -0.0298
10385SOL    HW133023   3.214   7.492   6.395  1.0398 -0.3365  1.3567
10385SOL    HW233024   3.132   7.579   6.487 -1.1771 -0.7248 -0.1614
10386SOL     OW33025   3.998   4.791   6.204  0.0624  0.2502 -0.1175
10386SOL    HW133026   3.927   4.728   6.217 -0.1554  0.4320 -0.4231
10386SOL    HW233027   4.069   4.758   6.259 -0.8577  1.0588  1.6641
10387SOL     OW33028   8.949   6.416   0.315  0.2355  0.2091  0.4120
10387SOL    HW133029   8.936   6.511   0.319  0.6711  0.2583  0.8005
10387SOL    HW233030   8.923   6.385   0.402 -1.0927 -0.1915 -0.1069
10388SOL     OW33031   2.536   2.390   3.136 -0.3690 -0.6299 -0.6605
10388SOL    HW133032   2.614   2.407   3.083 -0.2668  1.4015  0.0467
10388SOL    HW233033   2.519   2.473   3.180 -1.1963 -1.8848  1.5215
10389SOL     OW33034   8.990   0.738   7.786  0.6370 -1.0302  0.1512
10389SOL    HW133035   9.015   0.647   7.803 -0.4252 -1.3491  0.0797
10389SOL    HW233036   8.962   0.772   7.871 -1.8647 -1.7298 -0.3055
10390SOL     OW33037   8.341   1.630   0.731 -0.6552 -0.3772  0.1900
10390SOL    HW133038   8.314   1.609   0.642 -1.6007 -2.3652  0.8904
10390SOL    HW233039   8.436   1.619   0.730 -0.3401  1.7611 -1.0437
10391SOL     OW33040   2.843   5.685   0.331  0.3301  0.1241  0.2756
10391SOL    HW133041   2.900   5.741   0.385 -0.3181  0.0430  1.0639
10391SOL    HW233042   2.764   5.672   0.384 -0.1787 -0.2634 -0.5480
10392SOL     OW33043   8.526   2.757   1.003  0.6374 -0.1096 -0.7254
10392SOL    HW133044   8.605   2.705   1.014 -0.1965 -1.6042 -1.4544
10392SOL    HW233045   8.478   2.745   1.086  0.4050 -0.6098 -0.9254
10393SOL     OW33046   4.547   7.968   3.146  0.1434 -0.5593  0.0742
10393SOL    HW133047   4.634   7.972   3.187 -0.6009 -1.3081  1.8632
10393SOL    HW233048   4.521   8.059   3.136  1.8087 -0.2413 -2.1533
10394SOL     OW33049   5.065   3.057   3.064  0.4585  0.3204  0.0061
10394SOL    HW133050   4.989   2.999   3.076  0.3531  0.7412  1.6445
10394SOL    HW233051   5.057   3.089   2.974 -0.3005 -1.0401 -0.4463
10395SOL     OW33052   3.364   1.157   2.542 -0.3610  0.0669 -0.4742
10395SOL    HW133053   3.427   1.228   2.552 -0.9379  0.7245 -1.3935
10395SOL    HW233054   3.413   1.089   2.496 -0.1742  0.3521 -0.6996
10396SOL     OW33055   7.979   5.041   1.538 -0.2446  0.3709 -0.7538
10396SOL    HW133056   8.001   5.085   1.620  0.3154 -0.3032 -0.5284
10396SOL    HW233057   7.885   5.055   1.527 -0.0960  1.5644 -0.6677
10397SOL     OW33058   6.075   2.010   5.275  0.3253 -0.3250 -0.0973
10397SOL    HW133059   5.985   1.985   5.296 -0.3492  2.0875  0.1836
10397SOL    HW233060   6.124   1.995   5.356 -0.1416 -0.3848  0.1769
10398SOL     OW33061   5.207   7.450   6.006 -0.4775 -0.0376  0.2474
10398SOL    HW133062   5.193   7.464   6.100  0.3381  0.0835  0.3541
10398SOL    HW233063   5.200   7.537   5.968  0.0341  0.0340  0.3110
10399SOL     OW33064   3.017   6.389   1.292  0.7001  0.5037  0.4155
10399SOL    HW133065   2.972   6.444   1.228 -2.5789 -0.8048  1.3940
10399SOL    HW233066   2.983   6.417   1.377  2.5452  0.0792  1.3637
10400SOL     OW33067   7.545   5.740   8.388 -0.1469 -0.4786  0.2674
10400SOL    HW133068   7.527   5.826   8.349  0.1510 -0.1897  0.7623
10400SOL    HW233069   7.571   5.685   8.314  1.7384  0.4212  0.2190
10401SOL     OW33070   7.002   4.816   4.756  0.0858 -0.2757  0.2518
10401SOL    HW133071   7.076   4.769   4.795  0.1335 -0.1052  0.3679
10401SOL    HW233072   7.042   4.886   4.705 -0.0190  0.5511  1.2673
10402SOL     OW33073   3.827   4.528   8.541 -0.2689  0.2377 -0.0174
10402SOL    HW133074   3.906   4.564   8.581 -0.5216 -0.7387  1.4663
10402SOL    HW233075   3.857   4.449   8.496 -0.2476  0.3901 -0.2693
10403SOL     OW33076   2.734   7.322   6.515  0.6808  0.2117  0.5735
10403SOL    HW133077   2.680   7.244   6.516  0.1501  0.5549 -0.3416
10403SOL    HW233078   2.750   7.342   6.607 -1.8417  0.8396  0.9463
10404SOL     OW33079   8.128   1.494   5.578 -0.3976 -0.2780 -0.8526
10404SOL    HW133080   8.171   1.580   5.574  1.8558 -1.3664 -2.1707
10404SOL    HW233081   8.136   1.459   5.489 -2.9891 -1.1104 -0.8252
10405SOL     OW33082   8.348   6.837   3.548  0.1106 -0.5642 -0.3405
10405SOL    HW133083   8.279   6.818   3.612  1.0781  2.5129  1.8300
10405SOL    HW233084   8.304   6.828   3.463 -2.5065 -0.4491  0.8945
10406SOL     OW33085   3.861   6.112   6.556  0.1004 -0.0238 -0.3778
10406SOL    HW133086   3.955   6.109   6.576  0.5632 -1.5621 -2.4614
10406SOL    HW233087   3.841   6.206   6.553  1.1539  0.3310  1.6521
10407SOL     OW33088   8.583   0.997   5.135  0.8796  0.1636 -0.3471
10407SOL    HW133089   8.495   1.011   5.169 -0.2402 -1.8355 -2.1922
10407SOL    HW233090   8.587   1.049   5.054 -0.3098 -3.0348 -2.6544
10408SOL     OW33091   7.279   8.416   8.404 -0.1084 -0.3288 -0.1089
10408SOL    HW133092   7.314   8.504   8.413 -1.4985  0.0631  2.1275
10408SOL    HW233093   7.229   8.417   8.323  0.1852  0.8051 -0.2826
10409SOL     OW33094   6.969   3.596   7.399 -0.0617 -0.7997  0.3032
10409SOL    HW133095   7.039   3.659   7.411  0.8147 -1.6900 -0.0410
10409SOL    HW233096   6.889   3.649   7.396  0.8249  0.5446 -2.4553
10410SOL     OW33097   2.130   0.887   5.794 -0.0175  0.0486 -0.0924
10410SOL    HW133098   2.214   0.848   5.819  0.4828  2.1259  1.7875
10410SOL    HW233099   2.147   0.981   5.791 -2.0458  0.4437 -0.7441
10411SOL     OW33100   2.329   1.425   8.102  0.1781  0.3144 -0.2841
10411SOL    HW133101   2.399   1.436   8.037  0.0178 -1.0364 -0.7297
10411SOL    HW233102   2.252   1.402   8.050 -0.2630  0.4412  0.3060
10412SOL     OW33103   2.328   4.125   6.151  0.3066 -0.2454 -0.3779
10412SOL    HW133104   2.251   4.079   6.183  0.6404 -0.3242  0.3236
10412SOL    HW233105   2.304   4.218   6.153  1.7344  0.2852  4.4335
10413SOL     OW33106   8.969   1.427   1.683 -0.8628 -0.3020  0.1243
10413SOL    HW133107   8.936   1.341   1.659  0.7636 -1.3326  1.3866
10413SOL    HW233108   9.020   1.456   1.607  0.7056 -1.6285  0.6139
10414SOL     OW33109   6.908   1.676   1.280  0.5068 -0.1044 -0.0557
10414SOL    HW133110   6.888   1.764   1.251  1.4635 -0.0608 -0.6234
10414SOL    HW233111   6.839   1.655   1.344 -1.0096  0.2032 -1.5309
10415SOL     OW33112   3.135   2.582   6.637 -0.4114 -0.5250  0.0664
10415SOL    HW133113   3.099   2.497   6.662 -0.4268  0.0553  2.1964
10415SOL    HW233114   3.133   2.634   6.718  1.5006  0.8392 -0.6828
10416SOL     OW33115   2.298   3.963   1.857 -0.3987  0.4264  0.1801
10416SOL    HW133116   2.289   3.887   1.916  1.3861 -0.2583 -0.3438
10416SOL    HW233117   2.369   4.014   1.896  2.0607 -0.9331 -2.1627
10417SOL     OW33118   8.465   0.678   5.256  0.1037 -0.3731 -0.7953
10417SOL    HW133119   8.549   0.695   5.214  0.0988 -3.4770 -2.3478
10417SOL    HW233120   8.403   0.731   5.206  1.0468  2.0058  0.4156
10418SOL     OW33121   6.236   4.384   6.865  0.2528 -0.1684  0.0834
10418SOL    HW133122   6.310   4.372   6.925 -0.3636 -2.5910  0.4551
10418SOL    HW233123   6.271   4.357   6.780 -0.5006 -2.5793  0.4901
10419SOL     OW33124   3.870   6.749   8.072 -0.1695  1.0797  0.1431
10419SOL    HW133125   3.886   6.840   8.047  2.0601  0.5432 -0.6336
10419SOL    HW233126   3.881   6.748   8.167  0.1043  1.5817  0.1217
10420SOL     OW33127   5.011   6.303   7.893 -0.3179  0.1161  0.0145
10420SOL    HW133128   5.078   6.274   7.831 -0.2029 -0.1015  0.2333
10420SOL    HW233129   4.937   6.244   7.878  0.4609 -1.3346  1.4875
10421SOL     OW33130   3.986   3.125   6.208  0.1344 -0.3579  0.3311
10421SOL    HW133131   3.909   3.180   6.219  0.2649  0.0805 -0.7933
10421SOL    HW233132   4.058   3.187   6.195 -0.0691 -0.6684 -3.3936
10422SOL     OW33133   8.910   2.831   4.047  0.4746 -0.1260  0.9779
10422SOL    HW133134   8.842   2.809   4.110  0.9195  0.7686  1.8080
10422SOL    HW233135   8.990   2.837   4.099  1.3371 -1.7698 -0.0731
10423SOL     OW33136   4.395   5.508   2.039  0.3812 -0.3848  0.0382
10423SOL    HW133137   4.345   5.560   2.101  1.1250  0.1505  0.2059
10423SOL    HW233138   4.355   5.421   2.042  1.4388 -0.8750  2.5626
10424SOL     OW33139   1.798   4.862   4.768 -0.2859 -0.7201 -0.2735
10424SOL    HW133140   1.766   4.873   4.858 -0.7405  0.5162 -0.5678
10424SOL    HW233141   1.839   4.775   4.768 -0.7490 -0.9656  0.9814
10425SOL     OW33142   0.831   6.331   7.513 -0.6636 -0.3570 -0.4564
10425SOL    HW133143   0.915   6.303   7.549 -1.2946 -0.5362  0.9843
10425SOL    HW233144   0.849   6.352   7.422  1.3333  1.2504  0.2207
10426SOL     OW33145   2.008   4.748   4.007 -0.1495 -0.4002  0.3574
10426SOL    HW133146   1.952   4.675   4.033 -1.0137  0.1958  0.1994
10426SOL    HW233147   1.948   4.822   3.995  0.7257  0.3839  0.6742
10427SOL     OW33148   7.655   3.935   0.045 -0.6330 -0.3346 -0.5238
10427SOL    HW133149   7.702   3.895  -0.028  0.0737 -0.7890  0.1647
10427SOL    HW233150   7.601   4.002   0.004  0.9131  0.4925 -1.3230
10428SOL     OW33151   5.980   8.654   7.243  0.1836 -0.4011  0.9253
10428SOL    HW133152   6.058   8.599   7.252  1.3893  0.6533 -1.9956
10428SOL    HW233153   5.924   8.607   7.181  1.7607  1.9346 -2.5865
10429SOL     OW33154   8.323   0.109   4.020  0.6022 -0.0703  0.0289
10429SOL    HW133155   8.319   0.205   4.029  0.7039 -0.1054  0.4529
10429SOL    HW233156   8.346   0.078   4.107  3.1723 -0.3415 -0.6887
10430SOL     OW33157   5.312   7.784   7.058  0.5183  0.4364  0.6940
10430SOL    HW133158   5.286   7.700   7.096  0.1543  0.1374 -0.1942
10430SOL    HW233159   5.324   7.841   7.134  1.9501 -0.7267  1.4180
10431SOL     OW33160   5.344   2.051   7.226 -0.4000  0.4443  0.2355
10431SOL    HW133161   5.260   2.044   7.271 -0.0123 -0.6292  0.8517
10431SOL    HW233162   5.327   2.019   7.137 -0.4075 -0.9630  0.7139
10432SOL     OW33163   3.362   1.692   5.604  0.0376  0.2224 -0.5112
10432SOL    HW133164   3.359   1.645   5.687 -1.5577  1.2189  0.0540
10432SOL    HW233165   3.433   1.755   5.614 -0.5666  0.7794  0.3849
10433SOL     OW33166   0.930   8.296   4.319 -0.0151 -0.0243  0.0697
10433SOL    HW133167   0.967   8.210   4.299 -2.4767 -0.6102 -2.6563
10433SOL    HW233168   0.957   8.351   4.245  0.5418  1.2781  1.1847
10434SOL     OW33169   2.924   7.513   6.927 -0.1446  0.6919  0.6675
10434SOL    HW133170   2.961   7.440   6.977 -0.6507  0.6508  0.9858
10434SOL    HW233171   2.991   7.581   6.931 -0.1910  0.6980  1.4240
10435SOL     OW33172   5.017   8.017   8.194 -0.0627 -0.3621 -0.1673
10435SOL    HW133173   5.049   8.098   8.155 -2.4017  0.5390 -0.3295
10435SOL    HW233174   4.981   8.043   8.279  1.5756 -1.7126  1.0206
10436SOL     OW33175   7.522   3.250   4.356  0.4169  0.0170 -0.2720
10436SOL    HW133176   7.455   3.287   4.299  0.1750 -0.1628 -0.1027
10436SOL    HW233177   7.491   3.267   4.445 -0.8385 -2.5331 -0.1277
10437SOL     OW33178   2.933   3.638   1.131  0.0479 -0.4485  0.2078
10437SOL    HW133179   2.852   3.588   1.142 -0.9562  0.7984 -1.0220
10437SOL    HW233180   2.992   3.579   1.085  0.6809 -2.1308  2.9806
10438SOL     OW33181   7.627   0.285   2.359  0.1812 -0.2507 -0.4243
10438SOL    HW133182   7.544   0.332   2.359  0.2123  0.0077 -3.3175
10438SOL    HW233183   7.693   0.351   2.381 -0.1596  0.0953 -0.4467
10439SOL     OW33184   8.476   6.238   4.848  0.3585 -0.1030  0.4935
10439SOL    HW133185   8.565   6.209   4.828 -0.5490 -1.1086 -2.6588
10439SOL    HW233186   8.444   6.175   4.912  0.8308 -1.8507 -0.8980
10440SOL     OW33187   5.486   2.283   0.296 -0.5814  0.2296  0.2610
10440SOL    HW133188   5.403   2.242   0.269 -1.3303  1.7196  0.1980
10440SOL    HW233189   5.530   2.304   0.213  0.3881 -1.5255  0.2951
10441SOL     OW33190   3.646   1.257   3.982  0.2905 -0.3188 -0.2033
10441SOL    HW133191   3.677   1.342   3.950  0.7776  0.2145  1.5534
10441SOL    HW233192   3.552   1.268   3.993  0.3926  0.0844  0.2770
10442SOL     OW33193   8.114   4.630   5.885  0.3521 -0.4117  0.0542
10442SOL    HW133194   8.131   4.678   5.966 -1.0057 -2.5010  1.6778
10442SOL    HW233195   8.177   4.665   5.823  1.9534  0.7587  2.2157
10443SOL     OW33196   4.073   8.218   2.013  0.2255  0.0932 -0.4634
10443SOL    HW133197   4.111   8.305   2.023  0.3428 -0.1439  1.6334
10443SOL    HW233198   4.093   8.173   2.095 -1.1065 -1.4066 -0.8973
10444SOL     OW33199   2.397   0.978   2.458  0.0227 -0.2619  0.1396
10444SOL    HW133200   2.409   1.071   2.437  2.0818 -0.1668  1.4792
10444SOL    HW233201   2.481   0.938   2.436 -0.7000 -1.7472  0.0126
10445SOL     OW33202   8.608   1.978   5.669  0.0726  0.6014  0.3283
10445SOL    HW133203   8.539   2.040   5.643  0.4403  1.5987  1.6374
10445SOL    HW233204   8.573   1.935   5.747  0.0550 -0.4471 -0.2497
10446SOL     OW33205   8.679   8.994   3.942 -0.1011  0.6333 -0.8129
10446SOL    HW133206   8.668   9.009   4.036 -2.7591  1.3282 -1.1373
10446SOL    HW233207   8.647   9.075   3.901 -0.9664 -0.4227 -2.3364
10447SOL     OW33208   6.579   8.812   7.462  0.0186 -0.2299 -0.3362
10447SOL    HW133209   6.545   8.860   7.387 -2.0897  0.3335  0.9086
10447SOL    HW233210   6.529   8.844   7.536 -0.3246 -3.1504  0.8151
10448SOL     OW33211   0.916   0.412   0.207  0.4777 -0.2914 -0.0474
10448SOL    HW133212   1.006   0.408   0.175  0.1042 -1.1211 -1.0673
10448SOL    HW233213   0.870   0.342   0.159 -1.2627  1.6128 -1.3456
10449SOL     OW33214   7.715   8.999   4.191  0.1795  0.5237  0.3719
10449SOL    HW133215   7.722   9.070   4.128  2.1128 -0.2309 -0.3321
10449SOL    HW233216   7.802   8.991   4.229 -0.3475 -0.5708  1.4354
10450SOL     OW33217   5.826   7.416   6.455 -0.1098  0.8292  0.2083
10450SOL    HW133218   5.770   7.466   6.396 -0.8901 -0.9956 -0.6595
10450SOL    HW233219   5.766   7.376   6.517  0.3594  0.0027  0.1411
10451SOL     OW33220   8.190   6.128   6.468  0.5075 -0.0112 -0.2570
10451SOL    HW133221   8.131   6.174   6.528  0.1611  0.6848 -1.1011
10451SOL    HW233222   8.275   6.173   6.479  0.7524 -0.6467  0.5463
10452SOL     OW33223   7.332   0.964   8.474 -0.2366  0.3448  0.8246
10452SOL    HW133224   7.254   0.913   8.496 -0.5928  1.3161  1.8842
10452SOL    HW233225   7.404   0.901   8.479 -0.9050 -0.5104  0.0635
10453SOL     OW33226   1.061   7.455   8.552 -0.1860  0.5244 -0.3204
10453SOL    HW133227   1.068   7.550   8.546  0.8868  0.4436 -0.5363
10453SOL    HW233228   1.042   7.437   8.644 -0.2178  0.9330 -0.2470
10454SOL     OW33229   7.636   3.179   0.258  0.1504 -0.3709 -0.0457
10454SOL    HW133230   7.710   3.221   0.302  1.0414 -1.6750 -0.2452
10454SOL    HW233231   7.565   3.185   0.321  0.5941  0.3517  0.4065
10455SOL     OW33232   4.686   3.788   4.471 -0.0007  0.0143 -0.0878
10455SOL    HW133233   4.699   3.778   4.377  1.3968 -0.0183  0.0828
10455SOL    HW233234   4.633   3.713   4.496  0.8982 -0.8274 -0.6296
10456SOL     OW33235   5.995   5.878   4.797 -0.0559 -0.4703 -0.2210
10456SOL    HW133236   5.957   5.900   4.882 -2.3140 -3.7877 -0.2043
10456SOL    HW233237   6.087   5.857   4.817 -0.6469 -1.6259  1.5483
10457SOL     OW33238   8.770   4.471   8.047 -0.7156  0.3152 -0.3342
10457SOL    HW133239   8.748   4.380   8.025  0.0993 -0.0510  0.3058
10457SOL    HW233240   8.696   4.522   8.015 -0.7902 -0.4764 -1.5132
10458SOL     OW33241   3.990   7.202   1.482  0.1000 -0.6295  0.3054
10458SOL    HW133242   3.957   7.277   1.531  0.5448 -0.3833  0.2313
10458SOL    HW233243   3.968   7.126   1.536 -1.5348 -0.5713 -0.2401
10459SOL     OW33244   1.026   4.180   7.065 -0.0432  1.0359 -0.8838
10459SOL    HW133245   1.024   4.275   7.060 -0.2773  1.2060  1.3192
10459SOL    HW233246   1.106   4.160   7.115 -0.1369  0.0930 -1.0803
10460SOL     OW33247   8.919   5.922   4.657  0.4417  0.2510  0.0918
10460SOL    HW133248   8.841   5.956   4.701  0.4520  0.3820  0.0105
10460SOL    HW233249   8.992   5.962   4.704  0.5048 -0.8177  0.9532
10461SOL     OW33250   6.834   5.982   4.543  0.1502 -0.0258 -0.2949
10461SOL    HW133251   6.891   6.051   4.508  1.2935 -0.2908  0.9721
10461SOL    HW233252   6.860   5.973   4.634 -1.4969 -0.6339  0.1597
10462SOL     OW33253   2.654   0.838   7.965 -0.9432 -0.3375 -0.0853
10462SOL    HW133254   2.615   0.838   7.878 -1.5543 -2.9134  0.1052
10462SOL    HW233255   2.605   0.904   8.014 -1.2732  0.4069 -1.3984
10463SOL     OW33256   5.344   7.909   1.526  0.0527  0.8215 -0.2989
10463SOL    HW133257   5.318   7.922   1.435  1.0248 -0.7107 -0.8349
10463SOL    HW233258   5.438   7.891   1.522 -0.0643 -0.2352  0.8818
10464SOL     OW33259   2.017   5.547   8.779  0.1928  0.3500  0.2541
10464SOL    HW133260   2.112   5.544   8.790  0.2273  1.2843  0.2647
10464SOL    HW233261   1.982   5.515   8.862  0.4920  2.6768  1.3437
10465SOL     OW33262   8.428   6.243   7.395 -0.2278  0.2127  0.5708
10465SOL    HW133263   8.448   6.239   7.489  2.4432 -1.6061  0.0303
10465SOL    HW233264   8.384   6.160   7.376  0.9402 -0.2642 -0.1028
10466SOL     OW33265   0.542   5.933   6.621 -0.3034  0.2574 -0.3564
10466SOL    HW133266   0.579   5.852   6.586  0.7227 -0.5082  2.2917
10466SOL    HW233267   0.507   5.909   6.706 -1.7611  2.2260 -0.3161
10467SOL     OW33268   1.277   2.870   3.725 -0.6489 -0.6810  0.2716
10467SOL    HW133269   1.330   2.790   3.723 -0.7309 -0.7631  1.0827
10467SOL    HW233270   1.267   2.894   3.633  0.4101 -0.9217  0.0740
10468SOL     OW33271   7.294   7.179   4.435  0.0952  0.1940 -0.8980
10468SOL    HW133272   7.297   7.270   4.406 -1.2295 -0.1004 -2.0633
10468SOL    HW233273   7.202   7.154   4.425  0.5827 -1.5085 -1.3502
10469SOL     OW33274   1.341   7.641   8.212  0.3098 -0.2597 -0.0895
10469SOL    HW133275   1.264   7.614   8.163  0.9596 -1.3100 -0.5755
10469SOL    HW233276   1.356   7.732   8.185  0.1582 -0.5521 -1.2013
10470SOL     OW33277   4.828   7.468   7.424  0.1655  0.1877 -0.0598
10470SOL    HW133278   4.901   7.408   7.415 -0.7597 -0.9879  0.0653
10470SOL    HW233279   4.834   7.501   7.514 -1.4788 -2.7199  1.2669
10471SOL     OW33280   6.569   4.846   5.224 -0.3573 -0.0301  0.4400
10471SOL    HW133281   6.629   4.796   5.280 -0.1428 -0.7543 -0.4175
10471SOL    HW233282   6.539   4.784   5.158 -1.4987  0.5108  0.4083
10472SOL     OW33283   8.673   1.170   5.790  0.5003 -0.4687 -0.0370
10472SOL    HW133284   8.640   1.132   5.872  0.2349  0.5733  0.3651
10472SOL    HW233285   8.704   1.257   5.816  1.2815 -0.4895 -0.8827
10473SOL     OW33286   4.987   8.023   4.131  0.6166 -0.1287  0.2236
10473SOL    HW133287   5.006   8.007   4.224 -0.2359 -1.5331  0.1849
10473SOL    HW233288   4.951   7.940   4.099  0.7264  0.3882 -1.3279
10474SOL     OW33289   4.762   1.891   1.685  0.1753  0.5434 -0.8421
10474SOL    HW133290   4.699   1.819   1.672 -1.8019  1.7686  1.1852
10474SOL    HW233291   4.727   1.962   1.631 -0.0810  1.1696  0.1342
10475SOL     OW33292   7.549   2.730   0.869  0.2608  0.5028 -0.1436
10475SOL    HW133293   7.608   2.727   0.944 -0.5401  0.0193  0.4815
10475SOL    HW233294   7.510   2.817   0.873 -0.0451  0.3503  0.2116
10476SOL     OW33295   0.646   8.359   7.527 -0.3691 -0.2030 -0.0673
10476SOL    HW133296   0.688   8.395   7.449  0.5361 -1.6160 -0.2797
10476SOL    HW233297   0.608   8.434   7.571  1.5814  1.0481 -0.3837
10477SOL     OW33298   0.255   3.576   1.820 -0.6007 -0.0124  0.0240
10477SOL    HW133299   0.260   3.670   1.803 -0.5941  0.2730  1.4927
10477SOL    HW233300   0.213   3.540   1.742  0.0389  1.1082 -0.8613
10478SOL     OW33301   5.188   7.770   0.202 -0.4506  0.0631 -0.4330
10478SOL    HW133302   5.121   7.758   0.268 -0.1229  1.2899  0.1467
10478SOL    HW233303   5.252   7.828   0.242  0.6835 -0.6263 -1.1754
10479SOL     OW33304   5.923   0.741   7.919 -0.1701  0.4518  0.8823
10479SOL    HW133305   5.891   0.824   7.954 -0.4565 -0.1012  1.9726
10479SOL    HW233306   6.013   0.759   7.890 -1.3384  2.0239 -2.2050
10480SOL     OW33307   1.047   6.098   1.356 -0.6186  0.3691 -0.1978
10480SOL    HW133308   1.061   6.117   1.449 -0.2801 -0.6198 -0.0282
10480SOL    HW233309   1.071   6.006   1.347 -1.6078  0.1691 -1.0652
10481SOL     OW33310   5.764   1.005   7.729  0.7414 -0.7840  0.3542
10481SOL    HW133311   5.749   0.984   7.821 -2.4356 -0.1461  0.0850
10481SOL    HW233312   5.748   0.924   7.682  3.1491 -1.3184  0.3365
10482SOL     OW33313   1.231   5.190   2.452  0.5780 -0.3115  0.2159
10482SOL    HW133314   1.221   5.162   2.361  0.6874  2.5565 -0.8091
10482SOL    HW233315   1.306   5.142   2.484  1.3698 -0.4428 -1.6877
10483SOL     OW33316   3.413   7.623   4.809 -0.5176 -0.3801 -0.0254
10483SOL    HW133317   3.484   7.687   4.799 -1.2070  0.8703  2.3287
10483SOL    HW233318   3.390   7.628   4.901 -1.9858 -2.6098 -0.2134
10484SOL     OW33319   4.167   3.726   0.343  0.2783  0.7221  0.5410
10484SOL    HW133320   4.199   3.739   0.432  0.3120 -0.6905  0.7622
10484SOL    HW233321   4.151   3.631   0.337 -0.1610  0.8598 -0.8054
10485SOL     OW33322   7.827   0.889   7.372 -0.0797 -0.1079 -0.3881
10485SOL    HW133323   7.755   0.925   7.423  0.5250 -0.7673  0.9628
10485SOL    HW233324   7.793   0.807   7.337 -0.0135 -0.3838  0.1891
10486SOL     OW33325   4.183   4.232   5.425  0.0350  0.2941  0.3656
10486SOL    HW133326   4.222   4.167   5.367  0.5939 -0.4269  1.5191
10486SOL    HW233327   4.244   4.239   5.498 -1.0467  0.5754  1.2771
10487SOL     OW33328   3.247   3.281   6.045  0.3874  0.4272 -0.1056
10487SOL    HW133329   3.234   3.213   5.978  2.3171 -1.1558  1.0123
10487SOL    HW233330   3.297   3.349   6.001 -0.3145  0.4729 -0.8581
10488SOL     OW33331   7.344   1.292   0.363  0.0420 -0.0033  0.5569
10488SOL    HW133332   7.311   1.228   0.425 -0.3049  0.1207  0.5007
10488SOL    HW233333   7.277   1.360   0.360  0.1927  0.1366  0.2689
10489SOL     OW33334   3.486   6.009   2.410 -0.0230 -0.4756  0.4782
10489SOL    HW133335   3.455   5.938   2.466 -0.9282 -1.3522 -1.0692
10489SOL    HW233336   3.535   5.966   2.341 -1.5428  0.2330 -1.1311
10490SOL     OW33337   5.896   1.508   8.905  0.1182  0.2792 -0.2354
10490SOL    HW133338   5.872   1.516   8.813  1.8527  0.6319 -0.6875
10490SOL    HW233339   5.961   1.438   8.906  1.0165  1.1014  0.5301
10491SOL     OW33340   4.029   6.704   1.882 -0.0381 -0.2295  0.0044
10491SOL    HW133341   4.027   6.676   1.791 -1.2647  1.1484 -0.4343
10491SOL    HW233342   3.981   6.787   1.883 -0.5100 -0.4671  1.9775
10492SOL     OW33343   3.538   0.434   1.848  0.0772  0.3413  0.0286
10492SOL    HW133344   3.504   0.429   1.937  2.2929 -2.8978  0.8782
10492SOL    HW233345   3.629   0.460   1.858  0.7654 -1.4264 -1.0764
10493SOL     OW33346   2.769   8.526   6.257  0.5189  0.0610  0.2870
10493SOL    HW133347   2.844   8.569   6.216 -0.4596  0.6646 -0.9469
10493SOL    HW233348   2.797   8.436   6.272  2.0817  0.7089  1.5004
10494SOL     OW33349   2.834   6.704   3.661 -0.2253  0.4083  0.3186
10494SOL    HW133350   2.815   6.630   3.603 -0.3766  1.6517 -1.3005
10494SOL    HW233351   2.911   6.677   3.710  0.9033 -0.1278 -1.6073
10495SOL     OW33352   0.566   8.919   0.192  0.0433  0.2963  0.1470
10495SOL    HW133353   0.478   8.888   0.216  0.0670 -1.0160 -1.3349
10495SOL    HW233354   0.613   8.840   0.168  1.6380  1.0015  0.8160
10496SOL     OW33355   0.406   3.294   5.056  0.4786  0.1624  0.2037
10496SOL    HW133356   0.331   3.299   4.996  0.1595 -1.0266  0.4593
10496SOL    HW233357   0.441   3.383   5.059 -0.4542  0.5747 -0.5237
10497SOL     OW33358   0.045   5.817   3.161  0.5420  0.2472 -0.1135
10497SOL    HW133359   0.131   5.783   3.183  0.3392  0.0205  0.3419
10497SOL    HW233360   0.037   5.896   3.215  1.0495  1.0835 -1.2338
10498SOL     OW33361   1.594   2.317   4.124 -0.0387  0.0735 -0.3937
10498SOL    HW133362   1.583   2.391   4.184  0.4990  0.3426 -0.6244
10498SOL    HW233363   1.684   2.287   4.139 -0.1037 -0.2422 -0.6301
10499SOL     OW33364   5.165   8.387   5.816 -0.0840 -0.0375 -0.0845
10499SOL    HW133365   5.123   8.359   5.735 -0.5344  2.3350 -0.7468
10499SOL    HW233366   5.097   8.435   5.863  0.5362 -0.3202  1.1493
10500SOL     OW33367   4.785   1.228   5.118  0.7607  0.2618 -0.1998
10500SOL    HW133368   4.807   1.251   5.209 -0.7492 -0.1149  0.2887
10500SOL    HW233369   4.861   1.256   5.067  0.7808  2.3932  0.9010
10501SOL     OW33370   6.578   1.033   0.872 -0.3975  0.1164  0.0132
10501SOL    HW133371   6.569   0.938   0.859 -0.9755 -0.3925  3.3890
10501SOL    HW233372   6.672   1.047   0.883 -0.3869 -0.2147  0.3711
10502SOL     OW33373   5.829   4.547   0.685  0.2410  0.9064 -0.1566
10502SOL    HW133374   5.752   4.576   0.636  0.2477 -0.9993 -1.4419
10502SOL    HW233375   5.809   4.457   0.710  1.6911  0.6706  0.2680
10503SOL     OW33376   1.518   8.510   5.085 -0.0063 -0.1400  0.6398
10503SOL    HW133377   1.481   8.508   4.996 -1.3467  2.2679  1.0450
10503SOL    HW233378   1.567   8.592   5.088 -1.1866  0.5539  2.5273
10504SOL     OW33379   6.941   4.000   2.691  0.3404 -0.0713  0.3136
10504SOL    HW133380   6.929   4.081   2.741  0.4310 -0.0454  0.2931
10504SOL    HW233381   6.896   3.933   2.742 -0.1600  0.0822  0.0908
10505SOL     OW33382   1.259   3.273   5.073 -0.0708  0.1443 -0.2300
10505SOL    HW133383   1.254   3.229   4.988 -0.3131 -0.5585  0.1405
10505SOL    HW233384   1.168   3.291   5.097 -0.1423 -1.3692  0.7412
10506SOL     OW33385   4.680   0.077   7.358 -0.6663 -0.3318 -0.6242
10506SOL    HW133386   4.738   0.024   7.304  0.8034 -0.0974  0.6639
10506SOL    HW233387   4.645   0.015   7.423  0.4243  0.0578  0.3796
10507SOL     OW33388   7.787   3.999   1.804 -0.8752  0.5368  0.3450
10507SOL    HW133389   7.776   3.952   1.886  0.9537 -1.0574 -0.2564
10507SOL    HW233390   7.701   4.038   1.787 -2.2737 -1.8985  1.3149
10508SOL     OW33391   7.348   5.536   8.794  0.2827 -0.2967 -0.1386
10508SOL    HW133392   7.298   5.466   8.837  0.5867 -0.1589  0.4376
10508SOL    HW233393   7.283   5.579   8.738 -1.4767  2.6217  3.7094
10509SOL     OW33394   2.996   1.999   6.669 -0.1846 -0.4789 -0.0646
10509SOL    HW133395   2.948   2.041   6.740  1.4694  2.5307 -0.5099
10509SOL    HW233396   3.081   1.977   6.707  0.3849  0.3206 -0.8354
10510SOL     OW33397   1.888   5.251   6.381 -0.5976  0.3626 -0.2027
10510SOL    HW133398   1.980   5.233   6.360 -1.3107 -2.6462 -1.3194
10510SOL    HW233399   1.850   5.284   6.300 -0.9126 -0.3258 -0.3433
10511SOL     OW33400   3.458   8.806   5.344 -0.2619 -0.1504 -0.1209
10511SOL    HW133401   3.435   8.862   5.418  0.5854  0.4837 -0.3200
10511SOL    HW233402   3.375   8.790   5.299 -0.3003  2.5668 -1.1724
10512SOL     OW33403   8.392   8.203   4.011 -0.1410 -0.0523  0.1017
10512SOL    HW133404   8.438   8.274   3.966  0.4429 -0.4074  0.1145
10512SOL    HW233405   8.314   8.188   3.958 -0.5780  0.9854  0.4300
10513SOL     OW33406   4.173   7.531   8.848  0.2197  0.1532  0.2659
10513SOL    HW133407   4.102   7.594   8.862  0.6858  0.7160  0.1782
10513SOL    HW233408   4.129   7.449   8.826 -0.4163  1.0425 -2.2216
10514SOL     OW33409   6.852   4.137   0.692  0.7038 -0.2595  0.0597
10514SOL    HW133410   6.837   4.088   0.773 -1.6608 -0.1251 -0.2223
10514SOL    HW233411   6.942   4.167   0.698  0.2587  0.7827  3.2012
10515SOL     OW33412   1.831   7.352   6.628 -0.4027 -0.2606  0.1575
10515SOL    HW133413   1.796   7.434   6.662 -2.9530 -1.1593 -0.1311
10515SOL    HW233414   1.925   7.370   6.617 -0.7572  2.4057  0.6519
10516SOL     OW33415   5.082   5.834   6.831  0.3470  0.3634  0.5090
10516SOL    HW133416   5.093   5.782   6.911  0.4724 -0.1871  0.1337
10516SOL    HW233417   5.077   5.924   6.863  2.0044  0.3097  1.0127
10517SOL     OW33418   7.994   4.356   5.102 -0.3072  0.6934 -0.0889
10517SOL    HW133419   7.913   4.306   5.095  0.5096 -0.6986  0.0801
10517SOL    HW233420   7.986   4.403   5.185 -0.7693  0.2249  0.1385
10518SOL     OW33421   5.482   0.082   4.256 -0.0411 -0.1801  0.3819
10518SOL    HW133422   5.570   0.063   4.289 -0.1146 -1.1985  0.0309
10518SOL    HW233423   5.424   0.049   4.325 -0.1662  1.4605  1.1163
10519SOL     OW33424   3.515   2.168   5.894 -0.4649 -0.3293  0.6288
10519SOL    HW133425   3.503   2.254   5.853  0.3867 -0.0192  1.0046
10519SOL    HW233426   3.566   2.119   5.830  0.0550 -0.1591  0.9077
10520SOL     OW33427   0.658   6.549   0.769 -0.1356 -0.1613 -0.3272
10520SOL    HW133428   0.722   6.479   0.776 -1.3119 -1.1127  1.6641
10520SOL    HW233429   0.703   6.626   0.805  1.0791  0.1187 -2.3168
10521SOL     OW33430   1.714   7.583   7.019  0.4914  0.3140  0.0684
10521SOL    HW133431   1.806   7.579   6.995  0.0523  1.1559 -2.0391
10521SOL    HW233432   1.703   7.516   7.086  1.8751 -2.5613 -2.3324
10522SOL     OW33433   2.940   4.125   6.416 -0.1758  0.3905 -0.2664
10522SOL    HW133434   2.899   4.205   6.383 -1.0455  0.5259  1.0588
10522SOL    HW233435   2.954   4.071   6.338  0.6394  1.9114 -1.2164
10523SOL     OW33436   0.841   3.431   2.222 -0.6011 -0.1733 -0.7898
10523SOL    HW133437   0.839   3.387   2.307 -1.8583  0.2348 -0.5955
10523SOL    HW233438   0.835   3.360   2.158  2.3504 -0.6819 -0.6661
10524SOL     OW33439   5.862   4.177   7.119 -0.0387  0.3962  0.8281
10524SOL    HW133440   5.928   4.175   7.050 -0.3801 -0.2460  0.5080
10524SOL    HW233441   5.862   4.088   7.154  0.3459  0.7944  1.8671
10525SOL     OW33442   8.183   7.149   7.504  0.4535  0.1812 -0.5677
10525SOL    HW133443   8.111   7.204   7.473 -1.1559  0.8327  3.7054
10525SOL    HW233444   8.153   7.060   7.489 -0.5509  0.4563 -0.2497
10526SOL     OW33445   5.380   8.667   1.377 -0.3190 -0.2170  0.0335
10526SOL    HW133446   5.295   8.633   1.350 -0.3118 -0.5904  0.4503
10526SOL    HW233447   5.383   8.756   1.345 -1.6555  0.4514  1.6202
10527SOL     OW33448   0.029   6.090   1.232 -0.0548 -0.0234  0.3767
10527SOL    HW133449  -0.050   6.036   1.243 -0.4087  0.7425  1.8244
10527SOL    HW233450   0.017   6.133   1.148 -1.2695  0.1993  0.6509
10528SOL     OW33451   5.257   1.772   4.424 -0.1415 -0.0799  0.0749
10528SOL    HW133452   5.181   1.815   4.461 -0.0690  1.6061 -1.5559
10528SOL    HW233453   5.331   1.827   4.450  0.0657  0.3165 -1.2384
10529SOL     OW33454   8.975   7.400   5.530  0.1193  0.4478  0.2081
10529SOL    HW133455   8.995   7.447   5.611  0.7513  1.2987 -0.4208
10529SOL    HW233456   9.043   7.428   5.469 -0.4175 -0.0900 -0.6549
10530SOL     OW33457   7.917   4.742   5.025 -0.3851  0.0892  0.2666
10530SOL    HW133458   7.965   4.821   5.001  0.5914 -0.0532  1.6372
10530SOL    HW233459   7.958   4.672   4.974 -1.3471  0.4526 -1.0594
10531SOL     OW33460   3.839   3.759   2.116 -0.3299  0.3484  0.0488
10531SOL    HW133461   3.897   3.761   2.193  0.1317  0.1954 -0.2921
10531SOL    HW233462   3.849   3.846   2.077 -1.5823  0.9014  0.8998
10532SOL     OW33463   1.139   2.124   5.103  0.0585 -0.0392  0.3207
10532SOL    HW133464   1.224   2.097   5.138 -0.6813  0.0538  2.3151
10532SOL    HW233465   1.108   2.047   5.056  1.4455  0.0986 -0.9035
10533SOL     OW33466   4.778   2.835   6.499  0.2668 -0.0946  0.5449
10533SOL    HW133467   4.743   2.922   6.518 -0.6898 -0.7621  1.9574
10533SOL    HW233468   4.755   2.782   6.575  1.2681 -1.4754 -0.0667
10534SOL     OW33469   0.662   3.547   6.545 -0.0733 -0.2874 -0.6086
10534SOL    HW133470   0.572   3.538   6.514 -0.3391 -1.6298  0.4526
10534SOL    HW233471   0.686   3.459   6.575  1.1257  0.3353  0.3353
10535SOL     OW33472   1.351   5.830   2.339  0.2727  0.1072  0.0228
10535SOL    HW133473   1.434   5.816   2.384  0.2545 -0.1221 -0.0117
10535SOL    HW233474   1.302   5.748   2.354  0.9378 -0.6875 -1.8490
10536SOL     OW33475   2.438   0.616   4.280  0.1565  0.3820  0.2040
10536SOL    HW133476   2.473   0.544   4.333  0.4053 -0.2564 -0.8006
10536SOL    HW233477   2.347   0.591   4.263  0.3263  0.1369 -0.3927
10537SOL     OW33478   5.519   2.091   4.002  0.8873  0.1651 -0.4819
10537SOL    HW133479   5.488   2.011   3.960 -1.0096  0.3820  0.4284
10537SOL    HW233480   5.489   2.161   3.944  0.5430  0.3240 -0.1154
10538SOL     OW33481   1.316   5.483   3.125  0.4505 -0.3078 -0.1741
10538SOL    HW133482   1.308   5.531   3.042 -2.2213  0.4104  0.4006
10538SOL    HW233483   1.372   5.408   3.104  1.7145  1.0461 -2.0306
10539SOL     OW33484   2.778   3.623   5.874  0.0588  0.3336 -0.0542
10539SOL    HW133485   2.824   3.552   5.919 -0.0477 -0.5339 -1.2732
10539SOL    HW233486   2.702   3.581   5.834 -0.0662  1.1617 -0.7148
10540SOL     OW33487   3.795   6.760   0.620 -0.1653 -0.1544  0.5120
10540SOL    HW133488   3.875   6.805   0.645 -0.7526  0.3832  1.4503
10540SOL    HW233489   3.811   6.734   0.529  1.3399 -0.6842  0.8922
10541SOL     OW33490   8.398   6.726   5.527  0.2770 -0.2657  0.1991
10541SOL    HW133491   8.456   6.653   5.550  0.1945  0.0027  1.3179
10541SOL    HW233492   8.399   6.782   5.605 -0.0505  0.6760 -0.4629
10542SOL     OW33493   7.465   4.116   5.958  0.3180 -0.1247  0.0316
10542SOL    HW133494   7.419   4.156   6.032 -1.5657 -0.9232 -0.6455
10542SOL    HW233495   7.516   4.046   5.997 -1.7180 -1.4354  0.5095
10543SOL     OW33496   4.953   5.963   3.263  0.1951 -0.2001 -0.0300
10543SOL    HW133497   4.940   5.908   3.186 -1.4418 -0.9464  0.7133
10543SOL    HW233498   5.023   6.024   3.239 -0.0291 -0.6516 -1.9504
10544SOL     OW33499   2.599   6.146   7.618  0.1205 -0.2590  0.3259
10544SOL    HW133500   2.573   6.194   7.697  0.2936 -1.4413  1.1238
10544SOL    HW233501   2.684   6.108   7.640  0.6148  0.1563 -0.7775
10545SOL     OW33502   1.360   3.508   5.019 -0.3749  0.5800 -0.4262
10545SOL    HW133503   1.380   3.576   5.083  0.5564 -0.2118  0.1570
10545SOL    HW233504   1.341   3.430   5.071  1.4918 -0.3743 -1.0752
10546SOL     OW33505   5.182   3.034   2.740  0.6508 -0.1104 -0.2160
10546SOL    HW133506   5.240   2.959   2.724 -0.0557 -0.6800 -0.1481
10546SOL    HW233507   5.094   2.998   2.736  0.3143  0.6060  0.4412
10547SOL     OW33508   3.779   6.183   4.637  0.3632  1.1105 -0.1598
10547SOL    HW133509   3.788   6.148   4.726  0.4175 -1.3668 -1.0586
10547SOL    HW233510   3.869   6.187   4.604  0.2538  0.9311 -0.4823
10548SOL     OW33511   8.141   7.652   5.811  0.2857  0.3021  0.7576
10548SOL    HW133512   8.058   7.638   5.856  0.8951  0.0595  1.8501
10548SOL    HW233513   8.146   7.746   5.798 -0.2865  0.2876  0.4406
10549SOL     OW33514   2.002   5.229   6.107 -0.6063  0.3515  0.4911
10549SOL    HW133515   2.035   5.159   6.050 -1.5822  0.6042 -0.4258
10549SOL    HW233516   1.940   5.276   6.052 -1.9859  0.2848  1.9374
10550SOL     OW33517   7.725   1.336   8.598  0.7091  0.8519  0.2628
10550SOL    HW133518   7.667   1.379   8.536 -0.1745  0.5985  0.8844
10550SOL    HW233519   7.668   1.273   8.644  1.4204  0.7560  1.0399
10551SOL     OW33520   8.798   0.864   5.508 -0.1387 -0.4203 -0.0721
10551SOL    HW133521   8.704   0.847   5.511 -0.0661 -0.8895 -0.3544
10551SOL    HW233522   8.820   0.862   5.415  0.1143 -0.0844 -0.0238
10552SOL     OW33523   6.366   5.668   7.805 -0.0355  0.3344 -0.0519
10552SOL    HW133524   6.276   5.641   7.821  0.2952 -2.0775 -1.7248
10552SOL    HW233525   6.419   5.598   7.844  1.0769  0.9076 -0.4854
10553SOL     OW33526   8.945   1.478   4.866  0.4040 -0.1579 -0.0390
10553SOL    HW133527   8.877   1.543   4.846  0.7120 -0.0761 -0.8871
10553SOL    HW233528   8.967   1.493   4.958  0.4374  0.9232 -0.2066
10554SOL     OW33529   4.886   4.683   6.136  0.2579  0.3960 -0.3407
10554SOL    HW133530   4.864   4.684   6.043 -1.5088 -0.8515  0.0247
10554SOL    HW233531   4.933   4.765   6.150  0.6660  0.5541 -2.3439
10555SOL     OW33532   0.918   8.065   0.529  0.3304 -0.5402  0.3526
10555SOL    HW133533   0.928   8.105   0.615 -0.1264 -1.5490  0.8808
10555SOL    HW233534   0.824   8.054   0.518  0.3718 -0.2875 -0.3485
10556SOL     OW33535   8.284   1.959   6.978  0.9374  0.1711 -0.1920
10556SOL    HW133536   8.328   1.901   7.041 -1.2684 -0.8370  0.5368
10556SOL    HW233537   8.314   2.047   7.001  3.5901 -0.5285 -0.6552
10557SOL     OW33538   1.310   4.939   5.200 -0.4579 -0.2450  0.0902
10557SOL    HW133539   1.314   4.988   5.282 -2.6964 -2.3122  1.5827
10557SOL    HW233540   1.398   4.903   5.190  0.0190  0.5194  1.2565
10558SOL     OW33541   2.856   8.057   1.013 -0.4283  0.4341  0.3060
10558SOL    HW133542   2.807   8.038   0.933  0.0402  0.1983  0.0731
10558SOL    HW233543   2.868   8.152   1.011  2.4274  0.1753 -1.6225
10559SOL     OW33544   1.119   5.359   7.590  0.1935  0.4503  0.0172
10559SOL    HW133545   1.198   5.368   7.536  0.6959  0.0993  0.6800
10559SOL    HW233546   1.066   5.435   7.566  0.6717  0.6243 -0.5333
10560SOL     OW33547   1.394   1.151   4.268  0.2022  0.2000  0.3923
10560SOL    HW133548   1.484   1.176   4.250  0.4956 -0.1292  1.3289
10560SOL    HW233549   1.353   1.230   4.303 -0.4598  0.9340 -1.8953
10561SOL     OW33550   2.874   2.514   4.312 -0.2463 -0.5706  0.6509
10561SOL    HW133551   2.904   2.451   4.246 -0.6340  0.1587 -0.2531
10561SOL    HW233552   2.810   2.465   4.364 -1.4352 -0.6202 -0.7854
10562SOL     OW33553   3.261   4.192   0.216 -0.6471  0.5686  0.0743
10562SOL    HW133554   3.225   4.215   0.302 -1.5849 -0.3497 -0.0672
10562SOL    HW233555   3.335   4.135   0.236 -1.6204 -0.6734  0.2588
10563SOL     OW33556   1.006   6.895   5.300  0.4046  0.4428 -0.0094
10563SOL    HW133557   0.999   6.870   5.208  0.2060  0.6453 -0.0518
10563SOL    HW233558   0.969   6.984   5.303 -1.3479 -0.2519  0.5703
10564SOL     OW33559   5.095   4.223   4.823  0.2421  0.0192  0.3801
10564SOL    HW133560   5.106   4.212   4.728  1.3048 -1.9382  0.6824
10564SOL    HW233561   5.046   4.305   4.832  0.1874  0.2911 -1.8498
10565SOL     OW33562   4.653   5.182   3.780 -0.3986  0.0596 -0.0557
10565SOL    HW133563   4.581   5.144   3.830 -1.5608  0.9791 -0.9882
10565SOL    HW233564   4.611   5.241   3.718  1.1842  0.8575 -0.4212
10566SOL     OW33565   8.510   1.068   4.095  0.3437  0.1543  0.0113
10566SOL    HW133566   8.512   1.130   4.022 -0.7476  0.9986  0.6622
10566SOL    HW233567   8.416   1.052   4.111  0.5380  0.3343  1.4952
10567SOL     OW33568   3.706   2.537   0.998  0.7728  0.5940  0.1476
10567SOL    HW133569   3.679   2.464   0.942 -0.1881  0.7670  0.3589
10567SOL    HW233570   3.674   2.514   1.085  0.8806  1.0491  0.3090
10568SOL     OW33571   6.517   8.324   0.124 -0.0077 -0.2773  0.2559
10568SOL    HW133572   6.547   8.236   0.147 -0.6128 -0.6451 -0.3336
10568SOL    HW233573   6.592   8.380   0.142  0.2310 -0.8472  1.0907
10569SOL     OW33574   3.596   5.425   0.802 -0.5394 -0.0729 -0.6430
10569SOL    HW133575   3.507   5.395   0.818  0.2508 -1.5335  1.5206
10569SOL    HW233576   3.603   5.433   0.707 -3.5680  2.1170 -0.8194
10570SOL     OW33577   2.915   0.175   7.151  1.1125 -0.3235 -0.1617
10570SOL    HW133578   2.890   0.131   7.070  1.3458  1.1937 -1.0941
10570SOL    HW233579   3.005   0.148   7.167  1.2528 -0.1992 -0.7229
10571SOL     OW33580   3.931   1.130   2.087  0.0422 -1.0866  0.0812
10571SOL    HW133581   3.853   1.178   2.115  0.9823  0.1998  0.6109
10571SOL    HW233582   3.993   1.142   2.159  0.9107 -1.6473 -0.5558
10572SOL     OW33583   7.009   7.873   7.665 -0.4326 -0.1197  0.7066
10572SOL    HW133584   7.074   7.850   7.598 -1.2441 -0.7955  0.1308
10572SOL    HW233585   6.951   7.798   7.669 -1.3513  0.5834  0.9981
10573SOL     OW33586   7.667   8.832   8.982  0.2708 -0.6971 -0.2425
10573SOL    HW133587   7.600   8.776   8.942  0.5977 -2.1596  1.1369
10573SOL    HW233588   7.744   8.821   8.925 -0.0880 -0.5210 -0.7696
10574SOL     OW33589   2.060   7.377   0.513 -0.0233  0.1081 -0.4975
10574SOL    HW133590   2.084   7.447   0.574 -0.9365  0.4757 -0.5347
10574SOL    HW233591   2.130   7.377   0.447  0.3619  0.4951 -0.0926
10575SOL     OW33592   3.200   2.099   0.185 -0.2114 -0.3878 -0.0275
10575SOL    HW133593   3.238   2.135   0.105 -1.6219  0.0510 -0.5294
10575SOL    HW233594   3.247   2.017   0.200  0.3515 -0.2678 -1.0715
10576SOL     OW33595   7.729   5.691   3.057  0.3679 -0.1234 -0.0736
10576SOL    HW133596   7.778   5.772   3.075  1.0117 -0.2248 -1.2894
10576SOL    HW233597   7.681   5.674   3.138  1.6114  0.5050  0.8304
10577SOL     OW33598   7.859   0.431   6.747  0.1967 -0.4005 -0.1457
10577SOL    HW133599   7.788   0.424   6.683 -0.3322 -0.7461  0.4687
10577SOL    HW233600   7.892   0.341   6.757  1.4649 -0.0875 -1.2406
10578SOL     OW33601   5.877   5.462   3.368 -0.2040  0.0681 -0.1062
10578SOL    HW133602   5.900   5.372   3.392 -1.5306 -0.2337  0.1071
10578SOL    HW233603   5.791   5.476   3.408 -0.9526  0.7192 -1.8625
10579SOL     OW33604   3.571   8.374   4.315 -0.9504 -0.3015 -0.2345
10579SOL    HW133605   3.651   8.354   4.364 -0.1085 -0.6498 -1.7039
10579SOL    HW233606   3.500   8.336   4.368 -0.1825  0.1319  1.1572
10580SOL     OW33607   7.408   8.986   7.082  0.3317  0.0521 -0.0990
10580SOL    HW133608   7.416   9.081   7.090 -2.2764  0.3904 -0.6175
10580SOL    HW233609   7.338   8.973   7.019 -1.4009 -2.1528  2.0985
10581SOL     OW33610   7.176   3.161   6.856  0.2728  0.0444  0.0264
10581SOL    HW133611   7.186   3.249   6.821  0.8329  0.2284  0.6394
10581SOL    HW233612   7.254   3.114   6.827  0.7662  0.2099  1.0476
10582SOL     OW33613   5.518   7.047   8.238  0.0174 -0.5239  0.1434
10582SOL    HW133614   5.442   7.096   8.207 -0.9813 -2.8436 -1.3780
10582SOL    HW233615   5.586   7.065   8.174 -0.0951 -0.5092  0.0275
10583SOL     OW33616   2.987   1.797   3.237  0.9178 -0.5012 -0.3217
10583SOL    HW133617   3.033   1.869   3.194  0.8986  0.5056  1.2489
10583SOL    HW233618   2.912   1.839   3.279  0.3756 -1.6044 -0.1681
10584SOL     OW33619   5.087   8.857   3.264  0.3319 -0.3028 -0.3455
10584SOL    HW133620   5.045   8.886   3.345  2.0461  1.3387  0.0374
10584SOL    HW233621   5.048   8.910   3.196  0.8099  0.2726 -0.1800
10585SOL     OW33622   1.579   4.047   7.863  0.0249 -0.3477  0.1617
10585SOL    HW133623   1.612   3.979   7.804 -1.1009 -0.1443 -0.7355
10585SOL    HW233624   1.604   4.018   7.951 -2.3684 -3.1358  0.0591
10586SOL     OW33625   7.007   2.593   6.485  0.7434  0.3616  0.5277
10586SOL    HW133626   6.936   2.615   6.425  0.3222 -0.3818  0.7552
10586SOL    HW233627   7.030   2.677   6.526  1.1592  0.9200 -0.7718
10587SOL     OW33628   0.051   2.430   3.354  0.6518  0.1717  0.6349
10587SOL    HW133629  -0.028   2.377   3.366  0.3722  0.3699 -0.2403
10587SOL    HW233630   0.051   2.452   3.261  1.5407  0.4943  0.7019
10588SOL     OW33631   3.147   3.968   2.335  0.2759 -0.2443 -0.4687
10588SOL    HW133632   3.206   3.984   2.408  2.8729 -1.6282 -2.0906
10588SOL    HW233633   3.065   3.940   2.375  1.6763 -1.2106  1.9224
10589SOL     OW33634   7.969   4.466   1.146  0.3656 -0.2700 -0.8146
10589SOL    HW133635   7.888   4.416   1.143  0.7923 -1.0689  0.6225
10589SOL    HW233636   7.940   4.557   1.155 -0.3771 -0.4309 -1.4728
10590SOL     OW33637   2.825   1.748   6.070  0.5893 -0.5621  0.0354
10590SOL    HW133638   2.843   1.808   5.997  0.9412 -2.6474 -1.6653
10590SOL    HW233639   2.903   1.693   6.077  0.8782  0.0293  2.5346
10591SOL     OW33640   7.741   8.304   8.189  0.2523 -0.1810 -0.0338
10591SOL    HW133641   7.743   8.388   8.235 -1.3210 -0.4486  0.5683
10591SOL    HW233642   7.832   8.289   8.165  0.8010  0.9796  1.1489
10592SOL     OW33643   2.012   5.280   4.808  0.0605  0.6123 -0.1294
10592SOL    HW133644   2.092   5.331   4.809  1.3798 -1.3320  1.0983
10592SOL    HW233645   1.974   5.292   4.895 -0.2274  0.4014 -0.2223
10593SOL     OW33646   4.041   4.047   8.253  0.2128 -0.0487  0.5727
10593SOL    HW133647   4.046   3.972   8.313 -1.8485 -0.5838  0.1388
10593SOL    HW233648   3.949   4.072   8.253  0.1038 -0.0881 -2.3891
10594SOL     OW33649   4.017   2.051   4.443 -0.9130 -0.6290 -0.1570
10594SOL    HW133650   4.101   2.023   4.479 -0.2137  0.9357 -0.5114
10594SOL    HW233651   3.972   2.093   4.517 -0.0484  1.3377 -0.6768
10595SOL     OW33652   2.923   3.826   2.039 -0.2342  0.0858  0.3532
10595SOL    HW133653   2.963   3.798   1.956  2.3702 -0.5939  1.7451
10595SOL    HW233654   2.909   3.921   2.028  0.4871  0.0854 -0.6957
10596SOL     OW33655   1.041   7.589   5.059  0.0005  0.6816  0.1752
10596SOL    HW133656   1.088   7.632   5.131  0.2172  0.6549  0.0503
10596SOL    HW233657   1.109   7.543   5.010 -0.2791 -0.2019  0.5807
10597SOL     OW33658   2.286   8.190   2.723 -0.7491 -0.3164  0.4275
10597SOL    HW133659   2.263   8.213   2.813  1.2030 -0.0533  0.9050
10597SOL    HW233660   2.229   8.244   2.669 -0.2892  1.3447  1.5362
10598SOL     OW33661   8.158   6.430   1.500  0.6687  0.5388  0.4801
10598SOL    HW133662   8.142   6.456   1.410  1.7392  1.9684  0.6751
10598SOL    HW233663   8.187   6.339   1.495  1.3952  0.8230 -0.6799
10599SOL     OW33664   0.891   2.706   2.761  0.9086 -0.1294  0.1888
10599SOL    HW133665   0.979   2.728   2.728  0.5218  0.0579 -0.7458
10599SOL    HW233666   0.839   2.784   2.746  0.3768 -0.5133 -0.0129
10600SOL     OW33667   2.674   0.809   5.104  0.1668 -0.0781 -0.2115
10600SOL    HW133668   2.689   0.875   5.036  1.0826 -0.6631 -0.5992
10600SOL    HW233669   2.657   0.728   5.056 -0.9413 -0.1398  0.2633
10601SOL     OW33670   4.114   5.036   4.704  0.2225 -0.2704  0.0881
10601SOL    HW133671   4.121   5.005   4.614  0.7155 -1.8479  0.6407
10601SOL    HW233672   4.176   5.109   4.709 -1.3289  1.2568 -1.3712
10602SOL     OW33673   5.775   0.241   3.411  0.1156 -0.0544 -0.1787
10602SOL    HW133674   5.844   0.305   3.393 -1.3844  1.1598 -2.0672
10602SOL    HW233675   5.701   0.293   3.440  0.0516 -1.3859  2.3163
10603SOL     OW33676   3.844   4.918   4.306  0.2165 -0.3102  0.0500
10603SOL    HW133677   3.758   4.926   4.347 -0.0290  0.3577 -0.5782
10603SOL    HW233678   3.831   4.949   4.217  0.6457 -2.0723 -0.6791
10604SOL     OW33679   3.202   4.019   4.728  0.3259  0.1796  0.3929
10604SOL    HW133680   3.112   4.045   4.709  0.7889  0.5313 -1.5471
10604SOL    HW233681   3.193   3.944   4.787 -1.3226 -0.8817 -1.0969
10605SOL     OW33682   1.178   0.986   4.574 -0.5646 -0.4412 -0.2855
10605SOL    HW133683   1.084   0.996   4.589 -0.7859 -1.3336 -0.9928
10605SOL    HW233684   1.209   1.076   4.562 -2.0452 -0.2202 -3.9232
10606SOL     OW33685   5.877   8.833   6.332 -0.6599 -0.0059 -0.4426
10606SOL    HW133686   5.802   8.875   6.289  0.8125  0.9449 -2.1986
10606SOL    HW233687   5.911   8.900   6.391  0.6169  0.6942 -1.9251
10607SOL     OW33688   7.744   2.863   0.697  0.0114  0.1643  0.1162
10607SOL    HW133689   7.698   2.843   0.778 -0.4152 -0.1561 -0.1960
10607SOL    HW233690   7.829   2.821   0.705 -0.2152 -0.2808  0.1993
10608SOL     OW33691   8.455   4.190   1.558  0.1922  0.8244  0.4923
10608SOL    HW133692   8.415   4.117   1.510  1.9997  0.1198 -0.0566
10608SOL    HW233693   8.413   4.189   1.644  0.4881 -1.1806  0.6566
10609SOL     OW33694   4.409   0.673   7.433  0.5174  0.4450 -0.0881
10609SOL    HW133695   4.335   0.681   7.372  0.9161  1.4894 -0.4655
10609SOL    HW233696   4.479   0.634   7.380  0.8879  1.4223 -0.3470
10610SOL     OW33697   3.784   1.594   7.893 -0.0935 -0.9414 -0.0895
10610SOL    HW133698   3.777   1.500   7.908 -1.7493 -0.8546 -0.1003
10610SOL    HW233699   3.736   1.633   7.966  0.9515 -0.0619  0.1593
10611SOL     OW33700   2.810   1.537   7.220 -0.4122  0.7315 -0.4485
10611SOL    HW133701   2.891   1.532   7.271 -1.6207  0.7339  1.5789
10611SOL    HW233702   2.837   1.578   7.137  1.8308 -0.2706 -0.2964
10612SOL     OW33703   1.195   3.013   0.177 -0.1673 -0.2048 -0.3203
10612SOL    HW133704   1.206   2.934   0.125 -0.2991  1.0322 -2.3348
10612SOL    HW233705   1.250   3.078   0.134  1.2621  0.4314  2.2558
10613SOL     OW33706   1.147   5.473   4.990  0.1225 -0.2057 -0.3918
10613SOL    HW133707   1.064   5.494   4.948  0.1001  1.3633  0.3519
10613SOL    HW233708   1.140   5.511   5.078  1.1624 -1.1064  0.1012
10614SOL     OW33709   1.966   4.242   2.461 -0.4818  0.7173 -0.1918
10614SOL    HW133710   1.911   4.177   2.416  0.8730  1.1000 -2.6059
10614SOL    HW233711   2.056   4.215   2.440  0.1405  2.6095 -0.1420
10615SOL     OW33712   7.611   0.337   0.699 -0.1257 -0.2782 -0.5557
10615SOL    HW133713   7.700   0.328   0.668  0.2615 -1.1057  0.7077
10615SOL    HW233714   7.556   0.318   0.623  0.7691 -0.5515 -1.1413
10616SOL     OW33715   6.951   3.594   5.451 -0.0477  0.2175 -0.1180
10616SOL    HW133716   6.945   3.614   5.545 -1.1838  0.6593 -0.2676
10616SOL    HW233717   6.985   3.675   5.412  2.1532 -0.5415  0.0909
10617SOL     OW33718   4.606   8.778   2.251 -0.3860 -0.4237 -0.4042
10617SOL    HW133719   4.516   8.746   2.263 -0.6367  0.0465 -1.0201
10617SOL    HW233720   4.615   8.789   2.157 -0.2513  1.1881 -0.2240
10618SOL     OW33721   3.403   7.865   3.669  0.0502 -0.4933 -0.3959
10618SOL    HW133722   3.497   7.865   3.647  0.5965 -0.0558  1.7068
10618SOL    HW233723   3.373   7.952   3.642  1.2162  0.8825  2.2832
10619SOL     OW33724   2.215   5.153   7.589  0.0951  0.0838  0.0803
10619SOL    HW133725   2.284   5.143   7.524  0.4620 -1.9157  0.7176
10619SOL    HW233726   2.238   5.232   7.637  1.1289  0.2580 -0.6730
10620SOL     OW33727   1.538   5.781   4.702 -0.2695  0.3895 -0.7386
10620SOL    HW133728   1.509   5.697   4.736  0.4267  0.2278 -0.5260
10620SOL    HW233729   1.457   5.833   4.693 -0.6521 -0.1583 -0.4929
10621SOL     OW33730   3.179   5.703   8.196  0.4552 -0.8985  0.6220
10621SOL    HW133731   3.173   5.618   8.153 -1.5918 -1.6088  2.1531
10621SOL    HW233732   3.101   5.707   8.252  2.5871  0.1549  3.8116
10622SOL     OW33733   0.889   2.309   6.133 -0.5808 -0.9375 -0.0525
10622SOL    HW133734   0.887   2.346   6.045 -2.2516 -0.6921  0.0500
10622SOL    HW233735   0.801   2.325   6.167  0.7403  1.5039  2.7173
10623SOL     OW33736   4.130   4.161   4.238 -0.5891 -0.1234  0.1610
10623SOL    HW133737   4.153   4.083   4.186 -1.0335  1.2509 -2.2411
10623SOL    HW233738   4.034   4.167   4.230 -0.7463 -0.1918  1.6912
10624SOL     OW33739   6.139   7.581   7.832 -0.4690 -0.2783 -0.9733
10624SOL    HW133740   6.218   7.585   7.779 -0.3460 -0.9659 -0.8508
10624SOL    HW233741   6.117   7.488   7.836 -0.1607 -0.3140  0.6163
10625SOL     OW33742   1.823   2.688   7.304 -0.4002 -0.2598  0.0207
10625SOL    HW133743   1.798   2.622   7.369  0.2362 -0.8553 -0.3204
10625SOL    HW233744   1.891   2.739   7.348 -0.7112  0.0015  0.1952
10626SOL     OW33745   0.989   8.547   1.225 -0.0633  0.1222 -0.0304
10626SOL    HW133746   1.002   8.641   1.213 -1.6630  0.4265  0.3671
10626SOL    HW233747   1.071   8.507   1.197  0.5226  1.6138 -0.5102
10627SOL     OW33748   1.473   8.943   0.930 -0.5558  0.5311 -0.0395
10627SOL    HW133749   1.513   9.004   0.868 -0.7843  2.4310  1.5651
10627SOL    HW233750   1.379   8.960   0.922 -0.6126  0.5015  0.5254
10628SOL     OW33751   1.719   7.394   1.857 -0.7622 -0.0521  0.1173
10628SOL    HW133752   1.799   7.343   1.846  0.2174  1.5314 -0.3234
10628SOL    HW233753   1.652   7.343   1.812 -0.1538 -1.7218  1.0385
10629SOL     OW33754   3.500   3.658   6.826 -0.1778  0.1021  0.1450
10629SOL    HW133755   3.578   3.676   6.774  0.4128 -1.4786  0.4073
10629SOL    HW233756   3.514   3.569   6.860 -1.7209  0.0974  0.8722
10630SOL     OW33757   6.694   8.675   5.291  0.5290  0.4458 -0.1572
10630SOL    HW133758   6.606   8.699   5.264  1.4234  2.2414 -1.7447
10630SOL    HW233759   6.751   8.741   5.249  2.6961 -1.1937  0.0099
10631SOL     OW33760   7.233   4.725   0.980 -0.3598 -0.1636 -0.2710
10631SOL    HW133761   7.222   4.727   1.075 -0.4489 -0.0576 -0.2823
10631SOL    HW233762   7.324   4.750   0.965  0.3244 -2.3971 -0.1089
10632SOL     OW33763   8.846   5.739   1.703  0.3165 -0.5263  0.4169
10632SOL    HW133764   8.756   5.732   1.668 -0.0956  2.1038  0.7559
10632SOL    HW233765   8.893   5.788   1.636  1.0322 -0.3518  1.0441
10633SOL     OW33766   5.097   7.053   8.532  0.0932 -0.2961  0.3627
10633SOL    HW133767   5.165   6.991   8.561  1.1779  0.7661  0.1592
10633SOL    HW233768   5.107   7.056   8.437  1.0233  1.2585  0.4839
10634SOL     OW33769   6.459   0.313   0.861 -0.0580  0.2400 -0.1303
10634SOL    HW133770   6.400   0.249   0.900 -0.3515  0.3394 -0.4084
10634SOL    HW233771   6.404   0.363   0.800  0.8458 -1.6031 -2.6720
10635SOL     OW33772   1.925   0.686   5.801 -0.4459  0.0809  0.2310
10635SOL    HW133773   1.976   0.762   5.830 -0.0295 -0.2305  0.3224
10635SOL    HW233774   1.978   0.645   5.733 -0.1100 -0.8003  1.0048
10636SOL     OW33775   3.921   1.418   1.935  0.1581 -0.4534  0.0465
10636SOL    HW133776   3.983   1.463   1.877  1.3747 -2.0431  0.0606
10636SOL    HW233777   3.938   1.325   1.921 -2.4078 -0.9680 -0.1023
10637SOL     OW33778   0.030   2.808   7.930 -0.1248 -0.4361  0.4342
10637SOL    HW133779  -0.034   2.877   7.943  1.1241  0.8831 -0.1783
10637SOL    HW233780   0.053   2.779   8.018 -0.6766 -0.0987  0.6944
10638SOL     OW33781   5.493   6.151   4.557  0.2011 -0.1605  0.1170
10638SOL    HW133782   5.417   6.209   4.561  1.8548  2.3029 -1.3840
10638SOL    HW233783   5.555   6.189   4.619  1.2301 -0.4745 -0.6961
10639SOL     OW33784   7.857   8.073   1.162 -0.0397  0.4537 -0.2372
10639SOL    HW133785   7.924   8.014   1.195 -0.0053 -0.0425 -1.1733
10639SOL    HW233786   7.893   8.161   1.177 -0.9519  0.3872  3.0406
10640SOL     OW33787   1.381   2.061   6.070 -0.0619  0.1617 -0.0475
10640SOL    HW133788   1.320   2.073   5.997 -1.5957 -2.3710  0.6946
10640SOL    HW233789   1.439   2.138   6.065 -1.9682  1.6217 -2.0615
10641SOL     OW33790   8.581   8.542   1.260  0.5363 -0.0662 -0.0140
10641SOL    HW133791   8.622   8.580   1.182  0.7339  0.8151  0.5031
10641SOL    HW233792   8.617   8.593   1.333  1.8365 -2.0807  0.8554
10642SOL     OW33793   7.468   1.119   2.933 -0.0739 -0.2638  0.2553
10642SOL    HW133794   7.557   1.108   2.967 -0.7258 -1.1526  1.7640
10642SOL    HW233795   7.464   1.058   2.859  0.3433 -0.8089  0.6684
10643SOL     OW33796   1.841   1.712   0.718 -0.1734  0.5889 -0.4368
10643SOL    HW133797   1.779   1.696   0.646 -0.1967  1.4064 -0.6125
10643SOL    HW233798   1.927   1.709   0.676 -0.1357  0.2021 -0.3335
10644SOL     OW33799   5.352   6.629   8.860 -0.0433 -0.1242 -0.6301
10644SOL    HW133800   5.394   6.578   8.791  1.0754  2.0573 -1.6459
10644SOL    HW233801   5.268   6.657   8.822  0.1114  0.2213 -0.7155
10645SOL     OW33802   3.169   4.431   7.738  0.1627 -0.0035 -0.1856
10645SOL    HW133803   3.208   4.344   7.739 -0.1577 -0.1906 -1.4221
10645SOL    HW233804   3.205   4.472   7.659 -0.8145  0.4350 -0.4179
10646SOL     OW33805   2.083   1.367   0.636 -0.0066 -0.2509  0.1196
10646SOL    HW133806   2.045   1.294   0.686 -1.0109  0.3104  0.1991
10646SOL    HW233807   2.035   1.367   0.553  0.6768 -0.2933 -0.2776
10647SOL     OW33808   5.395   4.077   1.872 -0.3837  0.2781  0.4014
10647SOL    HW133809   5.480   4.073   1.829 -1.2443 -0.1977 -1.3477
10647SOL    HW233810   5.350   3.998   1.844 -0.5605 -0.7621  3.2831
10648SOL     OW33811   8.994   6.330   1.020  0.2385  0.1657  0.5935
10648SOL    HW133812   9.008   6.402   0.959 -1.6297  0.7758  0.8035
10648SOL    HW233813   8.975   6.255   0.965 -1.3619  0.6967  0.3664
10649SOL     OW33814   4.097   3.268   3.042 -0.5207  0.2847 -0.2278
10649SOL    HW133815   4.106   3.321   3.121  1.0651 -0.9111  0.4589
10649SOL    HW233816   4.148   3.314   2.975  1.0171 -0.3940  0.4195
10650SOL     OW33817   0.525   0.340   0.859  0.3483  0.1469  0.1094
10650SOL    HW133818   0.576   0.280   0.914 -0.8285 -0.3415  0.7023
10650SOL    HW233819   0.528   0.424   0.906  0.6178  0.1305  0.1262
10651SOL     OW33820   3.100   1.483   2.884  0.2134  0.8159  0.2089
10651SOL    HW133821   3.165   1.419   2.856 -1.5986 -2.1935  2.3264
10651SOL    HW233822   3.042   1.493   2.808 -0.4499 -1.5111  0.3257
10652SOL     OW33823   5.342   0.914   4.412  0.0078  0.9615 -0.2842
10652SOL    HW133824   5.323   0.929   4.319  1.4680 -0.4533 -0.8664
10652SOL    HW233825   5.407   0.980   4.435  2.4270 -0.9015 -1.3578
10653SOL     OW33826   0.444   3.911   4.065 -0.1434  0.2690 -0.7318
10653SOL    HW133827   0.385   3.944   3.997 -0.3845 -0.1612 -0.7379
10653SOL    HW233828   0.521   3.967   4.060 -0.2807  0.4202 -1.1674
10654SOL     OW33829   3.067   0.113   0.301  0.4040  0.7201  0.6412
10654SOL    HW133830   3.136   0.117   0.236 -0.6497 -0.6994 -0.6277
10654SOL    HW233831   2.986   0.131   0.252 -0.3442  0.3492  1.6881
10655SOL     OW33832   5.444   0.121   8.385 -0.0712  0.3379  0.5086
10655SOL    HW133833   5.422   0.120   8.478 -1.3609 -1.8919  0.2637
10655SOL    HW233834   5.519   0.062   8.378  0.0883  0.5810  0.1435
10656SOL     OW33835   1.653   2.462   4.347  0.0443 -0.4505  0.0309
10656SOL    HW133836   1.746   2.454   4.365 -0.3750 -2.5552  1.5593
10656SOL    HW233837   1.630   2.550   4.377  1.5743  0.2906 -0.8223
10657SOL     OW33838   5.549   0.823   2.420  0.1952  0.0232 -0.4444
10657SOL    HW133839   5.561   0.917   2.434  1.5912 -0.0592 -0.9772
10657SOL    HW233840   5.468   0.817   2.369  0.3518  0.9724 -0.8250
10658SOL     OW33841   3.356   5.647   2.317  0.2829 -0.2173 -0.1664
10658SOL    HW133842   3.423   5.624   2.381  1.2695  0.3732 -0.9696
10658SOL    HW233843   3.333   5.564   2.275  0.6359 -0.3926 -0.0151
10659SOL     OW33844   1.095   0.253   6.819  0.2350  0.0906 -0.4724
10659SOL    HW133845   1.007   0.282   6.840  0.4738  0.4066  0.1416
10659SOL    HW233846   1.127   0.316   6.754 -0.6937 -1.1882 -2.2544
10660SOL     OW33847   2.514   6.087   8.242 -0.5504 -0.7920 -0.3598
10660SOL    HW133848   2.603   6.060   8.221 -0.1701 -1.0960  1.5294
10660SOL    HW233849   2.477   6.115   8.157  1.6715  0.3835 -1.0215
10661SOL     OW33850   7.901   7.215   2.070  0.2036  0.1639  0.0533
10661SOL    HW133851   7.942   7.159   2.004  0.9071  0.1563  0.4875
10661SOL    HW233852   7.932   7.181   2.153 -0.9058 -0.0047  0.4214
10662SOL     OW33853   3.348   7.949   8.456  0.1823  0.4485  0.1120
10662SOL    HW133854   3.384   7.864   8.430  0.5161  0.5266  0.3144
10662SOL    HW233855   3.304   7.932   8.539 -0.0061  0.4119  0.0056
10663SOL     OW33856   7.336   0.132   7.823 -0.3424  0.0813  0.6523
10663SOL    HW133857   7.294   0.047   7.838  0.5431 -0.8375 -1.6859
10663SOL    HW233858   7.277   0.177   7.763  0.0232  0.4486  0.5653
10664SOL     OW33859   3.537   7.103   6.572 -0.2565 -0.2237 -0.3123
10664SOL    HW133860   3.530   7.162   6.646 -0.9488 -0.6586 -0.0191
10664SOL    HW233861   3.451   7.062   6.565  0.1740 -1.1346 -0.5565
10665SOL     OW33862   8.865   5.227   8.566  0.4401  0.4714  0.1554
10665SOL    HW133863   8.873   5.220   8.661 -0.9169 -0.4091  0.2195
10665SOL    HW233864   8.776   5.199   8.547  1.2006 -0.9518 -1.5403
10666SOL     OW33865   5.687   1.256   0.474 -0.5872 -0.2023  0.5749
10666SOL    HW133866   5.640   1.338   0.489  0.6034  1.7209 -4.2522
10666SOL    HW233867   5.772   1.283   0.439  0.9096 -3.5826  1.2242
10667SOL     OW33868   1.400   2.346   6.551  0.1698  0.1637  0.1069
10667SOL    HW133869   1.466   2.285   6.517 -0.6000  0.3376 -1.8361
10667SOL    HW233870   1.432   2.432   6.525 -0.5456  0.2886 -0.3817
10668SOL     OW33871   5.562   8.065   6.834 -0.5464 -0.5003 -0.2443
10668SOL    HW133872   5.603   7.982   6.857 -0.6214 -0.3551  0.4345
10668SOL    HW233873   5.614   8.099   6.761 -1.0125 -1.5321 -1.0729
10669SOL     OW33874   7.938   0.348   6.460 -0.1024 -0.3680  0.2020
10669SOL    HW133875   7.908   0.257   6.460 -0.0848 -0.3974 -1.3162
10669SOL    HW233876   7.885   0.391   6.527  0.5867 -1.6987  1.6681
10670SOL     OW33877   6.831   4.840   2.115 -0.0090 -0.0193 -0.0264
10670SOL    HW133878   6.919   4.817   2.145 -0.2523  0.8946  1.4929
10670SOL    HW233879   6.845   4.884   2.032  0.9207 -0.3760 -0.0749
10671SOL     OW33880   0.151   4.974   3.856  0.4040 -0.5947  0.2256
10671SOL    HW133881   0.132   5.035   3.927 -0.3048  0.5439 -0.9000
10671SOL    HW233882   0.234   5.004   3.819 -0.4227  0.3379 -0.9544
10672SOL     OW33883   0.766   2.954   0.755 -0.3657  0.1067  0.2967
10672SOL    HW133884   0.799   3.043   0.763  0.6034 -0.3250  1.3994
10672SOL    HW233885   0.826   2.912   0.692  0.2782 -0.2459  1.1276
10673SOL     OW33886   5.372   8.257   8.225 -0.4003  0.0281  0.4222
10673SOL    HW133887   5.371   8.179   8.170 -1.4183 -0.3625  0.9715
10673SOL    HW233888   5.407   8.228   8.309  0.8154  0.5477  0.1180
10674SOL     OW33889   0.753   5.260   8.614  0.1476 -0.5879  0.1020
10674SOL    HW133890   0.756   5.196   8.542 -0.8781  0.5294 -0.9585
10674SOL    HW233891   0.807   5.333   8.583  0.5300 -0.5301  0.9032
10675SOL     OW33892   2.460   1.683   3.422  0.0213 -0.4567 -0.4668
10675SOL    HW133893   2.385   1.734   3.390 -1.0430 -1.9656 -0.4740
10675SOL    HW233894   2.492   1.637   3.345  0.1850 -0.7554 -0.2202
10676SOL     OW33895   0.616   8.318   0.556  0.3144  0.2228 -0.4798
10676SOL    HW133896   0.658   8.381   0.613 -0.2112 -0.2229  0.4181
10676SOL    HW233897   0.538   8.363   0.523 -0.7751 -0.3434  1.1775
10677SOL     OW33898   4.634   6.111   8.454  0.2635 -0.4781 -0.6135
10677SOL    HW133899   4.642   6.016   8.449 -1.1850 -0.6061 -0.9240
10677SOL    HW233900   4.560   6.132   8.397  0.5812  0.8422 -0.5751
10678SOL     OW33901   3.984   1.475   0.954 -0.0868  0.4092  0.1436
10678SOL    HW133902   3.945   1.521   1.029 -0.8992  0.0089 -0.0194
10678SOL    HW233903   3.922   1.405   0.935  1.8422 -1.7142  1.3211
10679SOL     OW33904   7.490   5.350   3.398  0.0171 -0.0220 -0.0594
10679SOL    HW133905   7.448   5.334   3.483 -0.3413 -3.7357 -0.8107
10679SOL    HW233906   7.417   5.373   3.340  0.0591  0.8485  0.2059
10680SOL     OW33907   1.572   2.699   1.907  0.3734 -0.5446 -0.2235
10680SOL    HW133908   1.648   2.717   1.963  1.3327 -1.3425 -1.2256
10680SOL    HW233909   1.603   2.633   1.845 -0.4178  0.8882 -2.2430
10681SOL     OW33910   5.339   8.549   4.942 -0.0549  0.6223  0.0425
10681SOL    HW133911   5.420   8.502   4.960  0.1886  0.6307 -0.9737
10681SOL    HW233912   5.306   8.510   4.862 -0.9107  0.8231  0.2908
10682SOL     OW33913   8.588   7.217   2.206 -0.2622 -0.4323 -0.4182
10682SOL    HW133914   8.532   7.284   2.245 -0.2813 -0.4981 -0.3336
10682SOL    HW233915   8.561   7.136   2.249  0.6283 -0.3097  0.4247
10683SOL     OW33916   8.666   4.572   8.390  0.2329 -0.4424  0.1468
10683SOL    HW133917   8.662   4.517   8.468  1.3354  1.5133  1.6657
10683SOL    HW233918   8.630   4.656   8.418  0.7178  0.3330 -1.4412
10684SOL     OW33919   6.087   6.178   7.724  0.6066 -0.2511  0.6905
10684SOL    HW133920   6.151   6.147   7.660  0.3473  0.3874  0.1114
10684SOL    HW233921   6.117   6.143   7.808  1.9269  0.3767  0.4895
10685SOL     OW33922   4.437   2.191   6.358  0.5999  0.2253  0.1207
10685SOL    HW133923   4.464   2.099   6.350  0.5426  0.3513 -1.8069
10685SOL    HW233924   4.418   2.201   6.452  3.2085 -0.9961  0.8955
10686SOL     OW33925   1.018   3.072   4.615  0.1048  0.3802  0.5123
10686SOL    HW133926   1.087   3.025   4.570  0.6362  2.2461 -0.7544
10686SOL    HW233927   0.945   3.011   4.620  0.0147  0.0405 -2.9198
10687SOL     OW33928   3.810   4.665   1.116 -0.0439 -0.0608 -0.3751
10687SOL    HW133929   3.766   4.622   1.189  0.4791 -2.1588 -1.2094
10687SOL    HW233930   3.786   4.613   1.039  2.4793 -0.3159 -1.1019
10688SOL     OW33931   2.737   5.292   6.488  0.6202 -0.0958 -0.1174
10688SOL    HW133932   2.670   5.357   6.509  2.8779  2.7359 -1.1388
10688SOL    HW233933   2.712   5.259   6.402 -1.0282 -1.3872  0.7840
10689SOL     OW33934   6.652   8.169   3.171  0.0500  0.2023  0.3439
10689SOL    HW133935   6.642   8.075   3.186  0.4001  0.2159  0.6635
10689SOL    HW233936   6.733   8.193   3.215  0.0945  0.6101  0.0532
10690SOL     OW33937   4.496   6.081   6.186 -0.3759 -0.1308 -0.2472
10690SOL    HW133938   4.460   6.143   6.250  1.2720  0.1446  0.4665
10690SOL    HW233939   4.461   5.996   6.211 -2.0898  0.3719 -0.7975
10691SOL     OW33940   0.660   4.368   7.597  0.0762 -0.0007 -0.2906
10691SOL    HW133941   0.705   4.288   7.624  1.0394  1.0963  1.5066
10691SOL    HW233942   0.589   4.379   7.660 -1.3654 -0.4901 -1.7524
10692SOL     OW33943   3.008   5.341   7.610  0.2613 -0.4748 -0.1233
10692SOL    HW133944   2.979   5.293   7.532 -0.9240 -1.0019  0.6166
10692SOL    HW233945   3.088   5.295   7.637 -0.4499 -1.5855  0.1489
10693SOL     OW33946   6.340   7.665   7.672 -0.0112 -0.2844 -0.1337
10693SOL    HW133947   6.312   7.753   7.645 -0.8874 -0.8925 -1.3058
10693SOL    HW233948   6.366   7.622   7.590 -0.8065 -1.5353  0.2459
10694SOL     OW33949   0.820   4.091   2.885  0.2382  0.6291 -0.1143
10694SOL    HW133950   0.771   4.102   2.804 -0.4466  1.4142  0.3882
10694SOL    HW233951   0.756   4.106   2.955  0.3323 -2.0308  0.6323
10695SOL     OW33952   3.989   2.751   2.631  0.6181 -0.5334 -0.0543
10695SOL    HW133953   3.906   2.752   2.584  1.0077 -0.7291 -0.7619
10695SOL    HW233954   3.973   2.804   2.709 -0.1068 -0.3900 -0.2907
10696SOL     OW33955   7.065   7.889   8.636 -0.3139  0.2791  0.2897
10696SOL    HW133956   7.113   7.971   8.636 -1.7344  1.1335 -0.3448
10696SOL    HW233957   7.134   7.822   8.632  0.8309  1.4618 -1.4610
10697SOL     OW33958   7.528   8.476   5.444  0.2013  0.3154 -0.0557
10697SOL    HW133959   7.532   8.552   5.386 -0.6166 -0.9837 -1.8967
10697SOL    HW233960   7.614   8.475   5.487  0.6998  1.5508 -0.9328
10698SOL     OW33961   7.041   2.611   6.899 -0.1263  0.4243 -0.0351
10698SOL    HW133962   7.099   2.676   6.938 -0.2049  0.2388  0.3991
10698SOL    HW233963   7.044   2.537   6.959 -1.0689  0.5342  0.1608
10699SOL     OW33964   8.150   3.608   5.828 -0.1362 -0.4616  0.5731
10699SOL    HW133965   8.079   3.600   5.892 -0.4570 -0.2971  0.2435
10699SOL    HW233966   8.188   3.520   5.824 -1.0465 -0.8552 -0.0653
10700SOL     OW33967   8.634   7.229   3.709  0.5234  0.3426 -0.4540
10700SOL    HW133968   8.577   7.209   3.783  2.2971 -0.4703  0.7656
10700SOL    HW233969   8.639   7.148   3.659  0.4010  0.4910 -0.7094
10701SOL     OW33970   8.765   5.994   6.947 -0.3951 -0.5740  0.1343
10701SOL    HW133971   8.694   5.998   6.883 -1.4860 -2.2713  1.1591
10701SOL    HW233972   8.732   6.043   7.022 -0.8295 -2.0043  0.8993
10702SOL     OW33973   0.010   5.473   2.163 -0.1373 -0.3272  0.4957
10702SOL    HW133974   0.078   5.439   2.220 -1.1949 -1.4377  1.1395
10702SOL    HW233975   0.057   5.518   2.093  1.2727 -1.5725  0.6053
10703SOL     OW33976   2.078   7.133   1.709 -0.1082  0.3595  0.1185
10703SOL    HW133977   2.109   7.071   1.643  0.7020  0.6293  0.2459
10703SOL    HW233978   1.985   7.112   1.718  0.1391 -0.8247  0.1386
10704SOL     OW33979   7.301   8.032   3.167  0.0847 -0.7057  0.0775
10704SOL    HW133980   7.386   8.075   3.180  1.7666 -3.5178 -0.8084
10704SOL    HW233981   7.303   8.002   3.076 -1.9183 -0.8107  0.0299
10705SOL     OW33982   3.629   0.066   6.463 -0.2209 -0.5037 -0.1749
10705SOL    HW133983   3.710   0.072   6.513  0.0209 -1.3735 -0.4428
10705SOL    HW233984   3.561   0.092   6.525  0.3397  1.2227 -0.2302
10706SOL     OW33985   3.813   6.068   0.883 -0.0526  0.1258 -0.4453
10706SOL    HW133986   3.797   6.150   0.930 -0.4912  0.1737 -0.6743
10706SOL    HW233987   3.816   6.002   0.952 -0.9763  0.1587 -0.3646
10707SOL     OW33988   4.830   0.724   1.629  0.5183  0.3101  0.9490
10707SOL    HW133989   4.855   0.637   1.600  0.7571  0.2592  1.2953
10707SOL    HW233990   4.742   0.737   1.595  1.1718  0.6686 -0.6972
10708SOL     OW33991   2.917   5.738   0.754 -0.5252  0.6959 -0.0477
10708SOL    HW133992   2.934   5.798   0.681  0.5138 -0.7587 -1.0689
10708SOL    HW233993   2.997   5.740   0.806 -0.7653  0.7415  0.3221
10709SOL     OW33994   4.735   6.336   3.620 -0.1620 -0.0966 -0.2314
10709SOL    HW133995   4.668   6.268   3.608  1.4524 -1.8197  0.0483
10709SOL    HW233996   4.807   6.309   3.564  0.9863  0.7463  0.8020
10710SOL     OW33997   8.469   2.848   7.685  0.6355 -0.0448  0.3397
10710SOL    HW133998   8.472   2.937   7.721  0.6418  0.2283 -0.3179
10710SOL    HW233999   8.379   2.820   7.698  0.6389  0.0521  0.5693
10711SOL     OW34000   2.461   5.681   8.179  0.2371 -0.0550 -0.2463
10711SOL    HW134001   2.373   5.651   8.156 -0.6124  1.3912  0.9128
10711SOL    HW234002   2.490   5.733   8.104 -0.4345  0.4936 -0.1383
10712SOL     OW34003   5.841   6.810   2.996  0.8763 -0.0383 -0.3512
10712SOL    HW134004   5.843   6.745   2.925  2.9260  0.7649 -1.1014
10712SOL    HW234005   5.865   6.761   3.074  0.9994 -0.4808 -0.6624
10713SOL     OW34006   7.786   8.456   5.562 -0.1197  0.1975 -0.0217
10713SOL    HW134007   7.836   8.504   5.496  1.1294 -0.9021  0.0656
10713SOL    HW234008   7.842   8.381   5.583 -1.4019 -0.5472  0.8231
10714SOL     OW34009   4.542   1.067   5.133 -0.3362  0.1632 -0.6701
10714SOL    HW134010   4.494   1.078   5.051  0.1488  0.3347 -0.9318
10714SOL    HW234011   4.613   1.130   5.129 -1.0406  1.0736  0.4434
10715SOL     OW34012   2.480   3.597   7.108  0.2548  0.2192 -0.5493
10715SOL    HW134013   2.455   3.681   7.148  2.2935  0.7292 -0.2517
10715SOL    HW234014   2.410   3.580   7.044  0.2050  2.5786 -1.2236
10716SOL     OW34015   0.600   5.901   6.961 -0.2018  0.4549  0.2399
10716SOL    HW134016   0.509   5.895   6.932 -0.5481  1.9447  0.9424
10716SOL    HW234017   0.631   5.985   6.927  1.4582 -0.7222 -1.3819
10717SOL     OW34018   5.162   6.415   3.172  0.2030 -0.3681 -0.4554
10717SOL    HW134019   5.179   6.415   3.266  0.5138 -1.0408 -0.5043
10717SOL    HW234020   5.232   6.361   3.135  1.0077  1.1792 -1.2614
10718SOL     OW34021   4.182   7.839   5.278 -0.0125  0.4684  0.1451
10718SOL    HW134022   4.093   7.810   5.261  0.2020  0.5731 -1.3047
10718SOL    HW234023   4.237   7.775   5.232  0.6344  0.7454  0.5235
10719SOL     OW34024   7.841   3.818   4.904  0.1865  0.3106  0.0004
10719SOL    HW134025   7.782   3.794   4.832 -0.6824 -0.4925  0.9475
10719SOL    HW234026   7.871   3.734   4.938 -0.0313  0.6553  1.0706
10720SOL     OW34027   3.976   4.817   6.576  0.1014 -0.2721  0.7300
10720SOL    HW134028   3.930   4.897   6.601 -2.5289  0.1716 -4.2383
10720SOL    HW234029   4.067   4.843   6.563  0.0961  0.9072  2.7135
10721SOL     OW34030   0.488   5.987   5.824 -0.2672 -0.2717  0.3337
10721SOL    HW134031   0.449   6.013   5.741  0.4384  0.0637  0.1046
10721SOL    HW234032   0.540   6.062   5.851 -0.2070 -0.5129  0.9058
10722SOL     OW34033   1.559   7.045   4.901 -0.4266  0.1572  0.0555
10722SOL    HW134034   1.560   7.028   4.807 -0.7074 -0.3280  0.1388
10722SOL    HW234035   1.651   7.063   4.923 -0.3176 -0.0146 -0.2610
10723SOL     OW34036   7.095   0.181   7.373  0.1369  0.6818 -0.4505
10723SOL    HW134037   7.034   0.240   7.416 -1.5425 -1.6641  0.6110
10723SOL    HW234038   7.089   0.099   7.424  3.1391 -0.0987 -1.1629
10724SOL     OW34039   1.044   7.261   5.736 -0.7204 -0.2477 -0.2721
10724SOL    HW134040   1.076   7.341   5.777 -1.6889  0.5222 -0.9737
10724SOL    HW234041   1.115   7.233   5.678 -0.5214  0.3229 -0.3101
10725SOL     OW34042   1.493   6.733   2.070  0.2870 -0.0725 -0.3604
10725SOL    HW134043   1.447   6.678   2.006 -1.1368 -1.4311  1.6957
10725SOL    HW234044   1.469   6.822   2.047 -3.0714 -0.6749  0.2251
10726SOL     OW34045   3.061   1.379   0.558 -0.5078  0.2546  0.2855
10726SOL    HW134046   3.157   1.372   0.558 -0.5336 -0.4411 -1.1490
10726SOL    HW234047   3.040   1.414   0.644  1.1197  1.5215  0.2198
10727SOL     OW34048   4.557   3.501   3.352 -0.0836  0.2626  0.1061
10727SOL    HW134049   4.646   3.520   3.382 -0.0239  0.5518 -0.2388
10727SOL    HW234050   4.539   3.413   3.383  0.3756  0.1528  0.0702
10728SOL     OW34051   2.723   0.607   1.795  0.4996  0.6308 -0.1768
10728SOL    HW134052   2.784   0.651   1.736  0.0765 -0.9385 -1.8560
10728SOL    HW234053   2.654   0.672   1.810  2.3341  2.3518  1.5731
10729SOL     OW34054   7.473   0.975   7.884  0.5698  0.0987  0.2097
10729SOL    HW134055   7.455   1.014   7.970 -0.5358 -1.1840  0.5898
10729SOL    HW234056   7.388   0.941   7.855  0.2841  2.7393 -2.6089
10730SOL     OW34057   2.642   7.833   8.992 -0.1391 -0.4547 -0.6853
10730SOL    HW134058   2.553   7.799   8.998 -0.1158 -0.9059 -2.4457
10730SOL    HW234059   2.688   7.771   8.935  1.7289 -1.0205  1.2511
10731SOL     OW34060   3.330   1.752   1.441  0.0818  0.1238  0.2216
10731SOL    HW134061   3.349   1.818   1.374 -0.8972  0.1026 -0.0986
10731SOL    HW234062   3.413   1.739   1.487  1.5115 -1.7248 -2.5842
10732SOL     OW34063   8.325   4.794   4.885 -0.4268 -0.2423  0.1561
10732SOL    HW134064   8.253   4.856   4.889 -0.1245  0.2572 -1.5297
10732SOL    HW234065   8.284   4.709   4.901 -1.1054  0.1946  0.8130
10733SOL     OW34066   3.989   1.604   5.892 -0.6542 -0.5061 -0.2237
10733SOL    HW134067   3.960   1.516   5.865 -1.1807 -0.5826  0.5709
10733SOL    HW234068   4.011   1.595   5.984  0.3604 -0.0478 -0.4075
10734SOL     OW34069   4.975   4.160   4.070 -0.2423 -0.1745  0.1613
10734SOL    HW134070   5.054   4.198   4.108 -0.2738  1.9002 -1.6357
10734SOL    HW234071   5.007   4.086   4.018  0.5106  0.4813 -0.3350
10735SOL     OW34072   6.356   0.875   1.941 -0.2982  0.1015  0.6866
10735SOL    HW134073   6.445   0.904   1.919  0.0151 -1.5327 -0.3632
10735SOL    HW234074   6.344   0.794   1.890 -1.9286 -0.3782  1.7736
10736SOL     OW34075   6.545   2.348   6.825  0.3593 -0.3064 -0.6117
10736SOL    HW134076   6.454   2.376   6.818  0.7936  0.9416 -1.6536
10736SOL    HW234077   6.563   2.346   6.919 -0.2806  0.9877 -0.4499
10737SOL     OW34078   5.434   7.249   3.220 -0.3595 -0.0553 -0.3851
10737SOL    HW134079   5.402   7.159   3.214 -2.0123  0.5025 -0.2659
10737SOL    HW234080   5.380   7.299   3.158  0.0706  0.9798  0.0444
10738SOL     OW34081   5.267   2.243   7.812  0.5641 -0.2652 -0.2367
10738SOL    HW134082   5.232   2.167   7.767 -0.5254 -0.2439  0.5431
10738SOL    HW234083   5.265   2.220   7.905  0.0299  0.7718  0.0333
10739SOL     OW34084   7.389   2.827   2.328 -0.2681 -0.1962 -0.2237
10739SOL    HW134085   7.402   2.886   2.253  2.2772 -0.6959 -0.2859
10739SOL    HW234086   7.478   2.804   2.356 -1.1283 -0.7030  2.4431
10740SOL     OW34087   6.368   3.656   1.806 -0.1009  0.0148 -0.0066
10740SOL    HW134088   6.331   3.690   1.888 -1.0495 -2.2865  0.6173
10740SOL    HW234089   6.348   3.562   1.808  4.5916 -1.2688 -0.2528
10741SOL     OW34090   0.994   0.110   2.706 -0.1577  0.2332 -0.2196
10741SOL    HW134091   0.995   0.154   2.791 -0.1559  0.7691 -0.4918
10741SOL    HW234092   1.021   0.178   2.644  1.2123 -0.5185 -0.4786
10742SOL     OW34093   4.776   8.266   6.918  0.1324 -0.2941  0.1897
10742SOL    HW134094   4.853   8.260   6.975  0.3017  0.3082  0.0356
10742SOL    HW234095   4.706   8.222   6.968  0.1140  0.7826  1.1592
10743SOL     OW34096   4.153   8.577   1.471  0.3851 -0.0106 -0.3329
10743SOL    HW134097   4.205   8.629   1.410  1.6268 -0.2397  0.5107
10743SOL    HW234098   4.065   8.615   1.465  1.5602  3.4900  1.5536
10744SOL     OW34099   0.068   5.362   4.467  0.5018 -0.5427  0.0407
10744SOL    HW134100   0.129   5.342   4.539  0.0415 -1.3602  0.2229
10744SOL    HW234101   0.124   5.370   4.390  1.0119  0.4219  0.4950
10745SOL     OW34102   6.878   1.450   3.158 -0.3925  0.1106 -0.2197
10745SOL    HW134103   6.853   1.433   3.067 -0.9451 -1.0991  0.1351
10745SOL    HW234104   6.805   1.500   3.194 -0.8753 -0.6989 -0.0484
10746SOL     OW34105   7.202   6.140   0.989  0.2712  0.5638 -0.2616
10746SOL    HW134106   7.160   6.101   1.065  1.0783 -2.4114 -1.2049
10746SOL    HW234107   7.134   6.194   0.949 -0.9982  0.0092  1.0711
10747SOL     OW34108   5.701   5.596   6.481  0.0619 -0.0564 -0.3835
10747SOL    HW134109   5.786   5.633   6.506 -0.3617 -0.0256  1.0721
10747SOL    HW234110   5.665   5.660   6.419 -0.6597  2.0806  2.0616
10748SOL     OW34111   8.606   4.414   0.262 -0.0059  0.3739 -0.2023
10748SOL    HW134112   8.580   4.507   0.264  1.1362  0.7918 -2.1819
10748SOL    HW234113   8.559   4.377   0.188  1.7362  0.1244 -1.2408
10749SOL     OW34114   8.117   2.742   6.194  0.0501  0.1387 -0.3520
10749SOL    HW134115   8.134   2.796   6.117  1.1718 -0.2756 -0.4169
10749SOL    HW234116   8.104   2.654   6.160  1.7614 -0.2788 -0.0185
10750SOL     OW34117   1.862   4.972   3.996  0.1415  0.5294  0.1620
10750SOL    HW134118   1.824   5.029   3.928  1.6358  2.4549  0.8504
10750SOL    HW234119   1.935   5.023   4.031  0.9338 -1.4567  1.5277
10751SOL     OW34120   4.677   8.087   8.244  0.4912  0.0743 -0.0362
10751SOL    HW134121   4.629   8.170   8.239  2.4147  1.1941 -0.7641
10751SOL    HW234122   4.753   8.106   8.299  1.1388 -1.1104 -0.4851
10752SOL     OW34123   0.929   0.108   0.362 -0.2469  0.9181  0.1033
10752SOL    HW134124   0.850   0.096   0.309 -0.2035  2.4123 -0.3279
10752SOL    HW234125   0.996   0.133   0.299 -0.0186  2.0268  0.7666
10753SOL     OW34126   7.505   3.784   8.292 -0.0830 -0.1196 -0.1519
10753SOL    HW134127   7.537   3.872   8.278  1.1093 -0.3516  0.8992
10753SOL    HW234128   7.531   3.763   8.382  1.1454 -2.1260 -0.9052
10754SOL     OW34129   5.979   7.560   5.711 -0.1432  0.4395 -0.2177
10754SOL    HW134130   6.047   7.611   5.755  1.5030 -0.7156 -1.2931
10754SOL    HW234131   5.973   7.479   5.763 -0.6062  0.4889 -0.1954
10755SOL     OW34132   5.550   2.740   2.925  0.5524  0.3510  0.6262
10755SOL    HW134133   5.613   2.675   2.893 -0.2205  0.1467 -0.5290
10755SOL    HW234134   5.582   2.762   3.012  1.4074 -0.8230  0.6450
10756SOL     OW34135   6.170   1.495   8.193 -0.3149 -0.4948 -0.2192
10756SOL    HW134136   6.081   1.463   8.177 -0.0727 -1.5275  0.3776
10756SOL    HW234137   6.216   1.419   8.228  0.5968  0.2368  0.2045
10757SOL     OW34138   5.423   7.929   8.881  0.0555 -0.5951 -0.2172
10757SOL    HW134139   5.462   7.982   8.811 -0.1782 -0.0132  0.0914
10757SOL    HW234140   5.450   7.839   8.860  1.1250 -0.2739 -0.3033
10758SOL     OW34141   8.885   5.262   1.494  0.3664  0.2382  0.4244
10758SOL    HW134142   8.804   5.305   1.466  1.5543  0.5258 -3.1314
10758SOL    HW234143   8.938   5.332   1.533  0.5366  1.0949 -1.2510
10759SOL     OW34144   6.662   6.006   2.260 -0.3140 -0.0951  0.0964
10759SOL    HW134145   6.588   6.066   2.263 -1.2178 -1.1819  0.1740
10759SOL    HW234146   6.673   5.985   2.168  0.8620  1.1857 -0.0890
10760SOL     OW34147   0.850   7.536   2.367 -0.2084  0.3983  0.2420
10760SOL    HW134148   0.940   7.557   2.341  0.4637  1.1149  2.8473
10760SOL    HW234149   0.801   7.615   2.346 -0.1863  0.1341 -0.8708
10761SOL     OW34150   6.585   1.838   7.519 -0.2926 -0.1730  0.2024
10761SOL    HW134151   6.519   1.772   7.497 -0.1186  0.1651 -1.4719
10761SOL    HW234152   6.663   1.787   7.543 -0.9820 -0.5684  1.7605
10762SOL     OW34153   0.546   4.781   6.723 -0.4740 -0.2888 -0.1968
10762SOL    HW134154   0.472   4.768   6.663  2.1201 -2.2693 -3.2804
10762SOL    HW234155   0.588   4.861   6.692 -1.2056  0.8357  1.5507
10763SOL     OW34156   6.412   6.102   5.598 -0.2637 -0.1983 -0.5239
10763SOL    HW134157   6.362   6.021   5.609  1.1552 -1.0734 -0.2545
10763SOL    HW234158   6.418   6.114   5.503 -1.1295  0.0232 -0.5565
10764SOL     OW34159   1.852   8.694   0.135  0.2790 -0.2933 -0.1285
10764SOL    HW134160   1.842   8.627   0.203 -0.3458  1.8650  2.0383
10764SOL    HW234161   1.896   8.648   0.063 -0.2465 -3.0419  1.1596
10765SOL     OW34162   5.315   8.952   2.503 -0.4768  0.5031 -0.4281
10765SOL    HW134163   5.322   9.046   2.515  2.1853  0.5089 -1.5136
10765SOL    HW234164   5.360   8.914   2.579 -2.7116 -0.0091  0.7364
10766SOL     OW34165   4.350   0.360   5.243 -0.0524  0.2962  0.6510
10766SOL    HW134166   4.390   0.445   5.229  1.3319 -0.5805 -1.0523
10766SOL    HW234167   4.295   0.372   5.321  0.3787  2.6144  0.6651
10767SOL     OW34168   3.950   0.098   1.850 -0.2814 -0.1498 -0.1399
10767SOL    HW134169   3.962   0.175   1.795 -1.2588  0.1666  0.0661
10767SOL    HW234170   3.958   0.131   1.940 -0.3689 -0.3468 -0.0599
10768SOL     OW34171   6.447   2.851   6.137  0.5939  0.5824  0.3299
10768SOL    HW134172   6.431   2.930   6.086  1.2048  0.0948 -0.6415
10768SOL    HW234173   6.471   2.883   6.224 -0.3335  1.4299  0.2932
10769SOL     OW34174   3.712   1.554   2.604  0.3096  0.4327 -0.2877
10769SOL    HW134175   3.769   1.582   2.533 -1.5873  1.9461 -1.3412
10769SOL    HW234176   3.741   1.605   2.679  1.6497 -0.3868 -0.2190
10770SOL     OW34177   7.528   3.938   6.405  0.1554 -0.5462  0.6689
10770SOL    HW134178   7.508   3.931   6.311  0.5450 -2.0428  0.6606
10770SOL    HW234179   7.445   3.964   6.445  0.3484  1.6707 -0.2174
10771SOL     OW34180   6.955   0.712   7.701  0.1607  0.5657 -0.7089
10771SOL    HW134181   7.033   0.656   7.700 -0.4444 -0.3505  0.6780
10771SOL    HW234182   6.986   0.796   7.666  1.9333  0.4169  0.3460
10772SOL     OW34183   0.036   0.388   6.176 -0.2403  0.5398  0.0422
10772SOL    HW134184  -0.006   0.454   6.230 -1.3019  1.2575 -1.5856
10772SOL    HW234185   0.032   0.422   6.087  0.0263 -1.2924 -0.7342
10773SOL     OW34186   1.397   3.058   0.515  0.2738 -0.8761 -0.5920
10773SOL    HW134187   1.434   3.018   0.594  1.2526 -2.0684 -1.6199
10773SOL    HW234188   1.470   3.064   0.454 -0.8385 -1.7874 -2.0987
10774SOL     OW34189   1.459   5.925   4.056  0.3642  0.3025  0.0143
10774SOL    HW134190   1.445   5.835   4.086  0.4792  0.2718 -0.0217
10774SOL    HW234191   1.418   5.980   4.123  0.3512  0.2238  0.0702
10775SOL     OW34192   0.797   0.775   4.315  0.0674 -0.0323  0.0564
10775SOL    HW134193   0.785   0.808   4.404  1.4215  0.1295  0.2001
10775SOL    HW234194   0.709   0.752   4.285 -0.2727 -1.5433  2.0084
10776SOL     OW34195   4.854   6.969   8.813  0.3220 -0.3591 -0.0016
10776SOL    HW134196   4.927   7.024   8.842  0.4687  0.7458 -2.2307
10776SOL    HW234197   4.788   6.978   8.882  1.4529  0.2963  1.0447
10777SOL     OW34198   5.710   3.030   8.766  0.2878 -0.1900  0.6424
10777SOL    HW134199   5.749   3.101   8.715 -0.9130  0.2668  0.3342
10777SOL    HW234200   5.781   2.999   8.822  1.4144 -0.1649 -0.7145
10778SOL     OW34201   8.218   4.127   1.037 -0.1421  0.1584 -0.4537
10778SOL    HW134202   8.288   4.191   1.026 -0.2797  0.3200 -0.3863
10778SOL    HW234203   8.163   4.163   1.107 -0.4377  0.1593 -0.6859
10779SOL     OW34204   6.595   5.724   6.826  0.0859 -0.9673  0.2601
10779SOL    HW134205   6.622   5.755   6.740  1.0366 -1.8506  0.2222
10779SOL    HW234206   6.677   5.719   6.876 -0.4805 -0.2904  1.2700
10780SOL     OW34207   7.321   1.528   4.147 -0.0854  0.3757 -0.1474
10780SOL    HW134208   7.347   1.484   4.228 -0.7520 -1.2890 -0.7969
10780SOL    HW234209   7.392   1.510   4.086 -0.4445  0.0095 -0.4687
10781SOL     OW34210   1.964   2.532   5.411  0.7643  0.2905  0.0347
10781SOL    HW134211   1.913   2.515   5.491  0.8422 -0.8900 -0.1486
10781SOL    HW234212   2.037   2.587   5.441  0.0137  1.0572  0.5069
10782SOL     OW34213   3.193   1.292   4.287 -0.5212  0.0323 -0.3483
10782SOL    HW134214   3.280   1.318   4.319 -1.1456  0.9629  0.6402
10782SOL    HW234215   3.192   1.196   4.295  0.7036 -0.0789 -1.1701
10783SOL     OW34216   3.062   8.162   8.620  0.6680 -0.7671 -0.1685
10783SOL    HW134217   3.069   8.092   8.555  0.0909 -0.5181 -0.5054
10783SOL    HW234218   3.017   8.122   8.694 -0.5858 -0.5008 -0.7567
10784SOL     OW34219   1.970   6.695   8.355 -0.0014 -0.7291  0.1332
10784SOL    HW134220   2.019   6.626   8.310  1.0202  0.9341 -1.4423
10784SOL    HW234221   1.890   6.652   8.384  1.0425 -2.8134  0.1378
10785SOL     OW34222   4.811   6.156   6.413  0.0039  0.0247 -0.4431
10785SOL    HW134223   4.804   6.140   6.319 -0.0821  0.5306 -0.5246
10785SOL    HW234224   4.823   6.069   6.451  1.0433 -0.0971 -1.0126
10786SOL     OW34225   0.312   4.528   3.124 -0.0057  0.7734 -0.7395
10786SOL    HW134226   0.247   4.597   3.138  0.0818  0.9163 -1.0243
10786SOL    HW234227   0.321   4.486   3.209  1.8925  2.8198  0.1638
10787SOL     OW34228   3.750   4.417   7.824 -0.4633  0.1678  0.7880
10787SOL    HW134229   3.677   4.358   7.806  1.2535 -1.9851  0.4171
10787SOL    HW234230   3.821   4.385   7.769  0.2598  3.4404 -0.4491
10788SOL     OW34231   5.575   6.162   7.979  0.5460  0.0286 -0.2786
10788SOL    HW134232   5.521   6.214   7.919  0.9225 -1.1574 -1.7072
10788SOL    HW234233   5.512   6.110   8.028  0.3025 -0.2771 -0.9042
10789SOL     OW34234   8.708   6.293   4.275  0.4742 -0.6260 -0.2586
10789SOL    HW134235   8.658   6.242   4.211 -0.9752 -2.3774  2.1025
10789SOL    HW234236   8.642   6.346   4.320  1.2053 -0.5412  0.7495
10790SOL     OW34237   2.860   4.018   3.273 -0.2112  0.1322  0.0676
10790SOL    HW134238   2.805   4.065   3.336 -0.6896 -1.0077  0.5337
10790SOL    HW234239   2.804   3.947   3.240  0.0009  0.7564 -1.7401
10791SOL     OW34240   5.432   4.363   6.280 -0.4819  0.4138  0.2348
10791SOL    HW134241   5.392   4.437   6.324 -1.7573 -0.2113  0.1706
10791SOL    HW234242   5.416   4.378   6.187 -2.3984 -0.8240  0.3191
10792SOL     OW34243   0.681   8.066   6.153  0.2293  0.1163 -0.0738
10792SOL    HW134244   0.724   8.147   6.124 -1.8087  2.1652  2.2183
10792SOL    HW234245   0.718   8.050   6.240 -0.2357 -0.7448 -0.0315
10793SOL     OW34246   3.234   5.624   6.154 -0.1914  0.3307 -0.4847
10793SOL    HW134247   3.205   5.705   6.195 -2.1014 -0.5400 -0.0401
10793SOL    HW234248   3.246   5.563   6.227  1.5361  0.2457 -0.7795
10794SOL     OW34249   6.168   3.312   2.000  0.0929  0.1530 -0.6689
10794SOL    HW134250   6.236   3.283   2.061 -0.9443  1.1666  1.0149
10794SOL    HW234251   6.117   3.376   2.048 -0.8073  0.9745 -2.6042
10795SOL     OW34252   5.074   6.595   2.664  0.6477 -0.2576 -0.2744
10795SOL    HW134253   5.089   6.689   2.679  1.0214 -0.3109 -0.2950
10795SOL    HW234254   5.111   6.553   2.742 -1.5823 -0.2612  0.8626
10796SOL     OW34255   4.468   4.156   2.721  0.3549 -0.5321 -0.2589
10796SOL    HW134256   4.441   4.165   2.812 -0.6621  0.6691 -0.6480
10796SOL    HW234257   4.537   4.220   2.709  0.4847 -0.6853 -0.3324
10797SOL     OW34258   4.740   3.626   7.338 -0.4815  0.6590  0.1153
10797SOL    HW134259   4.789   3.611   7.419  0.4586 -0.3775 -0.6153
10797SOL    HW234260   4.806   3.625   7.269 -1.2322  1.8006 -0.6632
10798SOL     OW34261   1.510   7.216   8.759 -0.3474 -0.0702 -0.4880
10798SOL    HW134262   1.479   7.221   8.849 -0.4488  0.2773 -0.5384
10798SOL    HW234263   1.475   7.134   8.725 -0.6093 -0.0260 -0.3251
10799SOL     OW34264   8.230   2.509   1.214  0.6755  0.0337 -0.0346
10799SOL    HW134265   8.250   2.416   1.214  0.5950 -0.0071 -1.6712
10799SOL    HW234266   8.176   2.522   1.292 -1.2885 -1.7401 -1.0008
10800SOL     OW34267   5.710   1.211   3.625 -0.5223  0.1084  0.7721
10800SOL    HW134268   5.786   1.173   3.668 -0.8926 -0.0682  1.2815
10800SOL    HW234269   5.661   1.136   3.591  0.2117  0.2825 -0.7451
10801SOL     OW34270   5.369   2.842   2.752  0.3618 -0.0727  0.2775
10801SOL    HW134271   5.421   2.854   2.672 -0.1018 -0.4273 -0.0813
10801SOL    HW234272   5.433   2.814   2.818  0.7682  0.3538  0.0687
10802SOL     OW34273   7.116   3.630   2.234  0.6197  0.7378  0.2516
10802SOL    HW134274   7.035   3.616   2.283  0.3297 -1.1231 -0.6810
10802SOL    HW234275   7.136   3.723   2.247 -3.1526  2.0447 -1.6887
10803SOL     OW34276   2.137   4.766   5.262  0.3580 -0.1666  0.3554
10803SOL    HW134277   2.071   4.726   5.319  1.4204 -0.2678  1.5568
10803SOL    HW234278   2.126   4.860   5.275  0.4531 -0.1839  0.5782
10804SOL     OW34279   0.288   3.430   8.954 -0.1853 -0.4439 -0.5031
10804SOL    HW134280   0.237   3.358   8.918 -1.0926  0.2798 -0.7021
10804SOL    HW234281   0.379   3.398   8.954 -0.1606 -0.6067 -3.1479
10805SOL     OW34282   1.126   1.532   3.483 -0.0870  0.8576  0.0662
10805SOL    HW134283   1.181   1.469   3.530 -2.4982 -0.6616  0.9958
10805SOL    HW234284   1.140   1.512   3.390 -0.5371 -0.8256  0.3426
10806SOL     OW34285   5.424   5.481   5.948 -0.4118 -0.8497  0.0163
10806SOL    HW134286   5.485   5.420   5.990  0.0740 -0.9798 -0.8649
10806SOL    HW234287   5.442   5.565   5.989 -0.6274 -1.1610  0.7682
10807SOL     OW34288   2.855   3.899   7.924 -0.0241 -0.1298 -0.2149
10807SOL    HW134289   2.795   3.946   7.867 -0.5300  0.4505  0.7522
10807SOL    HW234290   2.858   3.810   7.890 -1.4437 -0.1637 -0.2835
10808SOL     OW34291   4.531   5.721   6.559 -0.2358 -0.2783  0.4315
10808SOL    HW134292   4.571   5.801   6.594 -1.5366  1.1138 -1.1113
10808SOL    HW234293   4.459   5.702   6.618  0.9394 -1.1908  1.6258
10809SOL     OW34294   0.887   8.763   2.190 -0.1901  0.6693  0.2242
10809SOL    HW134295   0.979   8.764   2.164 -0.2658 -1.2254 -0.2357
10809SOL    HW234296   0.839   8.781   2.109 -0.2891 -1.0928 -0.1353
10810SOL     OW34297   8.807   1.928   8.669 -0.1200  0.2518  0.0526
10810SOL    HW134298   8.751   1.851   8.678 -0.3010  0.1398 -1.6727
10810SOL    HW234299   8.893   1.892   8.649 -0.0385  0.4836 -0.0103
10811SOL     OW34300   7.687   4.259   3.538  0.2379  0.3562 -0.5281
10811SOL    HW134301   7.598   4.292   3.528  0.2998  0.5814 -0.3481
10811SOL    HW234302   7.737   4.303   3.470 -0.0264 -0.6961 -1.4426
10812SOL     OW34303   5.022   6.219   6.672  0.1411  0.3976 -0.2366
10812SOL    HW134304   5.000   6.251   6.759  0.0125  0.4123 -0.2741
10812SOL    HW234305   4.948   6.163   6.647  0.7581 -0.6342  0.1816
10813SOL     OW34306   3.310   5.935   3.734 -0.6404 -0.3106  0.0290
10813SOL    HW134307   3.371   6.003   3.704 -3.1495  1.7911 -0.6573
10813SOL    HW234308   3.297   5.879   3.657 -1.3622  0.6317 -0.5427
10814SOL     OW34309   7.458   8.128   5.624 -0.1567  0.1920 -0.1802
10814SOL    HW134310   7.480   8.136   5.531 -1.3773 -0.4983 -0.5500
10814SOL    HW234311   7.518   8.061   5.657 -1.5320 -1.6200 -1.1541
10815SOL     OW34312   3.893   6.949   7.215 -0.2898  0.1411  1.1561
10815SOL    HW134313   3.919   6.913   7.300 -1.6746 -1.9921  0.7387
10815SOL    HW234314   3.799   6.966   7.223 -0.5132 -0.4274 -0.0378
10816SOL     OW34315   7.311   3.911   4.124 -0.4576 -0.1376  0.3194
10816SOL    HW134316   7.303   3.818   4.148  0.3088 -0.3000  0.0043
10816SOL    HW234317   7.367   3.910   4.046 -1.0885  0.5391 -0.1575
10817SOL     OW34318   4.912   6.327   6.905  0.7843  0.1603 -0.8458
10817SOL    HW134319   4.849   6.393   6.876 -0.0099 -0.5936 -0.8731
10817SOL    HW234320   4.982   6.378   6.947  0.6565  1.0758 -1.7001
10818SOL     OW34321   0.029   6.673   8.713 -0.7272  0.4001  0.3301
10818SOL    HW134322   0.074   6.734   8.772 -0.6766  0.7836 -0.0937
10818SOL    HW234323   0.014   6.724   8.633 -0.7184 -0.1331 -0.0209
10819SOL     OW34324   5.070   5.562   6.187  0.2682 -0.0105 -0.3192
10819SOL    HW134325   5.035   5.572   6.098 -3.3068 -1.0980  0.7801
10819SOL    HW234326   5.110   5.475   6.187  0.6976  0.1786 -0.9631
10820SOL     OW34327   0.956   3.158   6.607 -0.4630  0.1490  0.3506
10820SOL    HW134328   0.968   3.217   6.533  0.6882 -1.8150 -1.1003
10820SOL    HW234329   1.016   3.085   6.591 -2.3093 -1.7892  1.6975
10821SOL     OW34330   2.076   3.620   3.571  0.0032  0.4631  0.3103
10821SOL    HW134331   2.168   3.648   3.568  0.5158 -1.1972 -1.2707
10821SOL    HW234332   2.078   3.529   3.541 -1.9426 -0.2657  2.1730
10822SOL     OW34333   4.336   7.540   7.200 -0.7219 -0.3636  0.1444
10822SOL    HW134334   4.268   7.540   7.132  0.3964  0.6533 -1.0392
10822SOL    HW234335   4.390   7.465   7.179 -0.1064  0.2177 -0.4082
10823SOL     OW34336   4.410   6.163   6.696  0.3976  0.6608  0.1076
10823SOL    HW134337   4.440   6.227   6.632  1.7396  0.7775  0.8262
10823SOL    HW234338   4.470   6.089   6.686 -1.0482 -0.4788 -0.6263
10824SOL     OW34339   8.182   7.009   8.206 -0.1202 -0.3439  0.4138
10824SOL    HW134340   8.206   6.933   8.259  0.2027 -0.5473 -0.0203
10824SOL    HW234341   8.254   7.018   8.143 -1.5120 -1.4366 -1.4284
10825SOL     OW34342   8.444   8.695   2.070 -0.1034 -0.1148 -0.3960
10825SOL    HW134343   8.442   8.779   2.115 -1.4673  0.4353 -1.4095
10825SOL    HW234344   8.527   8.695   2.023  0.0632  0.5183 -0.1122
10826SOL     OW34345   8.446   6.146   3.646 -0.1785  0.3619 -0.2406
10826SOL    HW134346   8.490   6.229   3.664  1.4257 -0.5409  0.2432
10826SOL    HW234347   8.450   6.137   3.550 -0.5160  0.9198 -0.3092
10827SOL     OW34348   0.190   1.165   0.463  0.0477 -0.2453 -0.1681
10827SOL    HW134349   0.121   1.170   0.528  0.5475 -1.3876  0.4715
10827SOL    HW234350   0.237   1.248   0.472 -0.1931 -0.1816  0.5732
10828SOL     OW34351   7.425   4.887   6.714 -0.2887  0.6320  0.4052
10828SOL    HW134352   7.506   4.835   6.712 -1.4143 -1.2153 -0.7835
10828SOL    HW234353   7.401   4.891   6.806  1.1353  1.2034  0.7744
10829SOL     OW34354   4.313   0.663   0.310 -0.3846  0.6072  0.2613
10829SOL    HW134355   4.287   0.607   0.237  0.4577 -0.0593  0.4598
10829SOL    HW234356   4.407   0.675   0.299 -0.7256  3.0065 -0.4570
10830SOL     OW34357   1.115   2.495   4.391 -0.1030 -0.1941  0.2863
10830SOL    HW134358   1.116   2.438   4.315 -1.7612 -0.5603  0.5169
10830SOL    HW234359   1.189   2.465   4.445  0.2869 -0.7685 -0.5576
10831SOL     OW34360   4.293   3.760   0.572 -0.2508  0.1671 -0.3998
10831SOL    HW134361   4.267   3.703   0.645  2.2276 -0.8597 -0.2407
10831SOL    HW234362   4.271   3.848   0.602  1.9095 -0.0713  2.2626
10832SOL     OW34363   4.871   6.833   7.850 -0.3820 -0.2171 -0.4991
10832SOL    HW134364   4.876   6.815   7.944  1.9014  1.3752 -0.2445
10832SOL    HW234365   4.906   6.754   7.808 -1.4029 -0.9321 -0.0557
10833SOL     OW34366   3.252   5.763   7.834  0.4863 -0.3102  0.3364
10833SOL    HW134367   3.302   5.839   7.803  0.1144 -0.7252 -1.4246
10833SOL    HW234368   3.251   5.704   7.759 -3.0283 -0.1316  0.0838
10834SOL     OW34369   1.253   3.242   3.889 -0.4036  0.5277 -0.4575
10834SOL    HW134370   1.210   3.164   3.925 -0.7427  0.8356 -0.1920
10834SOL    HW234371   1.257   3.225   3.795 -3.3868  1.5185 -0.8895
10835SOL     OW34372   7.658   8.815   1.933  0.6775 -0.4095 -0.6272
10835SOL    HW134373   7.657   8.727   1.896  1.7923 -0.4365 -0.6308
10835SOL    HW234374   7.653   8.801   2.028 -2.5650 -0.3246 -0.6942
10836SOL     OW34375   6.010   0.208   6.357 -0.2345 -0.1155 -0.0225
10836SOL    HW134376   6.106   0.202   6.352 -0.2486 -0.8387  0.4770
10836SOL    HW234377   5.991   0.300   6.337  0.6486  0.3352  1.1402
10837SOL     OW34378   8.788   7.460   8.386 -0.3286  0.5376  0.0007
10837SOL    HW134379   8.727   7.533   8.379  0.5609  1.1645 -1.6573
10837SOL    HW234380   8.745   7.388   8.342  0.2123  1.0628 -1.4304
10838SOL     OW34381   2.787   0.659   6.236 -0.3077 -0.2719  0.2666
10838SOL    HW134382   2.805   0.740   6.283 -0.5424 -0.4281  0.6320
10838SOL    HW234383   2.707   0.677   6.186 -0.5130 -0.3604  0.5585
10839SOL     OW34384   4.621   2.405   0.150 -0.2313  0.4532 -0.1500
10839SOL    HW134385   4.565   2.475   0.182 -0.2471  0.8045 -0.9202
10839SOL    HW234386   4.633   2.424   0.057 -1.5133 -1.4054 -0.7520
10840SOL     OW34387   2.408   6.437   0.052  0.0907  0.0301 -0.0157
10840SOL    HW134388   2.492   6.436   0.099 -0.7881 -0.0744  1.6377
10840SOL    HW234389   2.400   6.527   0.020 -0.2613  0.7819  1.9914
10841SOL     OW34390   7.230   1.545   5.876  0.2208 -0.9840  0.1490
10841SOL    HW134391   7.320   1.575   5.891  0.1971 -1.5555  1.5306
10841SOL    HW234392   7.229   1.455   5.909 -0.9338 -0.8945  0.3742
10842SOL     OW34393   1.603   3.965   0.127 -0.0033  0.1909 -0.1471
10842SOL    HW134394   1.694   3.989   0.112  0.6889 -2.2821 -0.2988
10842SOL    HW234395   1.586   3.895   0.064 -2.1067  0.7353 -0.2775
10843SOL     OW34396   3.208   4.974   5.431 -0.0931 -0.4186  0.1093
10843SOL    HW134397   3.172   4.926   5.505  1.3481 -1.4453  0.1730
10843SOL    HW234398   3.301   4.950   5.428  0.5697  1.8813 -0.2377
10844SOL     OW34399   4.297   4.267   2.254 -0.0199 -0.5649 -0.3337
10844SOL    HW134400   4.301   4.292   2.161  2.2349 -0.3621 -0.2347
10844SOL    HW234401   4.321   4.174   2.254 -1.4149 -0.9507 -0.0442
10845SOL     OW34402   3.629   0.864   5.856 -0.1244 -0.0956 -0.2229
10845SOL    HW134403   3.574   0.861   5.934 -0.7885 -0.0626 -0.6877
10845SOL    HW234404   3.646   0.957   5.842 -0.3091 -0.0781 -0.3302
10846SOL     OW34405   2.670   6.695   5.970  0.0960 -0.2618 -0.3048
10846SOL    HW134406   2.608   6.694   5.898 -0.0773 -0.5764 -0.1529
10846SOL    HW234407   2.654   6.613   6.017  1.7381 -1.1767 -1.2280
10847SOL     OW34408   1.795   1.826   4.684  1.2223  0.1884  0.2809
10847SOL    HW134409   1.795   1.753   4.746  1.1115  0.5455  0.7046
10847SOL    HW234410   1.703   1.838   4.662  1.0684  1.1659  1.3699
10848SOL     OW34411   0.714   4.183   6.423 -0.0058 -0.3635  0.0733
10848SOL    HW134412   0.692   4.153   6.511  0.2316  0.0473  0.2806
10848SOL    HW234413   0.729   4.277   6.434 -0.8839 -0.1348 -0.5795
10849SOL     OW34414   6.364   2.295   4.617 -0.5458  0.7644  0.1291
10849SOL    HW134415   6.410   2.325   4.538 -0.8760  1.3169  0.1470
10849SOL    HW234416   6.282   2.258   4.585 -1.0845  1.7966  0.2754
10850SOL     OW34417   8.067   5.055   2.191  0.5003 -0.0177  0.2176
10850SOL    HW134418   8.143   5.092   2.235  0.4612 -0.7982  0.9734
10850SOL    HW234419   8.083   4.961   2.191 -0.1107 -0.1274 -0.2949
10851SOL     OW34420   0.637   0.798   6.043 -0.0851  0.0389 -0.1366
10851SOL    HW134421   0.659   0.726   6.102  0.2598 -0.9569 -1.4548
10851SOL    HW234422   0.722   0.832   6.015 -0.2521  0.4581 -0.1364
10852SOL     OW34423   2.727   8.782   3.438 -0.6589  0.1591  0.0413
10852SOL    HW134424   2.796   8.742   3.386 -0.8906  0.5184 -0.5601
10852SOL    HW234425   2.701   8.715   3.501 -0.1825 -0.1876 -0.1310
10853SOL     OW34426   3.184   7.164   5.784 -0.3214  0.2528 -0.8185
10853SOL    HW134427   3.113   7.193   5.841 -1.5942 -0.0443 -2.1758
10853SOL    HW234428   3.180   7.224   5.709  2.0823  1.4008 -0.1330
10854SOL     OW34429   3.253   6.528   8.464  0.3413 -0.1332  0.0016
10854SOL    HW134430   3.159   6.527   8.486  0.4739 -0.0107  0.5968
10854SOL    HW234431   3.288   6.601   8.515  0.4574  0.9443 -1.5393
10855SOL     OW34432   6.452   6.197   8.023 -0.6747  0.0698  0.0499
10855SOL    HW134433   6.372   6.159   8.059  0.0749 -0.9135  0.7471
10855SOL    HW234434   6.463   6.279   8.070 -0.0310 -0.9100  1.6971
10856SOL     OW34435   6.051   4.516   0.462 -0.0103 -0.2610  0.0274
10856SOL    HW134436   6.012   4.574   0.397  0.0652  1.5660  1.5210
10856SOL    HW234437   6.010   4.542   0.545  1.1839 -1.2851  0.9795
10857SOL     OW34438   2.383   2.159   4.423  0.0209  0.1652 -0.1914
10857SOL    HW134439   2.362   2.212   4.500  0.0508 -1.7260  1.1890
10857SOL    HW234440   2.478   2.168   4.415  0.3790 -1.4669  1.4964
10858SOL     OW34441   7.117   4.114   7.058  0.2433 -0.1747 -0.1071
10858SOL    HW134442   7.076   4.073   7.134  0.9200 -1.0303 -0.1886
10858SOL    HW234443   7.100   4.208   7.070 -0.6022 -0.3940  0.5231
10859SOL     OW34444   5.830   7.317   4.075 -0.5137  0.2800  0.5257
10859SOL    HW134445   5.923   7.339   4.079 -0.9103  1.9334  1.7826
10859SOL    HW234446   5.790   7.386   4.022 -0.9212 -0.9632 -0.8653
10860SOL     OW34447   1.699   6.469   1.491  0.8672 -0.1242 -0.1749
10860SOL    HW134448   1.733   6.438   1.407  0.9762 -1.1365  0.2270
10860SOL    HW234449   1.604   6.463   1.482  0.8928 -1.3001  0.1386
10861SOL     OW34450   4.242   7.772   0.833  0.7750  0.3837 -0.1349
10861SOL    HW134451   4.153   7.757   0.863  0.6713  0.7070 -0.2813
10861SOL    HW234452   4.245   7.865   0.810  1.0332  0.2877 -0.5099
10862SOL     OW34453   6.171   0.832   5.259  0.2221  0.1105 -0.1247
10862SOL    HW134454   6.256   0.854   5.220  0.4262  0.2863  0.4215
10862SOL    HW234455   6.110   0.893   5.218  0.5612  0.7914  0.3764
10863SOL     OW34456   8.477   4.330   2.901 -0.0493  1.1210  0.3327
10863SOL    HW134457   8.445   4.376   2.978 -0.7889  1.4703 -0.1728
10863SOL    HW234458   8.467   4.393   2.829  2.0519  1.3680  0.1715
10864SOL     OW34459   7.392   6.204   5.360  0.1743 -0.1848 -0.0496
10864SOL    HW134460   7.390   6.137   5.429  0.3382 -0.3822 -0.2369
10864SOL    HW234461   7.310   6.252   5.371  0.9338  0.8846  1.3826
10865SOL     OW34462   5.540   3.830   2.274 -0.3451  0.2749  0.4005
10865SOL    HW134463   5.462   3.791   2.236  0.3637  0.6038 -1.5256
10865SOL    HW234464   5.611   3.771   2.249  0.2713  0.9901  0.4115
10866SOL     OW34465   1.730   8.654   7.381 -0.3612 -0.1855  0.1795
10866SOL    HW134466   1.786   8.578   7.390 -0.6362 -0.4106  0.0027
10866SOL    HW234467   1.656   8.624   7.328 -0.1339  0.3826 -0.4791
10867SOL     OW34468   6.638   6.538   5.483  0.2557  0.2574 -0.1674
10867SOL    HW134469   6.726   6.557   5.451  0.3258  0.5159  0.1778
10867SOL    HW234470   6.648   6.522   5.577 -0.0838  0.4353 -0.0961
10868SOL     OW34471   4.053   8.382   0.782 -0.4084  0.1274  0.2043
10868SOL    HW134472   4.001   8.429   0.847  0.4733  1.8905 -0.3062
10868SOL    HW234473   4.001   8.305   0.762 -0.9043 -0.2846  2.6838
10869SOL     OW34474   5.348   3.451   1.358  0.4966  0.2178 -0.1260
10869SOL    HW134475   5.417   3.482   1.417  0.3053  0.0545  0.1815
10869SOL    HW234476   5.385   3.372   1.318  0.6529  0.3674 -0.2823
10870SOL     OW34477   7.601   0.348   4.670  0.3860  0.1427 -0.0224
10870SOL    HW134478   7.612   0.274   4.729  3.5986  0.5418  0.0506
10870SOL    HW234479   7.616   0.311   4.583  2.7402  0.7387  0.0711
10871SOL     OW34480   7.459   7.342   2.998 -0.0299  0.4092 -0.1619
10871SOL    HW134481   7.408   7.262   3.014  1.5625 -0.3763  1.4201
10871SOL    HW234482   7.440   7.365   2.907 -0.5052 -1.8357 -0.6997
10872SOL     OW34483   7.922   2.147   5.394  0.0805 -0.1856 -0.0029
10872SOL    HW134484   7.981   2.203   5.446 -0.6640 -0.1787  0.8505
10872SOL    HW234485   7.915   2.067   5.445 -1.1287  0.0425  0.2164
10873SOL     OW34486   2.269   2.491   1.093  0.4186  0.2776 -0.4084
10873SOL    HW134487   2.225   2.406   1.104 -0.7928  0.7721 -1.2219
10873SOL    HW234488   2.349   2.483   1.145 -1.4312 -0.0460  2.6811
10874SOL     OW34489   1.298   4.217   2.696 -0.0849  0.4184  0.1062
10874SOL    HW134490   1.284   4.128   2.728  1.6140  0.3787  0.8537
10874SOL    HW234491   1.280   4.273   2.771 -0.4725  0.6569 -0.1624
10875SOL     OW34492   8.696   0.651   7.887  0.5104 -0.6463 -0.1509
10875SOL    HW134493   8.694   0.710   7.963  0.5871  1.1717 -1.4814
10875SOL    HW234494   8.613   0.669   7.841  0.9552 -0.8975 -1.0762
10876SOL     OW34495   6.127   2.489   4.467  0.0618  0.3663 -0.2366
10876SOL    HW134496   6.068   2.417   4.492  0.4055  0.5369  1.1614
10876SOL    HW234497   6.164   2.462   4.383  1.2170 -1.7806  0.8633
10877SOL     OW34498   4.328   2.489   8.546 -0.3087 -0.1389  0.1905
10877SOL    HW134499   4.414   2.511   8.511 -0.0682 -0.4594  0.5636
10877SOL    HW234500   4.337   2.398   8.576 -1.2867 -0.7953 -1.3733
10878SOL     OW34501   6.884   6.523   3.837 -0.0198  0.6139  0.3858
10878SOL    HW134502   6.898   6.603   3.888 -2.0219  1.5968 -0.4579
10878SOL    HW234503   6.790   6.507   3.845 -0.0072 -0.4149 -1.2361
10879SOL     OW34504   6.255   0.598   7.903  0.0990  0.3160  0.3763
10879SOL    HW134505   6.254   0.635   7.815  0.4972 -0.7720 -0.1043
10879SOL    HW234506   6.246   0.504   7.890  0.7181  0.0818  1.4739
10880SOL     OW34507   1.496   3.755   8.964  0.2459 -0.1434  0.4257
10880SOL    HW134508   1.562   3.686   8.967 -1.2940 -1.6798  1.2048
10880SOL    HW234509   1.425   3.718   8.911 -0.6925  0.7770  0.9841
10881SOL     OW34510   6.650   2.049   2.516  0.3205 -0.7619 -0.7219
10881SOL    HW134511   6.606   2.112   2.574 -1.1718 -0.6413 -1.9145
10881SOL    HW234512   6.677   1.978   2.574 -0.9807 -0.5680  0.1706
10882SOL     OW34513   3.848   7.104   0.899  0.1815  0.3151 -0.5669
10882SOL    HW134514   3.806   7.155   0.830  0.7790  0.1166 -1.0908
10882SOL    HW234515   3.846   7.161   0.976  0.0639  0.7877 -0.9164
10883SOL     OW34516   5.878   5.246   7.308 -0.4034  0.5431  0.2901
10883SOL    HW134517   5.808   5.269   7.369  1.2437  0.3783  2.3507
10883SOL    HW234518   5.889   5.324   7.253 -1.3777  1.0222  0.7516
10884SOL     OW34519   7.208   2.173   0.520 -0.1159 -0.2949  0.7089
10884SOL    HW134520   7.290   2.217   0.502  0.5834 -1.6753  0.3885
10884SOL    HW234521   7.149   2.242   0.549  0.9710  0.8037  0.3476
10885SOL     OW34522   7.319   6.688   8.332  0.0844  0.6614  0.4407
10885SOL    HW134523   7.372   6.609   8.326 -1.3792 -0.4038  0.8439
10885SOL    HW234524   7.382   6.760   8.336  1.4647 -0.5324  0.7586
10886SOL     OW34525   2.590   1.410   6.407  0.0973  0.4736  0.2132
10886SOL    HW134526   2.562   1.381   6.494 -1.3665 -0.0234 -0.4030
10886SOL    HW234527   2.685   1.423   6.416 -0.2749  2.4399  2.4358
10887SOL     OW34528   5.286   6.696   8.258  0.5163 -0.2698 -0.2248
10887SOL    HW134529   5.218   6.763   8.268  0.2839 -0.6396  0.7819
10887SOL    HW234530   5.363   6.734   8.300  0.2757 -0.7698  0.7053
10888SOL     OW34531   1.948   0.465   5.078  0.1261 -0.5557 -0.0382
10888SOL    HW134532   2.007   0.528   5.036  1.1939 -0.3748  1.6344
10888SOL    HW234533   1.918   0.509   5.157 -1.9903 -0.8168 -0.6399
10889SOL     OW34534   2.441   6.573   5.541  0.2509 -0.4380 -0.2679
10889SOL    HW134535   2.354   6.613   5.537  0.6165  0.4073  0.0790
10889SOL    HW234536   2.424   6.480   5.557 -0.5684 -0.1731  0.4514
10890SOL     OW34537   3.434   0.113   5.337 -0.5246  0.1178 -0.2751
10890SOL    HW134538   3.410   0.191   5.287 -1.8288  0.2410  0.5007
10890SOL    HW234539   3.430   0.042   5.274 -0.9959  0.4398 -0.6183
10891SOL     OW34540   4.778   7.393   6.301  0.2639  0.0838  0.4676
10891SOL    HW134541   4.765   7.454   6.229  1.4769 -0.3592 -0.1586
10891SOL    HW234542   4.873   7.384   6.308  0.1293 -1.6136  0.6221
10892SOL     OW34543   0.418   7.425   0.109  0.5292  0.0059 -0.3484
10892SOL    HW134544   0.365   7.501   0.136 -0.1778 -0.8161  0.6804
10892SOL    HW234545   0.353   7.356   0.093  1.1854 -0.4794 -0.9615
10893SOL     OW34546   5.240   2.183   6.740 -0.0916  0.6809 -0.1127
10893SOL    HW134547   5.320   2.211   6.785  0.1240  0.6534 -0.4719
10893SOL    HW234548   5.169   2.205   6.801  0.2667 -0.3161  0.6864
10894SOL     OW34549   4.802   7.193   0.078 -0.0022 -0.4894  0.2905
10894SOL    HW134550   4.847   7.273   0.052 -0.9458  0.1511  0.5921
10894SOL    HW234551   4.857   7.155   0.147 -0.2323  0.6027  1.0955
10895SOL     OW34552   1.448   5.758   5.936 -0.0711 -0.1547  0.6619
10895SOL    HW134553   1.510   5.812   5.984  2.4389 -0.0175 -2.3561
10895SOL    HW234554   1.490   5.672   5.931 -0.4161 -0.2668 -0.8534
10896SOL     OW34555   6.668   1.850   3.341  0.3290  0.1796  0.1293
10896SOL    HW134556   6.681   1.942   3.321 -0.2708  0.4005  0.7268
10896SOL    HW234557   6.601   1.849   3.409 -1.4192 -0.7956 -1.4852
10897SOL     OW34558   2.573   1.022   7.536 -0.1573  0.0781 -0.3700
10897SOL    HW134559   2.595   1.108   7.502  1.2785  0.2246  0.7902
10897SOL    HW234560   2.509   1.038   7.605  1.0870  0.4133  0.7615
10898SOL     OW34561   4.871   4.136   5.466 -0.1781 -0.1286  0.3280
10898SOL    HW134562   4.964   4.147   5.481  0.4959 -2.7389 -1.3202
10898SOL    HW234563   4.849   4.052   5.507 -1.6070  0.0310 -0.0312
10899SOL     OW34564   3.551   3.691   8.862 -0.1197  0.1784 -0.3783
10899SOL    HW134565   3.645   3.701   8.872 -0.1517  0.0508  0.0821
10899SOL    HW234566   3.519   3.778   8.840  0.1614  0.1287 -0.9903
10900SOL     OW34567   8.641   4.170   5.143  0.1687  0.1295 -0.2447
10900SOL    HW134568   8.561   4.159   5.194 -0.4446  0.5150 -1.1060
10900SOL    HW234569   8.709   4.126   5.196 -0.6283 -0.3516  0.4104
10901SOL     OW34570   6.383   6.703   5.593  0.1072  0.1911 -0.2345
10901SOL    HW134571   6.459   6.663   5.552 -0.6914 -1.3657 -0.2404
10901SOL    HW234572   6.394   6.797   5.576  1.5557 -0.0811 -0.9900
10902SOL     OW34573   6.964   7.236   0.057 -0.0108  0.6482 -0.1236
10902SOL    HW134574   6.970   7.227  -0.038  2.1111  0.8355 -0.0671
10902SOL    HW234575   7.011   7.160   0.091 -2.3994 -0.4890  0.8822
10903SOL     OW34576   7.574   5.115   7.676  0.0470 -0.0451  0.0466
10903SOL    HW134577   7.513   5.044   7.659 -0.6289 -0.0760  2.2436
10903SOL    HW234578   7.524   5.195   7.657 -0.0303 -0.1141 -0.0392
10904SOL     OW34579   8.367   6.253   0.296 -0.0183 -0.0090  0.1172
10904SOL    HW134580   8.422   6.327   0.269  0.7531 -0.5928  0.0290
10904SOL    HW234581   8.380   6.248   0.391 -1.4287  1.0205  0.3851
10905SOL     OW34582   5.653   1.093   0.687 -0.0023 -0.2364 -0.0208
10905SOL    HW134583   5.670   1.150   0.612  1.1966  0.6510  0.8988
10905SOL    HW234584   5.558   1.077   0.684 -0.1645  0.7977 -0.9874
10906SOL     OW34585   4.846   7.554   1.291 -0.2615 -0.0870  0.5463
10906SOL    HW134586   4.795   7.540   1.211  2.2816  2.2342 -1.7150
10906SOL    HW234587   4.803   7.628   1.334  0.3415  0.9734 -0.6185
10907SOL     OW34588   2.655   5.611   3.396  0.2287 -0.3504 -0.0405
10907SOL    HW134589   2.698   5.694   3.415 -0.6972  0.1547 -0.0896
10907SOL    HW234590   2.563   5.634   3.385  0.1763 -1.1493 -1.5978
10908SOL     OW34591   8.565   2.042   8.492 -0.5604 -0.1539  0.2487
10908SOL    HW134592   8.614   2.029   8.411  0.0872  1.3695  0.3782
10908SOL    HW234593   8.605   1.981   8.554 -0.3864 -0.5979 -0.2935
10909SOL     OW34594   2.383   5.606   1.293 -0.7844  0.3048 -0.3648
10909SOL    HW134595   2.419   5.639   1.375  0.8273  0.8107 -1.2270
10909SOL    HW234596   2.421   5.519   1.283  0.1756  0.8063 -1.2422
10910SOL     OW34597   8.691   4.927   6.153 -0.0846 -0.6368 -0.0190
10910SOL    HW134598   8.726   4.913   6.240 -1.0087 -0.4802  0.3893
10910SOL    HW234599   8.726   5.011   6.125 -2.7759  1.2607  1.7933
10911SOL     OW34600   3.702   2.204   4.418  0.3693  0.2695 -0.2652
10911SOL    HW134601   3.771   2.268   4.434 -0.6078  1.8970 -2.2186
10911SOL    HW234602   3.740   2.143   4.354  0.9919 -0.6611  0.9409
10912SOL     OW34603   6.233   2.010   3.091 -0.1965 -0.1847  0.1159
10912SOL    HW134604   6.233   1.925   3.135 -1.3890 -0.1139  0.2594
10912SOL    HW234605   6.326   2.032   3.083  0.1056 -0.1910  2.6238
10913SOL     OW34606   2.102   8.206   5.053 -0.0467  0.2283  0.2990
10913SOL    HW134607   2.099   8.156   4.971 -0.2986  0.0725  0.4025
10913SOL    HW234608   2.184   8.178   5.094 -0.7262 -0.9565  0.8870
10914SOL     OW34609   7.313   7.808   5.458 -0.0086  0.1348  0.1885
10914SOL    HW134610   7.300   7.858   5.378 -0.2195 -0.3825 -0.1057
10914SOL    HW234611   7.289   7.868   5.529 -2.2602 -0.2018 -0.2394
10915SOL     OW34612   5.466   2.997   7.302 -0.2289 -0.4516 -0.8060
10915SOL    HW134613   5.413   2.990   7.382 -0.7899 -0.2286 -1.1477
10915SOL    HW234614   5.521   2.919   7.303 -0.4408 -0.6015 -0.3503
10916SOL     OW34615   0.107   4.838   6.620 -0.0995  0.3702 -0.0020
10916SOL    HW134616   0.059   4.764   6.658 -0.2612  1.1496  1.3746
10916SOL    HW234617   0.040   4.906   6.608 -0.0007  0.2338 -1.4983
10917SOL     OW34618   5.986   7.017   2.392  0.2605 -0.3297 -0.5948
10917SOL    HW134619   5.951   7.029   2.303  0.9892 -0.6624 -0.9367
10917SOL    HW234620   5.926   7.066   2.448  0.1781  0.4590 -1.3462
10918SOL     OW34621   7.704   2.903   5.159  0.0383 -0.1562  0.5531
10918SOL    HW134622   7.749   2.933   5.079  1.6837  0.1478  1.5512
10918SOL    HW234623   7.738   2.959   5.228  0.5184 -1.9986  1.8842
10919SOL     OW34624   8.853   0.257   6.696 -0.7726 -0.3568 -0.5132
10919SOL    HW134625   8.832   0.347   6.673  0.2079 -0.1357 -0.5526
10919SOL    HW234626   8.832   0.207   6.617 -1.6317 -0.2242 -0.3843
10920SOL     OW34627   1.707   2.138   1.347  0.2476  0.0854 -0.5640
10920SOL    HW134628   1.747   2.189   1.276 -0.0702 -0.7701 -1.3677
10920SOL    HW234629   1.706   2.048   1.315  0.1535 -0.3316  0.5587
10921SOL     OW34630   2.777   2.430   1.368  0.2876  0.4095 -0.2605
10921SOL    HW134631   2.826   2.511   1.377  2.0620 -0.7106  0.9830
10921SOL    HW234632   2.817   2.371   1.432 -1.4082 -1.2236 -0.6117
10922SOL     OW34633   5.196   8.740   4.821  0.1577 -0.2721 -0.0759
10922SOL    HW134634   5.115   8.735   4.873  0.6109 -0.4568  0.6200
10922SOL    HW234635   5.262   8.696   4.875  0.4693 -1.1867 -1.1564
10923SOL     OW34636   7.877   8.252   1.480  0.5594  0.5488 -0.5182
10923SOL    HW134637   7.949   8.191   1.462 -1.6179 -2.0537 -1.0516
10923SOL    HW234638   7.879   8.314   1.407  1.1477 -0.6112 -1.5255
10924SOL     OW34639   8.523   3.134   1.134 -0.6019  0.1095  0.1220
10924SOL    HW134640   8.519   3.093   1.047  2.8218 -1.1217  0.4105
10924SOL    HW234641   8.527   3.061   1.195  0.4445  0.9043  1.0434
10925SOL     OW34642   7.475   8.929   0.738  0.1138 -0.1463  0.0814
10925SOL    HW134643   7.429   8.966   0.663  0.3425 -0.3932 -0.1840
10925SOL    HW234644   7.561   8.970   0.736 -0.0715  0.2782  0.5490
10926SOL     OW34645   3.658   8.699   1.075 -0.0287 -0.1614  0.1800
10926SOL    HW134646   3.611   8.641   1.015 -0.1591 -1.0662  1.1205
10926SOL    HW234647   3.627   8.787   1.054 -0.5398 -0.5283 -0.6384
10927SOL     OW34648   8.336   6.735   3.867 -0.0608  0.2853  0.2217
10927SOL    HW134649   8.374   6.649   3.848  0.2940 -0.2701  3.0351
10927SOL    HW234650   8.250   6.733   3.825  0.9063 -0.4314 -1.8569
10928SOL     OW34651   5.533   0.583   5.741  0.3241 -0.3606 -0.1612
10928SOL    HW134652   5.614   0.632   5.727  0.0028  0.3198  0.3300
10928SOL    HW234653   5.558   0.491   5.726  1.4163 -0.2686  0.9276
10929SOL     OW34654   7.409   2.920   6.396  0.8558 -0.1026  0.4418
10929SOL    HW134655   7.474   2.919   6.325 -0.8851 -0.9779 -1.2545
10929SOL    HW234656   7.342   2.981   6.365  0.2390 -0.2058  1.5392
10930SOL     OW34657   5.443   6.294   3.132  0.3724 -0.0495 -0.1010
10930SOL    HW134658   5.512   6.312   3.195  1.2140 -0.1433 -0.9653
10930SOL    HW234659   5.486   6.305   3.046 -0.5756 -0.5075 -0.6494
10931SOL     OW34660   8.219   1.530   4.778 -0.3266 -0.4342 -0.1335
10931SOL    HW134661   8.288   1.584   4.739 -0.1000 -1.3928 -1.1014
10931SOL    HW234662   8.236   1.534   4.873 -1.5627  2.8587  0.0839
10932SOL     OW34663   5.994   0.687   7.539  0.6615 -0.2974  0.2171
10932SOL    HW134664   6.076   0.704   7.584  0.4041  1.2231  0.1878
10932SOL    HW234665   6.011   0.710   7.448 -0.0732  1.1308  0.4096
10933SOL     OW34666   3.047   6.842   0.967  0.8206 -0.7169 -0.0750
10933SOL    HW134667   3.004   6.925   0.991 -0.3034 -1.3051  0.0252
10933SOL    HW234668   3.060   6.848   0.872 -0.2796 -0.8647 -0.2505
10934SOL     OW34669   7.690   2.288   1.327 -0.0158  0.2026  0.1508
10934SOL    HW134670   7.736   2.204   1.325  0.5554  0.5084  0.4301
10934SOL    HW234671   7.665   2.299   1.419  0.8335  0.8325  0.3153
10935SOL     OW34672   0.339   5.512   7.753 -0.1545 -0.6401  0.6401
10935SOL    HW134673   0.299   5.565   7.822 -1.5136 -1.1768  0.2943
10935SOL    HW234674   0.367   5.576   7.688  0.5684 -0.1741  1.3970
10936SOL     OW34675   2.382   4.222   3.806 -0.0110  0.4050 -0.5314
10936SOL    HW134676   2.429   4.223   3.722  0.0232  0.5058 -0.5107
10936SOL    HW234677   2.292   4.243   3.782 -0.2231 -0.6025 -0.6797
10937SOL     OW34678   0.588   5.397   1.924 -0.1286  0.5243 -0.1191
10937SOL    HW134679   0.600   5.489   1.946  0.4486  0.4403 -0.0541
10937SOL    HW234680   0.493   5.383   1.927 -0.2560  1.2377 -0.6407
10938SOL     OW34681   2.759   5.557   0.643 -0.1947 -0.0779  0.3147
10938SOL    HW134682   2.824   5.625   0.661  0.2942 -0.7960  1.3185
10938SOL    HW234683   2.809   5.475   0.643 -1.0837 -0.6345  0.9856
10939SOL     OW34684   2.435   7.982   0.895  0.3066  0.1725 -0.0643
10939SOL    HW134685   2.354   7.937   0.919 -0.1356  0.1756 -1.4621
10939SOL    HW234686   2.417   8.074   0.912  0.3223  0.0842  0.4339
10940SOL     OW34687   3.650   0.602   0.349 -0.7215 -0.5705  0.6331
10940SOL    HW134688   3.596   0.681   0.348 -1.6342 -1.1785 -0.5333
10940SOL    HW234689   3.641   0.568   0.438  0.0368  0.8437  1.2854
10941SOL     OW34690   2.056   4.316   8.918  0.2390 -0.2118 -0.1771
10941SOL    HW134691   1.965   4.343   8.907  0.0216 -1.0929 -0.7237
10941SOL    HW234692   2.105   4.397   8.934 -0.8795  0.1215  1.9504
10942SOL     OW34693   8.375   7.723   8.018  0.5698 -0.6932  0.3912
10942SOL    HW134694   8.321   7.745   8.095 -0.4844  0.2368 -0.5801
10942SOL    HW234695   8.332   7.646   7.980  0.9858 -1.0386  0.6008
10943SOL     OW34696   6.683   3.125   6.859  0.0478 -0.3134  0.1660
10943SOL    HW134697   6.675   3.199   6.799  0.2189  0.3285  0.9212
10943SOL    HW234698   6.760   3.078   6.828 -0.4339 -0.5425 -0.7052
10944SOL     OW34699   8.358   7.265   3.019  0.3577  0.0445 -1.1277
10944SOL    HW134700   8.277   7.294   2.976  0.6219  2.9871  0.1572
10944SOL    HW234701   8.335   7.180   3.057 -2.5834  1.2566  0.1899
10945SOL     OW34702   4.946   6.778   7.562  0.1191 -0.4223 -0.1931
10945SOL    HW134703   4.928   6.847   7.498  1.7914  0.0714 -0.1908
10945SOL    HW234704   5.001   6.820   7.628  2.6943 -2.0824 -1.0853
10946SOL     OW34705   8.794   3.651   4.430  0.5143 -0.0435  0.4415
10946SOL    HW134706   8.738   3.644   4.353  1.1131  0.2730 -0.0241
10946SOL    HW234707   8.732   3.654   4.504 -0.2602  3.0522 -0.2049
10947SOL     OW34708   1.237   0.989   4.916 -0.4309 -0.5120  0.0033
10947SOL    HW134709   1.195   0.943   4.843  0.1255 -0.9261 -0.0627
10947SOL    HW234710   1.189   0.960   4.994 -2.0978  1.1636 -0.3211
10948SOL     OW34711   0.556   8.565   7.701  0.0209  0.4656 -0.0278
10948SOL    HW134712   0.537   8.551   7.793  0.4646 -1.3347 -0.1800
10948SOL    HW234713   0.503   8.641   7.677 -0.9953  0.2551  1.4219
10949SOL     OW34714   8.791   2.063   6.226 -0.2184  0.2847 -0.2949
10949SOL    HW134715   8.742   2.038   6.304 -0.3586 -0.2351 -0.5468
10949SOL    HW234716   8.725   2.093   6.164  0.0792  5.4355  1.3604
10950SOL     OW34717   5.947   6.161   6.095  0.0946 -0.5142 -0.7308
10950SOL    HW134718   5.948   6.107   6.174 -0.1707  1.2292  0.5312
10950SOL    HW234719   5.950   6.098   6.023 -0.5542 -2.2123  0.6447
10951SOL     OW34720   6.280   4.778   3.771  0.7220  0.5030 -0.1832
10951SOL    HW134721   6.318   4.691   3.776  1.9020  1.0596  2.8866
10951SOL    HW234722   6.199   4.773   3.822  0.5620  1.1072 -0.3568
10952SOL     OW34723   6.218   2.056   6.646  0.3673  0.0914 -0.2401
10952SOL    HW134724   6.301   2.076   6.602  0.4346  0.9531  0.2578
10952SOL    HW234725   6.160   2.026   6.575  1.0601 -0.4037 -0.6104
10953SOL     OW34726   3.783   1.748   6.872  0.2543 -0.4356  0.5152
10953SOL    HW134727   3.855   1.803   6.842  1.2530 -1.9128  0.1566
10953SOL    HW234728   3.770   1.774   6.963  0.2900  0.8056  0.1874
10954SOL     OW34729   4.843   3.685   5.730  0.0057 -0.3353 -0.1385
10954SOL    HW134730   4.817   3.597   5.704 -2.0675  0.1440  0.1050
10954SOL    HW234731   4.885   3.673   5.816 -1.8571 -0.9464  0.7349
10955SOL     OW34732   7.964   1.551   3.907  0.4168 -0.2608 -0.2138
10955SOL    HW134733   8.058   1.550   3.925  0.2149  0.8143  1.0880
10955SOL    HW234734   7.957   1.570   3.814  1.4876 -0.3795 -0.3269
10956SOL     OW34735   5.186   8.026   6.027 -0.4950  0.1529 -0.0203
10956SOL    HW134736   5.232   8.078   5.961 -0.8686 -1.5269 -1.6897
10956SOL    HW234737   5.253   7.967   6.062 -0.6113  0.0611  0.0491
10957SOL     OW34738   8.629   7.356   0.087  0.2908 -0.0848 -0.0063
10957SOL    HW134739   8.628   7.274   0.136  1.5241  0.2081  0.5626
10957SOL    HW234740   8.628   7.424   0.154  0.7344  0.3377 -0.4191
10958SOL     OW34741   5.872   0.487   2.809  0.1805 -0.6062  0.3511
10958SOL    HW134742   5.923   0.441   2.875  1.0005 -1.6070 -0.9386
10958SOL    HW234743   5.833   0.418   2.756  0.6676  0.1555 -1.0627
10959SOL     OW34744   4.279   0.584   5.804  1.4545  0.0766 -0.2638
10959SOL    HW134745   4.294   0.496   5.838 -2.0612 -0.5389  0.0202
10959SOL    HW234746   4.365   0.626   5.810  2.9329 -2.8039  1.0361
10960SOL     OW34747   1.112   6.947   5.920  0.1147  0.6557 -0.3693
10960SOL    HW134748   1.064   7.019   5.961 -0.5192  0.5322 -0.8807
10960SOL    HW234749   1.058   6.921   5.846  1.3049  0.9796 -1.3881
10961SOL     OW34750   3.014   6.907   6.522  0.1157  0.2010  0.1406
10961SOL    HW134751   2.948   6.860   6.472 -0.2692  0.2835  0.5608
10961SOL    HW234752   3.013   6.996   6.487 -1.9536  0.9660  1.9407
10962SOL     OW34753   7.042   5.768   5.498  0.2227  0.1810 -0.2759
10962SOL    HW134754   7.045   5.674   5.517 -1.2149 -0.1884 -1.6538
10962SOL    HW234755   6.965   5.799   5.544 -0.6804  0.1743 -1.7193
10963SOL     OW34756   0.784   6.955   6.976  0.0007  0.0770 -0.0656
10963SOL    HW134757   0.822   7.043   6.977  0.7448 -0.2181 -1.2717
10963SOL    HW234758   0.847   6.900   7.022  0.5396 -0.2089 -1.1278
10964SOL     OW34759   6.848   0.376   4.012  0.1703  0.0245 -0.1868
10964SOL    HW134760   6.810   0.463   4.010 -1.3607 -0.6122  0.1028
10964SOL    HW234761   6.784   0.321   3.967 -0.4912 -1.5314  2.4664
10965SOL     OW34762   4.798   1.559   2.825  0.1325 -0.2568  0.4501
10965SOL    HW134763   4.738   1.485   2.812  0.1526 -0.6806  2.5169
10965SOL    HW234764   4.741   1.636   2.822 -0.0932 -0.4403 -0.2956
10966SOL     OW34765   7.146   7.541   7.915  0.3529  0.4943  0.2069
10966SOL    HW134766   7.069   7.484   7.911  0.1001  0.8449  0.0453
10966SOL    HW234767   7.170   7.556   7.824 -0.9876  2.5253  0.1118
10967SOL     OW34768   8.964   6.443   2.111  0.0707 -0.4267  0.8189
10967SOL    HW134769   8.898   6.374   2.117 -0.6779  0.1611 -0.2241
10967SOL    HW234770   8.983   6.449   2.017 -0.9048  1.6976  0.7045
10968SOL     OW34771   3.602   8.938   3.239 -0.4399  0.1242 -0.2767
10968SOL    HW134772   3.542   9.000   3.282 -1.1764 -0.2370 -0.7633
10968SOL    HW234773   3.689   8.977   3.251 -0.7949  0.7983  0.1992
10969SOL     OW34774   2.345   4.237   7.393 -0.0762  0.3162  0.2283
10969SOL    HW134775   2.255   4.267   7.380  0.0730  1.1476  1.0080
10969SOL    HW234776   2.375   4.284   7.471  0.6542 -0.8154  0.6559
10970SOL     OW34777   5.345   3.986   3.969  0.5956  0.2461 -0.2035
10970SOL    HW134778   5.437   4.002   3.988  0.4914 -0.4178  0.9714
10970SOL    HW234779   5.346   3.918   3.902  0.9752 -0.4397  0.4766
10971SOL     OW34780   3.171   1.096   1.656  0.3085 -0.1055 -0.6831
10971SOL    HW134781   3.107   1.081   1.726  1.1517  1.8220  0.5920
10971SOL    HW234782   3.121   1.086   1.575 -0.8843 -1.6277  0.1790
10972SOL     OW34783   3.121   3.126   0.330 -0.2362  0.0661  0.3299
10972SOL    HW134784   3.108   3.058   0.395  0.6980 -0.3605  0.0855
10972SOL    HW234785   3.118   3.080   0.246 -0.6272  0.4865  0.1099
10973SOL     OW34786   0.852   5.179   6.831 -0.0542  0.4675 -0.0324
10973SOL    HW134787   0.783   5.146   6.773  0.1342  2.6354 -1.5994
10973SOL    HW234788   0.853   5.273   6.816  2.0867  0.7201  1.2725
10974SOL     OW34789   6.052   1.836   1.619  0.5087  0.6924  0.4288
10974SOL    HW134790   5.968   1.806   1.583  0.9902  2.4022 -2.3428
10974SOL    HW234791   6.108   1.759   1.617 -0.4036  0.0127  0.4502
10975SOL     OW34792   2.822   5.867   4.939 -0.0485  0.5626 -0.4015
10975SOL    HW134793   2.861   5.937   4.886  0.3474  0.0637 -0.7804
10975SOL    HW234794   2.837   5.787   4.888 -0.5202  0.2004  0.0128
10976SOL     OW34795   1.270   3.722   0.210 -0.0711  0.3931  0.4682
10976SOL    HW134796   1.202   3.675   0.162 -0.0422 -1.7513  2.3855
10976SOL    HW234797   1.225   3.799   0.246 -0.4837  1.1110 -1.4552
10977SOL     OW34798   8.209   6.365   2.595 -0.5533 -0.1465 -0.1617
10977SOL    HW134799   8.187   6.359   2.688  0.4399  3.8499  0.5094
10977SOL    HW234800   8.172   6.285   2.557 -0.5825 -2.2009  3.6749
10978SOL     OW34801   0.156   5.569   5.107 -0.2649 -0.1551  0.3120
10978SOL    HW134802   0.243   5.567   5.070 -0.4083 -0.8621 -0.0130
10978SOL    HW234803   0.100   5.603   5.037 -0.5485 -1.5698 -0.1903
10979SOL     OW34804   8.461   3.265   4.924 -0.1099  0.1257  0.4666
10979SOL    HW134805   8.544   3.296   4.961  1.0647 -1.6673 -0.5267
10979SOL    HW234806   8.455   3.311   4.840 -0.2791  0.4717  0.6654
10980SOL     OW34807   1.759   6.852   6.236  0.4572 -0.0772 -0.1604
10980SOL    HW134808   1.800   6.767   6.216 -0.6616 -0.5921 -0.3197
10980SOL    HW234809   1.710   6.836   6.317  0.6313  0.5551  0.0719
10981SOL     OW34810   8.154   6.543   0.257  0.4946  0.1661  0.4868
10981SOL    HW134811   8.245   6.514   0.271  0.7849  0.3502 -0.8434
10981SOL    HW234812   8.103   6.489   0.317  1.4648 -0.0166  1.1912
10982SOL     OW34813   4.049   4.840   8.712  0.1770 -0.5333 -0.1780
10982SOL    HW134814   4.128   4.887   8.685 -0.3075  0.2343 -0.2936
10982SOL    HW234815   3.979   4.904   8.700 -0.6809 -1.6608 -1.5296
10983SOL     OW34816   3.927   0.799   7.573  0.0572 -0.0782 -0.2707
10983SOL    HW134817   3.915   0.815   7.480  0.8135 -0.3998 -0.4345
10983SOL    HW234818   3.840   0.810   7.611  0.2136  2.8621 -0.5703
10984SOL     OW34819   1.560   2.946   3.462 -0.0971  0.4695  0.1139
10984SOL    HW134820   1.546   2.990   3.546  2.7476  1.9422 -0.0696
10984SOL    HW234821   1.622   2.876   3.481  0.7732  0.9722 -0.7611
10985SOL     OW34822   3.066   1.769   1.520  0.4070 -0.3531 -0.5008
10985SOL    HW134823   3.057   1.864   1.528 -0.4871 -0.0242 -3.7112
10985SOL    HW234824   3.159   1.755   1.501  0.8044 -0.3098  1.2812
10986SOL     OW34825   5.355   5.660   0.734  0.4594 -0.8780 -0.1249
10986SOL    HW134826   5.333   5.692   0.647  1.0252  0.3005  0.1420
10986SOL    HW234827   5.277   5.677   0.787  0.6915 -0.0703 -0.0280
10987SOL     OW34828   6.310   8.889   6.374 -0.2111  0.1692  0.0336
10987SOL    HW134829   6.270   8.929   6.297 -1.8520  0.3050  0.9185
10987SOL    HW234830   6.396   8.931   6.381 -0.6766  1.3010 -0.8194
10988SOL     OW34831   3.386   6.216   8.038  0.3032 -0.1860 -0.0249
10988SOL    HW134832   3.320   6.150   8.015  0.2657  0.1810 -0.9820
10988SOL    HW234833   3.387   6.276   7.964 -0.4885  1.5583  1.3149
10989SOL     OW34834   5.012   0.995   3.435 -0.2999 -0.3496 -0.0508
10989SOL    HW134835   4.951   0.925   3.456  0.1538 -1.2384 -1.5113
10989SOL    HW234836   5.085   0.982   3.496 -1.3104  0.4076  1.3563
10990SOL     OW34837   7.930   4.303   8.733  0.3124 -0.0549 -0.7946
10990SOL    HW134838   7.948   4.397   8.735 -1.6368  0.3538  0.3470
10990SOL    HW234839   7.841   4.296   8.697  1.0146 -1.6234 -2.4215
10991SOL     OW34840   2.164   6.507   2.099  0.7243  0.4241  0.0564
10991SOL    HW134841   2.090   6.453   2.128  1.6436 -0.6669  0.4128
10991SOL    HW234842   2.187   6.558   2.177  0.8124  0.2338  0.1551
10992SOL     OW34843   3.053   7.364   1.862 -0.2416 -0.7889  0.1519
10992SOL    HW134844   2.979   7.398   1.913 -0.6379  1.0404 -1.5045
10992SOL    HW234845   3.024   7.278   1.832 -1.6846 -0.1642 -0.3559
10993SOL     OW34846   3.453   6.191   7.613 -0.0635  0.3099  0.3247
10993SOL    HW134847   3.542   6.202   7.581 -0.3262 -0.9338 -0.9400
10993SOL    HW234848   3.411   6.276   7.597  0.7261  0.7194  0.4065
10994SOL     OW34849   8.867   4.199   1.017  0.0439 -0.3496  0.1913
10994SOL    HW134850   8.858   4.280   0.968 -0.1885 -0.9245 -0.7469
10994SOL    HW234851   8.961   4.184   1.023  0.0823 -1.4983 -2.2259
10995SOL     OW34852   6.980   4.907   8.164  0.0209 -0.4886 -0.4567
10995SOL    HW134853   7.034   4.885   8.240 -0.1739 -2.2738 -0.8012
10995SOL    HW234854   6.929   4.983   8.193  1.0630 -0.1587  0.6357
10996SOL     OW34855   3.498   8.171   5.157  0.2763 -0.2544  0.0807
10996SOL    HW134856   3.506   8.223   5.077  0.3139  1.0437  0.8793
10996SOL    HW234857   3.579   8.120   5.161  1.4389  1.5032  0.4823
10997SOL     OW34858   7.061   8.749   1.529  0.0384 -0.2502  0.3172
10997SOL    HW134859   7.015   8.819   1.483 -1.4482 -1.1874  0.3118
10997SOL    HW234860   7.107   8.701   1.461  1.2429  0.8304  0.3473
10998SOL     OW34861   3.656   1.714   6.161  0.2105 -0.2612  0.2302
10998SOL    HW134862   3.609   1.631   6.167  2.0082 -1.4483 -1.2453
10998SOL    HW234863   3.649   1.739   6.069  1.8310 -0.1216  0.1213
10999SOL     OW34864   8.918   6.899   6.093 -0.8400 -0.3107 -0.4561
10999SOL    HW134865   8.846   6.959   6.074 -2.1391 -1.8355 -0.5186
10999SOL    HW234866   8.878   6.812   6.095  0.5723 -0.9929  1.8333
11000SOL     OW34867   0.390   5.727   7.587 -0.4059  0.1468 -0.4283
11000SOL    HW134868   0.408   5.785   7.660 -0.9552 -1.0251  0.6674
11000SOL    HW234869   0.413   5.779   7.509  1.1696  1.0510  0.5883
11001SOL     OW34870   2.206   1.328   7.202 -0.6035 -0.1990  0.4501
11001SOL    HW134871   2.212   1.276   7.282 -0.9085 -0.5745  0.2360
11001SOL    HW234872   2.250   1.275   7.136 -1.2938 -0.3937  0.1325
11002SOL     OW34873   7.333   0.375   5.406  0.3911 -0.1986 -0.0242
11002SOL    HW134874   7.368   0.402   5.491  0.4141  2.3741 -0.7393
11002SOL    HW234875   7.243   0.347   5.425 -0.2100  2.0165  0.7028
11003SOL     OW34876   3.461   1.004   8.858  0.2833 -0.1188  0.2778
11003SOL    HW134877   3.377   1.051   8.855  0.6381  0.5511  0.5618
11003SOL    HW234878   3.485   1.004   8.951  1.6247  1.5923 -0.0146
11004SOL     OW34879   5.060   0.897   1.237 -0.0499  0.1980  0.2182
11004SOL    HW134880   5.045   0.804   1.252 -1.1119  0.7628  3.1315
11004SOL    HW234881   4.976   0.930   1.205  0.7792 -0.0281 -2.5117
11005SOL     OW34882   8.912   1.501   8.784 -0.0972 -0.3016 -0.0863
11005SOL    HW134883   8.919   1.593   8.758  2.5010  0.3513  2.4673
11005SOL    HW234884   8.967   1.454   8.721  0.7451  0.3081  0.1759
11006SOL     OW34885   5.794   5.880   6.587 -0.4637  0.1294  0.6371
11006SOL    HW134886   5.821   5.968   6.612 -1.0836  0.8570 -1.1014
11006SOL    HW234887   5.747   5.892   6.505  0.1991 -1.9191 -0.1061
11007SOL     OW34888   2.660   2.903   1.439 -0.0051 -0.4486 -0.0408
11007SOL    HW134889   2.603   2.972   1.471  1.1657  0.7750 -0.5038
11007SOL    HW234890   2.709   2.943   1.368  0.6774 -1.7704 -0.3494
11008SOL     OW34891   1.527   6.781   7.952  0.0349  0.3079  0.2380
11008SOL    HW134892   1.533   6.800   7.858  0.6687 -0.3297  0.1444
11008SOL    HW234893   1.495   6.863   7.991  0.7384  0.8986 -0.4037
11009SOL     OW34894   5.645   4.412   1.688  0.0387  0.3979 -0.3106
11009SOL    HW134895   5.612   4.427   1.600 -2.1973  0.8623  0.5463
11009SOL    HW234896   5.737   4.438   1.684  0.0169  0.3212 -2.4980
11010SOL     OW34897   4.193   7.633   1.211 -0.6661  0.2498 -0.6414
11010SOL    HW134898   4.097   7.636   1.207 -0.6186  1.9049 -1.5300
11010SOL    HW234899   4.219   7.725   1.210  0.9598 -0.1947 -1.2168
11011SOL     OW34900   0.490   1.562   1.662 -0.4099  0.2239  0.2046
11011SOL    HW134901   0.426   1.570   1.732 -0.3565  2.1928  0.0956
11011SOL    HW234902   0.559   1.625   1.684  1.3774 -1.5991  0.1568
11012SOL     OW34903   1.255   4.832   6.904  0.2598 -0.2818 -0.5425
11012SOL    HW134904   1.224   4.795   6.821 -1.2850  0.0202 -0.1350
11012SOL    HW234905   1.183   4.887   6.933 -0.0653 -1.9080  1.9980
11013SOL     OW34906   0.784   5.693   2.415 -0.4996 -0.1779 -0.1660
11013SOL    HW134907   0.705   5.746   2.423 -0.9000 -0.2037 -2.8513
11013SOL    HW234908   0.851   5.753   2.383  0.4900 -0.2774  1.5742
11014SOL     OW34909   8.561   5.721   3.616 -0.2049  0.0336 -0.5273
11014SOL    HW134910   8.541   5.793   3.556 -1.7578  1.9189  2.0009
11014SOL    HW234911   8.477   5.702   3.659  0.5789 -2.0493  0.2120
11015SOL     OW34912   5.617   2.903   8.313  0.1090  0.4988 -0.1856
11015SOL    HW134913   5.587   2.819   8.346 -0.1801  0.5105 -0.4138
11015SOL    HW234914   5.539   2.943   8.273  0.5824  0.1916 -1.4792
11016SOL     OW34915   4.056   6.703   4.646  0.6304  0.5038 -0.3476
11016SOL    HW134916   4.085   6.640   4.580 -1.0022 -0.2142 -0.4284
11016SOL    HW234917   4.042   6.784   4.597  2.1470  0.7946 -0.3512
11017SOL     OW34918   6.623   3.358   6.713 -0.7664 -0.0961 -0.3236
11017SOL    HW134919   6.606   3.450   6.732 -1.1531 -0.4007  0.8483
11017SOL    HW234920   6.550   3.331   6.658 -0.5042  0.3556 -0.9105
11018SOL     OW34921   6.037   0.623   5.060 -0.3702 -0.2371 -0.3109
11018SOL    HW134922   6.037   0.619   4.964  3.4673 -1.7053 -0.4470
11018SOL    HW234923   6.103   0.690   5.080 -2.9337  1.9681  1.4831
11019SOL     OW34924   2.574   8.737   4.624  0.2215  0.2076  0.4300
11019SOL    HW134925   2.601   8.686   4.548  0.0734 -0.9426  1.1170
11019SOL    HW234926   2.630   8.705   4.696 -1.9668 -1.2906  1.5798
11020SOL     OW34927   3.859   4.033   0.410  0.3805 -0.5404  0.0337
11020SOL    HW134928   3.849   3.938   0.407  2.7205 -0.8202 -0.2263
11020SOL    HW234929   3.818   4.063   0.328 -0.1427 -1.3260 -0.0050
11021SOL     OW34930   6.907   8.219   0.737 -0.0509 -0.2496  0.0206
11021SOL    HW134931   6.877   8.310   0.726  0.2804  0.0387  1.3353
11021SOL    HW234932   6.941   8.195   0.652 -1.1326  0.4951 -0.6552
11022SOL     OW34933   4.970   7.721   0.370  0.3567  0.3066  0.2714
11022SOL    HW134934   4.931   7.725   0.457 -1.9550  0.3456 -0.7063
11022SOL    HW234935   4.898   7.696   0.312  1.5101  1.5017 -1.8097
11023SOL     OW34936   5.291   7.937   4.169 -0.7499 -0.0036  0.1102
11023SOL    HW134937   5.329   7.982   4.245 -0.0689  1.9918 -1.3139
11023SOL    HW234938   5.244   8.006   4.122 -1.5953 -1.3022 -1.0156
11024SOL     OW34939   5.077   3.989   8.867  0.1291  0.3606  0.2896
11024SOL    HW134940   5.050   3.908   8.910 -0.2564  0.5583  0.4279
11024SOL    HW234941   5.171   3.994   8.881 -0.0382  0.6057  1.4301
11025SOL     OW34942   0.980   2.262   7.924  0.4541 -0.1901 -0.4930
11025SOL    HW134943   0.997   2.356   7.934 -0.3592  0.1621 -1.9743
11025SOL    HW234944   1.066   2.221   7.926  0.7100  0.2928  2.2866
11026SOL     OW34945   8.725   5.701   6.126 -0.4118 -0.3190  0.3640
11026SOL    HW134946   8.719   5.790   6.091 -2.1103 -0.9321 -1.0285
11026SOL    HW234947   8.660   5.699   6.197  0.9765  0.0733  1.6877
11027SOL     OW34948   8.332   4.996   3.393 -0.1045 -0.0647 -0.3331
11027SOL    HW134949   8.237   4.995   3.405  0.0132 -0.7203  0.7343
11027SOL    HW234950   8.358   5.087   3.409 -0.5150  0.0403 -0.2590
11028SOL     OW34951   4.190   7.601   7.817  0.0804  0.1812 -0.0366
11028SOL    HW134952   4.273   7.596   7.865  0.7928  1.0094 -1.1227
11028SOL    HW234953   4.126   7.630   7.883  0.9121  0.7317  0.5502
11029SOL     OW34954   6.433   4.428   7.035 -0.0077 -0.7160 -0.4185
11029SOL    HW134955   6.444   4.495   7.102  1.2867 -0.1033 -1.1926
11029SOL    HW234956   6.438   4.345   7.083  1.6063 -0.3060  0.1966
11030SOL     OW34957   6.763   7.299   2.651 -0.2959 -0.3092  0.7980
11030SOL    HW134958   6.689   7.303   2.711 -0.4289 -0.9526  0.6800
11030SOL    HW234959   6.834   7.261   2.702 -0.1775 -0.1150  0.7792
11031SOL     OW34960   6.643   6.560   2.205 -0.0046 -0.1640 -0.4396
11031SOL    HW134961   6.661   6.647   2.170 -1.1189  0.2372 -0.0681
11031SOL    HW234962   6.562   6.570   2.255  1.2627 -0.7898  1.8995
11032SOL     OW34963   8.274   1.610   0.451  0.1275  0.0914 -0.0368
11032SOL    HW134964   8.256   1.695   0.410  1.0579  0.3517  0.0821
11032SOL    HW234965   8.322   1.561   0.385  1.4679  0.4433  0.6517
11033SOL     OW34966   4.651   7.135   5.787  0.6988  0.1030  0.4171
11033SOL    HW134967   4.560   7.148   5.764  0.3799 -0.3609  1.3438
11033SOL    HW234968   4.697   7.129   5.704 -0.1829 -0.1308 -0.0592
11034SOL     OW34969   4.544   8.077   5.434 -0.1714  0.7150  0.3120
11034SOL    HW134970   4.449   8.087   5.433 -0.4280 -1.2285  0.8717
11034SOL    HW234971   4.562   8.008   5.370  0.4951 -1.0946  2.3344
11035SOL     OW34972   6.608   4.129   0.991 -0.1656 -0.0023 -0.0832
11035SOL    HW134973   6.621   4.098   0.902 -0.4864 -0.5909  0.0696
11035SOL    HW234974   6.624   4.053   1.046 -0.3614  0.2532  0.3352
11036SOL     OW34975   0.380   8.486   0.554  0.0032 -0.1409  0.8621
11036SOL    HW134976   0.321   8.442   0.615  1.7662 -1.6106  1.6022
11036SOL    HW234977   0.363   8.580   0.567 -1.1821 -0.4952  2.0252
11037SOL     OW34978   4.356   6.283   1.212 -0.5259  0.7971  0.0492
11037SOL    HW134979   4.355   6.353   1.147 -3.4606 -0.1183 -1.0619
11037SOL    HW234980   4.306   6.318   1.285 -1.0535  0.2857 -0.0577
11038SOL     OW34981   5.357   6.753   2.232  0.4561  0.4311 -0.6558
11038SOL    HW134982   5.277   6.708   2.204  0.8717 -0.0589 -1.0724
11038SOL    HW234983   5.335   6.846   2.230  0.1310  0.3383 -1.5038
11039SOL     OW34984   5.698   6.169   1.757  0.2496 -0.4872  0.1773
11039SOL    HW134985   5.665   6.092   1.804 -1.1133 -0.6719 -1.0153
11039SOL    HW234986   5.791   6.152   1.745  0.1176 -1.5887  0.6094
11040SOL     OW34987   7.444   3.833   1.679  0.9201 -0.0795 -0.3686
11040SOL    HW134988   7.439   3.872   1.591  3.1890 -0.5221 -0.7330
11040SOL    HW234989   7.450   3.909   1.737 -1.4293  0.2511 -0.4567
11041SOL     OW34990   3.795   7.866   8.858 -0.0785  0.1764  0.1572
11041SOL    HW134991   3.843   7.800   8.809  0.6619  0.4458  0.5121
11041SOL    HW234992   3.824   7.855   8.949 -0.0578  0.8806  0.2428
11042SOL     OW34993   5.660   3.124   5.560  0.7062  0.8114 -0.1302
11042SOL    HW134994   5.736   3.086   5.604  1.2653 -0.3472 -1.9704
11042SOL    HW234995   5.599   3.051   5.553  0.6758  0.9361 -1.3231
11043SOL     OW34996   6.998   3.143   7.133 -0.0205 -0.0392  0.1611
11043SOL    HW134997   7.007   3.221   7.188 -1.7791 -1.1571  2.2203
11043SOL    HW234998   7.087   3.111   7.121  0.7769  2.3669 -0.9794
11044SOL     OW34999   7.827   7.387   6.534 -0.8131  0.9825 -0.4565
11044SOL    HW135000   7.809   7.470   6.578  2.0622  2.3759 -1.6224
11044SOL    HW235001   7.900   7.350   6.582 -0.8049  0.0967 -1.1328
11045SOL     OW35002   7.280   5.014   4.816 -0.7695  0.7102  0.6077
11045SOL    HW135003   7.273   4.919   4.802  0.5426  0.8858 -1.9803
11045SOL    HW235004   7.239   5.052   4.738  0.5156  2.2047  0.6128
11046SOL     OW35005   6.083   3.801   0.200  0.1439  0.4770  0.3553
11046SOL    HW135006   6.070   3.894   0.217 -0.9604  0.2693  0.7492
11046SOL    HW235007   5.995   3.767   0.184  0.2292 -0.8982  2.3564
11047SOL     OW35008   5.483   5.150   1.750 -0.7049  0.1344 -0.3354
11047SOL    HW135009   5.506   5.214   1.683 -2.0717 -0.0732 -1.0477
11047SOL    HW235010   5.537   5.174   1.826 -0.2857  1.3566 -0.9856
11048SOL     OW35011   8.589   8.209   2.841 -0.0577  0.1320 -0.3055
11048SOL    HW135012   8.591   8.304   2.832 -0.4122  0.4329  2.1249
11048SOL    HW235013   8.496   8.188   2.852 -0.2567 -0.8225 -2.9057
11049SOL     OW35014   4.390   4.508   3.885  0.3224 -0.0090 -0.1532
11049SOL    HW135015   4.322   4.463   3.935  1.6689  0.3385  2.1283
11049SOL    HW235016   4.379   4.600   3.908  1.6420  0.0300  0.3510
11050SOL     OW35017   5.423   3.279   7.388 -0.6726 -0.0706  0.1288
11050SOL    HW135018   5.440   3.356   7.335 -2.2610  1.7612  2.1000
11050SOL    HW235019   5.402   3.210   7.325  2.5960  0.5084 -1.7696
11051SOL     OW35020   0.341   4.186   4.248  0.0503  0.1965  0.2102
11051SOL    HW135021   0.406   4.162   4.314  0.8719 -0.2925 -0.7514
11051SOL    HW235022   0.392   4.221   4.175 -0.8196  0.4618 -0.2885
11052SOL     OW35023   5.546   4.781   4.665  0.0856  0.0338  0.0860
11052SOL    HW135024   5.582   4.861   4.704 -1.9183  0.3873  1.3555
11052SOL    HW235025   5.604   4.762   4.592 -0.7618  4.2174 -2.0106
11053SOL     OW35026   3.245   4.699   3.491  0.2450 -0.2162 -0.4943
11053SOL    HW135027   3.296   4.739   3.421  1.3156  1.5345  1.1805
11053SOL    HW235028   3.182   4.766   3.516 -0.6860 -1.1307 -0.3273
11054SOL     OW35029   1.769   8.645   8.215 -0.7162 -0.6388  0.1530
11054SOL    HW135030   1.815   8.603   8.288 -0.2030  0.3802  0.4407
11054SOL    HW235031   1.786   8.588   8.140  0.8265 -0.4342  0.3161
11055SOL     OW35032   2.503   0.110   8.892 -0.0675  0.1192 -0.5423
11055SOL    HW135033   2.461   0.135   8.975  0.4486  0.3753 -0.3563
11055SOL    HW235034   2.477   0.180   8.831 -1.1525 -0.5164 -0.8298
11056SOL     OW35035   4.011   2.447   2.569 -0.3140 -0.3389  0.2954
11056SOL    HW135036   4.009   2.529   2.619 -0.3645 -0.5841  0.6914
11056SOL    HW235037   3.933   2.400   2.596 -2.2297  0.9645 -2.4656
11057SOL     OW35038   8.734   0.312   0.423 -0.3495  0.6767 -0.4330
11057SOL    HW135039   8.778   0.228   0.421 -2.8508 -0.8092  1.2458
11057SOL    HW235040   8.752   0.351   0.338  0.8530 -1.5375 -1.2761
11058SOL     OW35041   7.255   8.024   8.355  0.0035  0.0691 -0.0799
11058SOL    HW135042   7.221   8.043   8.268 -1.3656  2.0475  0.7893
11058SOL    HW235043   7.340   8.069   8.358 -0.0534  0.1916 -0.3281
11059SOL     OW35044   7.273   5.406   2.680  0.2430 -0.3558 -0.6609
11059SOL    HW135045   7.248   5.405   2.772  1.7695 -1.0775 -0.2126
11059SOL    HW235046   7.211   5.346   2.638  0.7261 -1.5507  0.2688
11060SOL     OW35047   5.714   1.470   5.695 -0.2018 -0.2699  0.3590
11060SOL    HW135048   5.712   1.497   5.603 -0.3549  2.0335  0.9748
11060SOL    HW235049   5.775   1.396   5.697  1.0650  0.6627 -1.3428
11061SOL     OW35050   6.257   2.674   8.956  0.1702  0.1678  0.6922
11061SOL    HW135051   6.192   2.634   9.014 -0.9258 -0.6309 -1.0006
11061SOL    HW235052   6.342   2.646   8.991 -0.4655 -0.4166  1.7959
11062SOL     OW35053   0.611   2.676   5.776 -0.2696 -0.2386 -0.4695
11062SOL    HW135054   0.588   2.628   5.697 -0.8584 -0.1051 -0.3816
11062SOL    HW235055   0.699   2.710   5.758 -0.1732 -0.6784 -0.8425
11063SOL     OW35056   1.482   7.857   7.678 -0.4240 -0.3508  0.5365
11063SOL    HW135057   1.563   7.831   7.634 -0.9647 -0.3329 -0.5060
11063SOL    HW235058   1.500   7.845   7.771  1.3400  1.1814  0.4612
11064SOL     OW35059   0.830   8.459   7.727  0.4599  0.5586  0.4496
11064SOL    HW135060   0.742   8.487   7.702  0.7567  0.3930 -0.8348
11064SOL    HW235061   0.815   8.384   7.785 -0.2549 -0.1627 -0.6125
11065SOL     OW35062   1.739   4.053   8.698  0.3939 -0.0834  0.0065
11065SOL    HW135063   1.777   3.986   8.755 -0.9243 -0.5985  0.3054
11065SOL    HW235064   1.744   4.015   8.610  0.8017 -0.0355  0.0076
11066SOL     OW35065   4.573   0.897   2.144 -0.2833  0.5230  0.1852
11066SOL    HW135066   4.614   0.810   2.149 -0.4380  0.3591 -1.0900
11066SOL    HW235067   4.584   0.924   2.053 -0.8283  1.5643  0.4064
11067SOL     OW35068   8.975   0.640   8.555  0.4788  0.6785  0.2170
11067SOL    HW135069   8.913   0.603   8.618 -0.0783 -0.4530 -0.9626
11067SOL    HW235070   8.953   0.600   8.471  1.5252  1.7728 -0.6353
11068SOL     OW35071   6.386   4.112   7.061 -0.0679  0.0680  0.3825
11068SOL    HW135072   6.433   4.030   7.049 -1.5911 -0.8934  0.6778
11068SOL    HW235073   6.296   4.092   7.036 -0.5572  1.5440  0.8445
11069SOL     OW35074   2.816   5.994   1.925 -0.0262  0.1128 -0.5929
11069SOL    HW135075   2.855   6.008   2.011 -0.3811  0.6382 -0.5090
11069SOL    HW235076   2.722   6.005   1.940  0.0489  2.9307 -1.5045
11070SOL     OW35077   3.097   4.479   0.151  0.3941  0.1719  0.5800
11070SOL    HW135078   3.148   4.426   0.090 -0.9203 -1.3287  0.7150
11070SOL    HW235079   3.144   4.472   0.235 -0.4264 -1.8859  0.9088
11071SOL     OW35080   3.192   1.502   1.307 -0.2193 -0.2460 -0.2577
11071SOL    HW135081   3.256   1.523   1.375  0.3796 -2.8440  0.0853
11071SOL    HW235082   3.146   1.584   1.290  2.0752  1.3173  0.6802
11072SOL     OW35083   4.964   7.918   2.974 -0.4578  0.9853  0.1862
11072SOL    HW135084   4.970   8.012   2.993  1.1684  1.1405 -0.8991
11072SOL    HW235085   4.882   7.908   2.926 -1.6345  1.5114  2.0165
11073SOL     OW35086   7.797   8.170   4.215  0.1924 -0.1256  0.5866
11073SOL    HW135087   7.798   8.180   4.311  0.3182  0.0902  0.5644
11073SOL    HW235088   7.812   8.258   4.182  0.1070 -0.1944  0.3659
11074SOL     OW35089   2.243   1.177   4.669 -0.1653 -0.3241 -0.0148
11074SOL    HW135090   2.338   1.180   4.665 -0.0775 -1.3547  0.9522
11074SOL    HW235091   2.216   1.269   4.671  0.9046 -0.0096  1.3802
11075SOL     OW35092   3.286   5.357   5.001  0.0756  0.2113 -0.0103
11075SOL    HW135093   3.303   5.428   5.063 -1.8127  0.4673  0.2910
11075SOL    HW235094   3.308   5.393   4.916 -1.0519  1.2815  0.1139
11076SOL     OW35095   6.593   2.639   4.049 -0.3751  0.7263 -0.1138
11076SOL    HW135096   6.543   2.625   3.968  0.9304 -0.4960 -0.7468
11076SOL    HW235097   6.535   2.606   4.118 -1.2016  1.0899 -0.6178
11077SOL     OW35098   6.957   7.549   8.767 -0.3334  0.1742  0.3170
11077SOL    HW135099   6.887   7.550   8.702 -1.2480 -2.1999  1.1499
11077SOL    HW235100   7.038   7.556   8.715 -1.0738 -0.5150 -0.9930
11078SOL     OW35101   5.930   6.655   4.403 -0.3522 -0.4351 -0.0128
11078SOL    HW135102   6.000   6.607   4.446  0.4635  0.6579 -0.0850
11078SOL    HW235103   5.972   6.697   4.328 -1.2986 -0.5939 -0.6414
11079SOL     OW35104   2.290   6.510   6.521 -0.3311  0.4049 -0.2923
11079SOL    HW135105   2.334   6.448   6.580 -3.2143 -0.2518  1.4062
11079SOL    HW235106   2.325   6.595   6.546  0.5635 -0.1362  0.4027
11080SOL     OW35107   0.090   7.154   2.695 -0.1065 -0.2089  0.4914
11080SOL    HW135108   0.089   7.227   2.756 -0.2445 -0.7501  1.1558
11080SOL    HW235109   0.038   7.183   2.621  0.6609  0.7327  0.3025
11081SOL     OW35110   3.732   8.501   5.660  0.4710  0.1562  0.2061
11081SOL    HW135111   3.756   8.585   5.620  0.9895 -0.3090 -0.4964
11081SOL    HW235112   3.770   8.435   5.601 -1.4462 -0.6111 -0.2400
11082SOL     OW35113   0.206   3.396   5.592  0.2893  0.0328 -0.9764
11082SOL    HW135114   0.271   3.461   5.620  1.9134 -1.1815 -1.7507
11082SOL    HW235115   0.155   3.440   5.524 -0.2296  1.2582  0.1724
11083SOL     OW35116   7.460   6.137   3.341 -0.1681  0.8062  0.5766
11083SOL    HW135117   7.528   6.102   3.282  0.0521  1.7048  0.2901
11083SOL    HW235118   7.450   6.069   3.408  1.6950  1.0685  1.1670
11084SOL     OW35119   7.696   2.576   2.204  0.2448 -0.2029 -0.2206
11084SOL    HW135120   7.644   2.510   2.250  0.5610 -0.6362 -0.4773
11084SOL    HW235121   7.777   2.530   2.180  1.0848  0.6694  0.8392
11085SOL     OW35122   0.079   1.675   2.637  0.4489 -0.1580  0.1608
11085SOL    HW135123   0.110   1.645   2.551  0.2846 -0.5433  0.2310
11085SOL    HW235124   0.158   1.704   2.682  0.2434  2.6353 -1.0856
11086SOL     OW35125   4.172   7.971   2.855  0.7366  0.2841  0.1921
11086SOL    HW135126   4.080   7.985   2.878  0.4583  1.0311 -1.2196
11086SOL    HW235127   4.182   7.876   2.856  0.4700  0.2402  2.1451
11087SOL     OW35128   5.271   1.322   0.040  0.8515 -0.4015 -0.1799
11087SOL    HW135129   5.228   1.384  -0.019  0.1402 -1.5814 -0.9440
11087SOL    HW235130   5.324   1.267  -0.018 -0.5993 -2.1926  0.1250
11088SOL     OW35131   1.702   3.181   7.765 -0.4928  0.1580  0.0065
11088SOL    HW135132   1.723   3.127   7.689 -1.2810  1.1165 -0.9269
11088SOL    HW235133   1.681   3.267   7.728  0.3669  1.0152  1.4189
11089SOL     OW35134   5.256   4.854   3.946  0.3600 -0.0495 -0.6397
11089SOL    HW135135   5.261   4.934   3.895  1.1377  1.5415  1.7541
11089SOL    HW235136   5.170   4.856   3.988  1.0424  0.4945  0.8062
11090SOL     OW35137   8.590   7.686   7.626  0.0452 -0.3137  0.7863
11090SOL    HW135138   8.536   7.763   7.611 -1.1599 -0.8065  2.2868
11090SOL    HW235139   8.662   7.717   7.681 -0.4911 -0.2512  1.4719
11091SOL     OW35140   5.735   6.350   6.668 -0.0104  0.0704 -0.4403
11091SOL    HW135141   5.646   6.340   6.635 -0.6136 -0.7808  1.3245
11091SOL    HW235142   5.742   6.443   6.691 -0.5467  0.0833 -0.3199
11092SOL     OW35143   5.627   4.011   1.631 -0.0146 -0.7043  0.2974
11092SOL    HW135144   5.641   3.917   1.620  0.6458 -0.6443  0.5609
11092SOL    HW235145   5.716   4.047   1.640 -0.3360 -0.3074  2.1714
11093SOL     OW35146   6.785   5.703   2.126 -0.5717 -0.2868  0.2274
11093SOL    HW135147   6.737   5.628   2.161 -1.2889 -0.3311 -0.7992
11093SOL    HW235148   6.718   5.755   2.081 -0.3473  1.6722  2.0015
11094SOL     OW35149   5.829   3.188   4.330 -0.2222  0.5496  0.7745
11094SOL    HW135150   5.744   3.170   4.290  1.2270 -1.0316 -1.8563
11094SOL    HW235151   5.867   3.258   4.276  2.3706 -2.5893 -1.9341
11095SOL     OW35152   6.265   8.625   7.103 -0.0456  0.0247 -0.4119
11095SOL    HW135153   6.254   8.607   7.010 -0.1624  1.0738 -0.6137
11095SOL    HW235154   6.230   8.547   7.147 -0.2481 -0.3553 -1.2325
11096SOL     OW35155   8.304   7.022   8.792  0.1617  0.3929  0.2607
11096SOL    HW135156   8.307   6.948   8.853  0.2745 -0.3791 -0.6372
11096SOL    HW235157   8.216   7.057   8.801  0.4000  0.7341  1.3562
11097SOL     OW35158   0.484   6.587   4.360  0.0334  0.3305 -0.1631
11097SOL    HW135159   0.563   6.635   4.338  0.1959  0.4611  0.6821
11097SOL    HW235160   0.510   6.495   4.358  0.3565  0.3917  0.6229
11098SOL     OW35161   7.285   5.039   5.332 -0.3418 -0.0065 -0.3272
11098SOL    HW135162   7.272   4.993   5.414 -2.1227  2.1860  0.7192
11098SOL    HW235163   7.375   5.070   5.336 -0.0282 -0.9389  0.2061
11099SOL     OW35164   4.233   8.129   5.014 -0.1246  0.3080  0.3661
11099SOL    HW135165   4.142   8.103   4.999 -0.6817  2.1854  0.1760
11099SOL    HW235166   4.226   8.214   5.057  1.5581  0.1246  1.0660
11100SOL     OW35167   2.629   6.379   4.598 -0.1259 -0.5063  0.0134
11100SOL    HW135168   2.667   6.301   4.558  0.8261 -0.5829  1.0204
11100SOL    HW235169   2.661   6.452   4.545  2.8555 -0.4044  1.7276
11101SOL     OW35170   4.785   5.358   6.315  0.1807 -0.2207  0.5932
11101SOL    HW135171   4.863   5.387   6.268 -0.8392  0.6348 -0.6443
11101SOL    HW235172   4.769   5.428   6.379 -0.1417  0.1212  0.1475
11102SOL     OW35173   6.061   8.008   3.431 -0.0852  0.4201 -0.1271
11102SOL    HW135174   5.986   7.956   3.460 -0.6420 -0.5757 -3.0390
11102SOL    HW235175   6.134   7.977   3.485 -0.9951 -1.3760  0.1477
11103SOL     OW35176   5.946   8.812   0.651  0.0452  0.2674  0.5690
11103SOL    HW135177   5.856   8.790   0.626 -0.6681  2.1061  1.2891
11103SOL    HW235178   5.935   8.869   0.727  1.8063  0.9216  0.3587
11104SOL     OW35179   5.642   1.256   2.640  0.4141 -0.4001 -0.2301
11104SOL    HW135180   5.677   1.205   2.567  1.1686 -1.0268  0.5582
11104SOL    HW235181   5.599   1.331   2.598  2.2483  0.1297 -1.2627
11105SOL     OW35182   1.379   7.022   0.600  0.4465  0.6034 -0.2852
11105SOL    HW135183   1.438   6.958   0.640  0.8136 -0.2373 -2.0798
11105SOL    HW235184   1.428   7.104   0.604  0.0501  0.7953  1.8532
11106SOL     OW35185   4.825   7.132   5.246  0.3872 -0.4006  0.1077
11106SOL    HW135186   4.869   7.135   5.331  0.6063 -1.6962  0.0659
11106SOL    HW235187   4.801   7.040   5.235 -0.0114 -0.1728 -1.0500
11107SOL     OW35188   4.923   6.957   6.062  0.4636 -0.0321  0.2702
11107SOL    HW135189   4.828   6.967   6.058  0.3141 -1.5875 -1.0097
11107SOL    HW235190   4.950   7.012   6.136 -1.3255  1.0477  0.1812
11108SOL     OW35191   4.254   2.261   2.294  0.3101 -0.5270  0.3041
11108SOL    HW135192   4.167   2.276   2.256  0.8413  1.8789 -0.1259
11108SOL    HW235193   4.240   2.263   2.388 -0.2006 -0.8213  0.2376
11109SOL     OW35194   2.161   0.841   0.833 -0.3958 -0.7443 -0.3784
11109SOL    HW135195   2.072   0.854   0.866  0.1484 -0.2512  0.9936
11109SOL    HW235196   2.162   0.886   0.749 -1.1849  0.1089  0.0365
11110SOL     OW35197   7.242   3.395   4.510  0.5414 -0.4696 -0.1958
11110SOL    HW135198   7.258   3.486   4.486 -1.1713 -0.2472 -0.5834
11110SOL    HW235199   7.176   3.400   4.579 -1.0130 -1.4621 -1.5407
11111SOL     OW35200   2.025   2.650   3.111  0.3242 -0.0117  0.4349
11111SOL    HW135201   2.039   2.560   3.141 -0.7106 -0.0021  0.9566
11111SOL    HW235202   2.072   2.654   3.027 -0.4476 -1.3315 -0.0939
11112SOL     OW35203   6.040   6.773   3.651 -0.0299 -0.0700  0.2005
11112SOL    HW135204   6.122   6.722   3.647  0.8968  1.2964  1.0675
11112SOL    HW235205   6.033   6.814   3.565 -1.1255 -2.0870 -0.7468
11113SOL     OW35206   3.251   5.786   7.180  0.6489  0.3298 -0.7586
11113SOL    HW135207   3.338   5.821   7.164  0.4017  1.0078 -0.6545
11113SOL    HW235208   3.194   5.863   7.182  0.1237 -0.0599 -0.3355
11114SOL     OW35209   3.361   2.923   3.313  0.0559  0.2804  0.3177
11114SOL    HW135210   3.391   2.963   3.232  2.4849 -0.5167  0.7142
11114SOL    HW235211   3.300   2.986   3.351  1.9273  2.5445 -0.2047
11115SOL     OW35212   8.358   7.073   8.534  0.2591 -0.2144 -0.0643
11115SOL    HW135213   8.330   6.992   8.489  0.3978 -0.5947  0.5273
11115SOL    HW235214   8.333   7.059   8.625 -0.7712  0.9056 -0.1519
11116SOL     OW35215   6.294   2.636   3.094 -0.7728 -0.1932  0.8590
11116SOL    HW135216   6.371   2.688   3.119 -1.0339  0.6518  0.0053
11116SOL    HW235217   6.232   2.649   3.165 -0.7120  0.4310  0.8096
11117SOL     OW35218   1.427   1.163   0.017 -0.0889  0.1665 -0.8275
11117SOL    HW135219   1.350   1.173   0.073 -0.2669 -1.2555 -0.7709
11117SOL    HW235220   1.465   1.251   0.011 -0.0853  0.3865  1.5100
11118SOL     OW35221   8.044   6.206   5.274  0.0980 -0.1594 -0.3156
11118SOL    HW135222   8.137   6.228   5.264  0.0684 -0.4558 -1.3546
11118SOL    HW235223   8.043   6.117   5.309  0.2086 -0.3321 -0.7473
11119SOL     OW35224   6.399   6.935   5.399  0.1059 -0.0215 -0.4728
11119SOL    HW135225   6.454   6.988   5.341  2.2936 -1.6913 -0.0886
11119SOL    HW235226   6.373   6.860   5.346  0.3172 -0.4893  0.0755
11120SOL     OW35227   4.914   6.296   5.615 -0.2593 -0.0412 -0.0196
11120SOL    HW135228   4.939   6.331   5.701 -0.8529 -3.0958  1.5609
11120SOL    HW235229   4.822   6.321   5.604  0.6989  3.3828 -1.5672
11121SOL     OW35230   6.141   1.778   8.925  0.3699  0.3961 -0.1284
11121SOL    HW135231   6.144   1.711   8.994  0.7085  0.4353 -0.1009
11121SOL    HW235232   6.176   1.856   8.968  1.1485  0.2665 -0.5132
11122SOL     OW35233   0.664   2.018   2.940 -0.0730  0.2579 -0.2749
11122SOL    HW135234   0.759   2.009   2.951 -0.1952 -1.2215 -0.2693
11122SOL    HW235235   0.642   2.098   2.988  0.9993 -0.0069  0.7021
11123SOL     OW35236   5.835   2.172   2.343  0.1531 -0.0744  0.0605
11123SOL    HW135237   5.840   2.123   2.425 -2.1922  1.3869  1.1639
11123SOL    HW235238   5.838   2.264   2.370  1.0735  0.4575 -1.6850
11124SOL     OW35239   0.887   6.873   1.057  0.3125  0.2893 -0.0671
11124SOL    HW135240   0.939   6.811   1.110  0.2344  0.6904  0.4895
11124SOL    HW235241   0.906   6.959   1.095  1.2371  0.7456 -1.5105
11125SOL     OW35242   4.875   0.998   8.532 -0.0962 -0.0773 -0.4673
11125SOL    HW135243   4.897   1.081   8.574  0.8558  0.2147 -1.5170
11125SOL    HW235244   4.818   0.954   8.596 -0.1077  1.0958  0.3675
11126SOL     OW35245   1.686   5.013   4.981  0.3284 -0.5360 -0.5127
11126SOL    HW135246   1.601   5.026   4.940 -0.3797 -1.8861  0.4504
11126SOL    HW235247   1.685   5.070   5.058  1.1126  0.9577 -1.5770
11127SOL     OW35248   2.666   4.038   1.863  0.4459 -0.0557 -0.0921
11127SOL    HW135249   2.672   4.122   1.908 -0.4207 -0.0961  0.1170
11127SOL    HW235250   2.704   4.054   1.777  1.0158  0.3403  0.2306
11128SOL     OW35251   1.511   7.291   6.349  0.1228  0.1258 -0.5794
11128SOL    HW135252   1.541   7.380   6.363  2.0198 -0.2684 -1.7487
11128SOL    HW235253   1.544   7.242   6.425  2.0053 -0.1713 -1.5289
11129SOL     OW35254   1.940   6.414   3.332 -0.2226  0.0635  0.0125
11129SOL    HW135255   1.993   6.340   3.360 -2.2895 -1.3585  0.4529
11129SOL    HW235256   1.975   6.439   3.247  0.7149 -1.2455 -0.0126
11130SOL     OW35257   3.627   6.244   1.861 -0.1122  0.6077  0.2039
11130SOL    HW135258   3.635   6.325   1.912 -0.2421  0.8800 -0.2013
11130SOL    HW235259   3.555   6.261   1.800  2.6053  1.9224 -2.9830
11131SOL     OW35260   3.987   0.970   3.691  0.5759 -0.6020  0.3397
11131SOL    HW135261   3.935   1.046   3.715 -1.1773 -1.6912  0.1323
11131SOL    HW235262   4.059   0.968   3.754 -0.4171  0.1540  1.5235
11132SOL     OW35263   4.993   4.953   6.154 -0.3216 -0.5018 -0.3175
11132SOL    HW135264   5.047   4.920   6.225  0.1943  0.6897 -0.1290
11132SOL    HW235265   5.055   4.985   6.089 -0.7888 -1.5111 -1.2943
11133SOL     OW35266   6.205   6.017   5.074  0.2110  0.0174 -0.2865
11133SOL    HW135267   6.237   5.958   5.006 -1.8670 -0.6457 -0.7542
11133SOL    HW235268   6.173   5.959   5.143  1.8119  0.6824  1.0822
11134SOL     OW35269   1.787   8.561   4.807 -0.4741 -0.6936 -0.3877
11134SOL    HW135270   1.705   8.609   4.801 -1.5252 -2.3537 -0.1466
11134SOL    HW235271   1.804   8.555   4.901  0.7015  0.8525 -0.4796
11135SOL     OW35272   3.618   5.476   8.494 -0.0583  0.0323  0.4080
11135SOL    HW135273   3.645   5.551   8.547  0.0278 -0.7789  1.5353
11135SOL    HW235274   3.648   5.498   8.405 -1.9096  2.3012  0.2229
11136SOL     OW35275   5.078   4.563   8.494  0.1393  0.0774  0.3316
11136SOL    HW135276   5.114   4.627   8.554 -0.3807  0.6753  0.0173
11136SOL    HW235277   4.998   4.604   8.460 -0.5760 -0.9970  0.6388
11137SOL     OW35278   8.300   1.348   3.739 -0.3692  0.6258 -0.0191
11137SOL    HW135279   8.293   1.440   3.764 -2.1221  0.6046 -0.3263
11137SOL    HW235280   8.255   1.342   3.655 -0.6050 -0.5697  0.1720
11138SOL     OW35281   7.883   0.227   2.940 -0.2053  0.4155 -0.4339
11138SOL    HW135282   7.796   0.269   2.939 -0.9639 -0.9504  1.5396
11138SOL    HW235283   7.882   0.168   2.865 -0.1661  1.8848 -1.6273
11139SOL     OW35284   0.335   0.909   5.449 -0.4995 -0.3763 -0.0560
11139SOL    HW135285   0.269   0.921   5.517 -1.3024  0.4441 -0.9579
11139SOL    HW235286   0.289   0.868   5.376 -0.3532  1.2704 -1.1457
11140SOL     OW35287   5.553   2.828   5.291 -0.3102 -0.0072 -0.5522
11140SOL    HW135288   5.610   2.875   5.352  1.3510 -0.8649 -1.3806
11140SOL    HW235289   5.581   2.737   5.297 -1.4336 -0.4102 -1.1705
11141SOL     OW35290   3.348   6.739   8.850  0.2042  0.1980  0.3455
11141SOL    HW135291   3.383   6.827   8.859  0.2596  0.0498  1.9176
11141SOL    HW235292   3.253   6.751   8.843  0.3565  0.4848 -1.9036
11142SOL     OW35293   0.889   8.874   8.721  0.0481  0.1107  0.6302
11142SOL    HW135294   0.924   8.911   8.802 -0.4571 -0.6179  1.1965
11142SOL    HW235295   0.834   8.801   8.750 -0.9491  0.4675 -0.3140
11143SOL     OW35296   8.004   8.772   7.299 -0.1969  0.0890  0.5017
11143SOL    HW135297   7.968   8.736   7.380 -1.4184  0.4609  0.1401
11143SOL    HW235298   8.013   8.697   7.241  0.9230 -0.2212  1.0477
11144SOL     OW35299   2.140   3.071   3.635 -0.0618 -0.4454  0.1291
11144SOL    HW135300   2.221   3.045   3.590  0.3278  1.1677 -0.1643
11144SOL    HW235301   2.075   3.010   3.603  0.7827 -0.9917 -0.6082
11145SOL     OW35302   0.306   2.237   1.849 -0.5670  0.5186  0.1521
11145SOL    HW135303   0.215   2.265   1.850 -0.9032 -0.5216  0.0185
11145SOL    HW235304   0.302   2.141   1.849  0.5340  0.4569  0.6003
11146SOL     OW35305   8.043   6.652   7.144  0.2243 -0.3021 -0.1450
11146SOL    HW135306   8.096   6.583   7.184  1.6581  0.1101 -1.2627
11146SOL    HW235307   8.026   6.622   7.055  1.8469  1.2290 -1.0340
11147SOL     OW35308   0.641   8.880   7.882  0.1213  0.4388 -0.7004
11147SOL    HW135309   0.620   8.899   7.790  0.2617  0.8079 -0.6584
11147SOL    HW235310   0.714   8.938   7.902 -0.0662  0.5369 -0.2855
11148SOL     OW35311   8.377   8.024   8.984  0.2770 -0.4313  0.2170
11148SOL    HW135312   8.380   7.929   8.988 -0.1493 -0.4226  1.0434
11148SOL    HW235313   8.426   8.053   9.062  1.9726  0.0700 -0.9726
11149SOL     OW35314   7.136   7.108   3.699  0.3783 -0.6004 -0.8064
11149SOL    HW135315   7.139   7.129   3.792  0.9313 -1.2267 -0.6753
11149SOL    HW235316   7.052   7.142   3.669 -0.0540 -0.8949  0.0465
11150SOL     OW35317   1.946   0.926   4.143  0.1300 -0.4954  0.0562
11150SOL    HW135318   1.897   0.992   4.192 -0.2192 -1.4250  0.9991
11150SOL    HW235319   2.035   0.960   4.139  0.4227 -0.8600  2.2871
11151SOL     OW35320   4.979   8.636   3.451 -0.7158 -0.4756 -0.4692
11151SOL    HW135321   4.940   8.551   3.470 -0.8014 -0.6622 -1.4178
11151SOL    HW235322   5.061   8.615   3.407 -0.4961 -0.0701 -0.2562
11152SOL     OW35323   6.971   0.745   7.346  0.6939 -0.3294  0.3365
11152SOL    HW135324   7.052   0.721   7.302  1.2810 -0.2707  1.3445
11152SOL    HW235325   6.993   0.824   7.396  0.8790 -1.8769  2.9035
11153SOL     OW35326   2.913   3.580   3.337 -0.7044  0.2371 -0.2700
11153SOL    HW135327   2.835   3.535   3.369  0.5577 -0.6074  1.8473
11153SOL    HW235328   2.952   3.619   3.416  0.5290  1.3814 -1.4062
11154SOL     OW35329   6.015   6.279   3.637 -0.0668  0.0745 -0.2574
11154SOL    HW135330   5.961   6.218   3.584 -0.2132 -1.3468  1.4332
11154SOL    HW235331   6.027   6.355   3.580 -1.5048 -0.7364 -1.7548
11155SOL     OW35332   1.107   3.311   2.063  0.0862 -0.4154 -0.2276
11155SOL    HW135333   1.109   3.343   1.972  1.5831  1.5995  0.4450
11155SOL    HW235334   1.019   3.331   2.093  0.3593  1.3548 -0.4781
11156SOL     OW35335   8.850   4.482   0.413  0.3103  0.7742 -0.2970
11156SOL    HW135336   8.762   4.446   0.408  0.6168 -0.6751  2.6865
11156SOL    HW235337   8.838   4.573   0.441 -0.2266  0.6269 -0.0586
11157SOL     OW35338   3.815   0.427   2.179 -0.4435  0.0178  0.1414
11157SOL    HW135339   3.895   0.468   2.213 -0.9343  0.5531  0.6511
11157SOL    HW235340   3.751   0.498   2.174 -0.6603 -0.2395 -1.0370
11158SOL     OW35341   1.864   3.049   7.155  0.3685 -0.4852 -0.2953
11158SOL    HW135342   1.917   2.970   7.146  0.8609 -0.4854  2.0108
11158SOL    HW235343   1.915   3.105   7.213 -1.6372 -0.0268  1.1355
11159SOL     OW35344   3.784   2.563   0.424  0.6549  0.0654  0.0965
11159SOL    HW135345   3.821   2.487   0.379 -0.9630 -0.9702  0.4382
11159SOL    HW235346   3.781   2.538   0.516  1.3523  1.0929  0.4193
11160SOL     OW35347   5.453   5.996   8.169  0.1494  0.1588  0.1615
11160SOL    HW135348   5.436   6.033   8.255  0.5735  0.6907  0.0197
11160SOL    HW235349   5.412   5.910   8.171 -0.0148  0.2523  0.8240
11161SOL     OW35350   6.904   1.933   4.917  0.0023 -0.1157 -0.4095
11161SOL    HW135351   6.911   1.871   4.844  0.2623  0.2467 -0.6921
11161SOL    HW235352   6.961   1.896   4.985  1.2747  0.5347 -1.0905
11162SOL     OW35353   1.154   0.387   1.375 -0.0300 -0.0042  0.0031
11162SOL    HW135354   1.183   0.447   1.306 -0.7282 -0.1832 -0.4544
11162SOL    HW235355   1.086   0.334   1.334  0.6454 -1.1888  0.3744
11163SOL     OW35356   6.874   8.027   3.619 -0.2902  0.0900  0.2222
11163SOL    HW135357   6.893   8.085   3.693  1.7775 -2.4014  1.8179
11163SOL    HW235358   6.959   7.989   3.597 -1.1246 -0.3994 -2.5056
11164SOL     OW35359   2.451   3.976   0.463  0.2487  0.5769 -0.2200
11164SOL    HW135360   2.387   3.996   0.531  2.0974  0.7016  1.6042
11164SOL    HW235361   2.519   4.042   0.475  0.5167  0.7439 -2.3999
11165SOL     OW35362   4.562   1.605   2.495 -0.2199  0.6021  0.2638
11165SOL    HW135363   4.625   1.533   2.481 -0.8779 -0.2857  1.6598
11165SOL    HW235364   4.491   1.586   2.434  0.2849  0.9351 -0.4511
11166SOL     OW35365   8.908   1.828   6.206  0.0638  0.2409 -0.4565
11166SOL    HW135366   9.000   1.837   6.229 -0.3615  2.1427  0.7483
11166SOL    HW235367   8.866   1.904   6.246 -2.1578 -0.9741 -0.3268
11167SOL     OW35368   2.395   5.869   6.247 -0.5471  0.9322 -0.3421
11167SOL    HW135369   2.484   5.900   6.263 -0.1525  0.0761 -0.8241
11167SOL    HW235370   2.350   5.881   6.331  0.4913 -0.1722  0.4090
11168SOL     OW35371   8.723   4.170   6.480  0.2562  0.7321 -0.2424
11168SOL    HW135372   8.705   4.149   6.389  1.0452 -0.3597 -0.1671
11168SOL    HW235373   8.739   4.085   6.521 -1.9750  0.9817  1.3548
11169SOL     OW35374   7.946   1.777   8.403 -0.1499  0.0777 -0.5085
11169SOL    HW135375   7.964   1.823   8.320  0.2675 -0.2060 -0.5782
11169SOL    HW235376   7.900   1.698   8.376  0.7700 -0.4617 -0.5622
11170SOL     OW35377   6.121   5.702   1.477  0.3072  0.2596  0.2461
11170SOL    HW135378   6.027   5.722   1.477  0.0490 -0.8914 -0.3869
11170SOL    HW235379   6.151   5.729   1.391  0.1450 -1.1027 -0.2684
11171SOL     OW35380   2.170   2.043   5.489 -0.6758 -0.2757  0.1813
11171SOL    HW135381   2.103   2.099   5.450 -1.5522 -0.6848  1.0680
11171SOL    HW235382   2.142   2.032   5.580  0.3932 -0.7763  0.4623
11172SOL     OW35383   3.281   8.228   6.402 -0.1653 -0.3564  0.3118
11172SOL    HW135384   3.263   8.147   6.354  0.5421 -0.2435 -0.1633
11172SOL    HW235385   3.365   8.258   6.367 -0.0946  0.2269  0.9634
11173SOL     OW35386   8.092   7.513   2.393 -0.5593  0.4297 -0.1410
11173SOL    HW135387   8.001   7.494   2.368 -0.2646 -1.7181  0.2844
11173SOL    HW235388   8.087   7.544   2.483 -0.7398 -1.5187  0.5526
11174SOL     OW35389   6.426   3.610   1.493 -0.5057 -0.6931  0.0906
11174SOL    HW135390   6.454   3.612   1.402 -0.6984  2.4264 -0.0153
11174SOL    HW235391   6.331   3.600   1.489 -0.4206 -1.5509  0.0245
11175SOL     OW35392   3.044   1.491   1.673 -0.8289  0.6092  0.3139
11175SOL    HW135393   3.116   1.507   1.734 -0.6416 -0.3779  0.3712
11175SOL    HW235394   3.031   1.575   1.629  1.2982  0.4760 -0.6920
11176SOL     OW35395   0.405   8.853   2.041  0.1532  0.6118 -0.9930
11176SOL    HW135396   0.418   8.792   2.114 -1.2053 -0.2706 -1.4506
11176SOL    HW235397   0.336   8.912   2.070  0.5925  1.1503 -1.0316
11177SOL     OW35398   2.115   0.551   7.301 -0.0216 -0.3876  0.2648
11177SOL    HW135399   2.061   0.620   7.263 -0.9011 -1.5208 -0.6517
11177SOL    HW235400   2.059   0.473   7.298  1.4863 -1.5100 -0.2785
11178SOL     OW35401   4.810   4.693   3.998  0.1209  0.1836  0.6120
11178SOL    HW135402   4.868   4.624   4.032  2.0258  1.0957 -0.6549
11178SOL    HW235403   4.869   4.761   3.967 -1.6076  0.9304 -1.2573
11179SOL     OW35404   0.619   4.598   3.163 -0.3056  0.1237  0.0551
11179SOL    HW135405   0.554   4.658   3.200  0.3450  0.2620  1.0098
11179SOL    HW235406   0.569   4.539   3.107 -1.2344  0.2845  0.7030
11180SOL     OW35407   2.688   7.711   1.389 -0.0906  0.0652  0.8381
11180SOL    HW135408   2.761   7.685   1.333  0.3226  1.6606  0.5875
11180SOL    HW235409   2.616   7.729   1.329  0.2076  1.3133  0.8364
11181SOL     OW35410   2.219   6.577   8.806  0.0364  0.4898  0.7702
11181SOL    HW135411   2.240   6.594   8.714  2.0209  0.3149  1.1553
11181SOL    HW235412   2.251   6.489   8.822  0.6950  0.9170  1.9044
11182SOL     OW35413   2.414   0.969   0.457 -0.1837 -0.2624 -0.4159
11182SOL    HW135414   2.460   1.025   0.395 -0.4493  2.1989  1.4620
11182SOL    HW235415   2.482   0.940   0.518 -0.2920 -0.8293 -0.5581
11183SOL     OW35416   2.952   1.899   7.295 -0.3416  0.1860 -0.0035
11183SOL    HW135417   2.883   1.841   7.329  0.1258  0.2499  1.0922
11183SOL    HW235418   2.966   1.868   7.205 -1.7312  0.1202 -0.2224
11184SOL     OW35419   6.912   8.665   3.965  0.2548  0.8232 -0.4167
11184SOL    HW135420   6.902   8.665   3.870 -2.1922 -2.6762 -0.3321
11184SOL    HW235421   6.950   8.580   3.985 -0.9313  0.7389  1.8384
11185SOL     OW35422   3.716   2.756   7.054 -0.4442 -0.0714 -0.1655
11185SOL    HW135423   3.630   2.797   7.044  0.1901  1.0319 -1.4960
11185SOL    HW235424   3.773   2.826   7.088 -0.0656 -0.7961  0.7397
11186SOL     OW35425   0.550   7.190   8.384 -0.3015 -0.1349 -0.6474
11186SOL    HW135426   0.616   7.251   8.416 -0.8094 -0.1825  0.5335
11186SOL    HW235427   0.587   7.154   8.304  0.7359  0.4532 -0.4413
11187SOL     OW35428   0.485   4.018   0.971  0.1415 -0.0415  0.6703
11187SOL    HW135429   0.531   4.041   0.890  0.7883  0.4486  1.1730
11187SOL    HW235430   0.547   3.965   1.020  0.1247  0.5181  1.3001
11188SOL     OW35431   1.926   1.494   4.337 -0.1021 -0.0515  0.0808
11188SOL    HW135432   1.904   1.582   4.368  0.3103  0.1325 -0.1485
11188SOL    HW235433   2.015   1.502   4.304  0.9554 -1.1330  2.4244
11189SOL     OW35434   4.858   2.427   2.159  0.1509  0.2126  0.8449
11189SOL    HW135435   4.908   2.466   2.230  2.5626  0.6027 -0.9480
11189SOL    HW235436   4.816   2.501   2.115  2.4873  0.6153 -0.8841
11190SOL     OW35437   2.512   0.848   6.093  0.0378 -0.0586 -0.5224
11190SOL    HW135438   2.450   0.908   6.135  0.6888  1.4078 -1.5688
11190SOL    HW235439   2.472   0.827   6.009  1.1831  1.4413 -1.5078
11191SOL     OW35440   3.838   4.271   3.191  0.3161  0.6029 -0.1864
11191SOL    HW135441   3.840   4.214   3.115 -1.0571 -2.2369  1.7438
11191SOL    HW235442   3.927   4.304   3.199  0.7818 -0.0207 -2.2384
11192SOL     OW35443   6.271   2.932   1.889 -0.2418  0.1856  0.0367
11192SOL    HW135444   6.224   3.007   1.854 -1.1173 -0.5533 -0.4184
11192SOL    HW235445   6.354   2.968   1.922  0.1732  1.0695 -1.8293
11193SOL     OW35446   1.887   1.157   0.208  0.2933 -0.4617  0.0800
11193SOL    HW135447   1.960   1.113   0.164  1.0640 -0.0760  0.9423
11193SOL    HW235448   1.857   1.223   0.145  0.5560 -0.7567 -0.3605
11194SOL     OW35449   0.587   3.819   6.761  0.0751  0.0378  0.1655
11194SOL    HW135450   0.544   3.740   6.727  0.0694  0.2779 -0.3829
11194SOL    HW235451   0.570   3.816   6.856 -0.0646 -0.5327  0.1263
11195SOL     OW35452   2.673   3.473   5.131 -0.0219 -0.0640 -0.1605
11195SOL    HW135453   2.647   3.522   5.053 -1.6303  0.8081  0.8749
11195SOL    HW235454   2.649   3.382   5.110  0.2445  0.0365 -0.9498
11196SOL     OW35455   3.127   7.431   5.232  0.3520 -0.4257  1.2016
11196SOL    HW135456   3.100   7.389   5.151 -0.4429 -0.6220  1.5653
11196SOL    HW235457   3.061   7.498   5.247 -0.4757 -1.5106  2.5789
11197SOL     OW35458   4.049   5.935   1.307 -0.2296  0.2303 -0.1107
11197SOL    HW135459   4.127   5.968   1.262 -0.5462  0.7951 -0.2473
11197SOL    HW235460   4.083   5.868   1.367  0.0800 -1.4816 -2.0699
11198SOL     OW35461   6.804   5.362   5.888 -0.1869  0.1039 -0.4691
11198SOL    HW135462   6.724   5.397   5.928  0.7478  0.4639  1.2076
11198SOL    HW235463   6.829   5.289   5.944 -0.2744 -1.1448 -2.0062
11199SOL     OW35464   3.781   3.289   6.271  0.2346  0.6428 -0.3565
11199SOL    HW135465   3.755   3.357   6.209 -0.7554  0.7768  0.1704
11199SOL    HW235466   3.698   3.249   6.298  0.7918 -0.6610 -0.5231
11200SOL     OW35467   5.914   6.122   4.673 -0.4648  0.4445  0.0195
11200SOL    HW135468   5.947   6.039   4.708  0.4023  0.4526 -0.7544
11200SOL    HW235469   5.938   6.120   4.580 -1.7271  0.9231 -0.3329
11201SOL     OW35470   5.389   1.569   8.344 -0.3117 -0.3497 -0.0170
11201SOL    HW135471   5.436   1.525   8.414  0.8910  1.7983  0.6090
11201SOL    HW235472   5.362   1.653   8.382 -0.0843  0.6585 -1.9438
11202SOL     OW35473   0.873   3.690   6.445  0.2102  0.1212  0.5309
11202SOL    HW135474   0.861   3.779   6.479 -0.1885 -0.6590  2.5327
11202SOL    HW235475   0.796   3.642   6.474  0.7055 -1.0499 -0.0035
11203SOL     OW35476   8.107   7.658   6.390  0.3310  0.2784 -0.2658
11203SOL    HW135477   8.156   7.633   6.468  0.3564 -2.7600 -1.1260
11203SOL    HW235478   8.169   7.648   6.318 -0.3389  0.7660 -0.9293
11204SOL     OW35479   0.591   2.151   5.113 -0.2812  0.0019 -0.3649
11204SOL    HW135480   0.560   2.154   5.022 -0.4101 -1.8178 -0.4272
11204SOL    HW235481   0.521   2.108   5.161  0.0806  0.3215  0.4671
11205SOL     OW35482   0.429   1.991   0.417  0.0428  0.1318  0.8667
11205SOL    HW135483   0.403   1.941   0.340 -1.1358  1.0430  0.6358
11205SOL    HW235484   0.441   1.926   0.486 -2.5913 -0.4155  0.8948
11206SOL     OW35485   6.958   8.731   5.683 -1.1304 -0.1837  0.0882
11206SOL    HW135486   6.888   8.681   5.642 -0.5780 -0.0795 -1.0165
11206SOL    HW235487   6.954   8.817   5.641  0.3172 -0.5119 -0.7919
11207SOL     OW35488   7.817   8.804   4.830 -0.0746  0.3241  0.1297
11207SOL    HW135489   7.810   8.879   4.890 -0.8732  0.2049  0.2042
11207SOL    HW235490   7.892   8.824   4.774 -1.5181  2.2276 -1.2633
11208SOL     OW35491   5.691   1.723   5.801 -0.0368 -0.1002  0.5656
11208SOL    HW135492   5.603   1.760   5.810 -0.5086 -1.0306 -0.0692
11208SOL    HW235493   5.677   1.639   5.758  1.2691  0.2660 -0.6426
11209SOL     OW35494   8.305   1.551   8.889 -0.1651 -0.0822 -0.0135
11209SOL    HW135495   8.323   1.457   8.894 -0.0988 -0.1349 -1.0322
11209SOL    HW235496   8.389   1.593   8.909 -0.1216 -0.2481  0.1483
11210SOL     OW35497   4.059   8.484   4.923  0.0215  0.2272  0.2397
11210SOL    HW135498   4.007   8.435   4.859  0.1966 -0.4001  0.5718
11210SOL    HW235499   4.107   8.549   4.871  0.8397 -0.8491 -0.3841
11211SOL     OW35500   0.348   7.426   6.999  0.1171  0.1626 -0.5667
11211SOL    HW135501   0.435   7.402   6.966 -0.0854 -0.6179 -0.5587
11211SOL    HW235502   0.301   7.343   7.003 -0.6657  0.5975 -0.6700
11212SOL     OW35503   2.735   3.798   2.721 -0.0614 -1.0814 -0.1317
11212SOL    HW135504   2.665   3.828   2.662  1.6307  0.1593 -1.6027
11212SOL    HW235505   2.744   3.705   2.703  0.2439 -0.7780 -1.6887
11213SOL     OW35506   8.854   3.681   2.170  0.5590 -0.1439  0.1332
11213SOL    HW135507   8.843   3.595   2.211  1.1768 -0.2823  0.0177
11213SOL    HW235508   8.929   3.670   2.113  1.3471  0.7742  0.9642
11214SOL     OW35509   1.344   5.394   7.440 -0.6412  0.2272 -0.2118
11214SOL    HW135510   1.410   5.459   7.467 -0.6486  0.2595 -0.2701
11214SOL    HW235511   1.312   5.427   7.356  0.2142 -0.4773 -0.8366
11215SOL     OW35512   4.507   4.428   0.469  0.5064  0.1336  0.6773
11215SOL    HW135513   4.539   4.514   0.496  1.2406 -0.4006  1.5485
11215SOL    HW235514   4.412   4.436   0.470  0.4614  0.1618  3.4773
11216SOL     OW35515   6.936   8.625   7.486  0.2933 -0.8260  0.4334
11216SOL    HW135516   7.026   8.632   7.456 -0.1690  1.2136 -0.7182
11216SOL    HW235517   6.942   8.586   7.573  2.2755 -0.7058  0.3905
11217SOL     OW35518   7.564   4.734   6.039 -0.0575 -0.3525  0.1736
11217SOL    HW135519   7.570   4.668   6.108  1.9117 -0.1821  0.2440
11217SOL    HW235520   7.655   4.746   6.010 -0.7870 -0.3399 -2.3886
11218SOL     OW35521   5.445   7.974   5.265  0.6796 -0.0590 -0.2085
11218SOL    HW135522   5.461   7.916   5.339  1.1190 -1.3598 -1.2915
11218SOL    HW235523   5.502   8.050   5.282  0.5424 -0.1917  0.9241
11219SOL     OW35524   4.176   6.267   4.227  0.3308  0.3883 -0.5517
11219SOL    HW135525   4.129   6.271   4.311  0.8520 -0.6106 -0.1945
11219SOL    HW235526   4.131   6.331   4.172 -0.6414  0.3741  0.1830
11220SOL     OW35527   5.866   7.708   3.760 -0.1219 -0.3307 -0.0689
11220SOL    HW135528   5.951   7.700   3.717  0.2562  0.7748  0.4432
11220SOL    HW235529   5.870   7.791   3.807 -2.4535  1.1092 -2.1729
11221SOL     OW35530   4.207   2.228   2.577  0.0100 -0.0472  0.7691
11221SOL    HW135531   4.170   2.316   2.584 -0.7186 -0.2302 -0.5225
11221SOL    HW235532   4.135   2.169   2.597 -0.2202 -0.3837 -0.8896
11222SOL     OW35533   7.577   4.604   2.422 -0.3391  0.4997 -0.0194
11222SOL    HW135534   7.644   4.648   2.369  0.8552  0.3396  1.3157
11222SOL    HW235535   7.514   4.673   2.444 -1.0380  0.5092 -1.8621
11223SOL     OW35536   7.107   3.827   0.983  0.8192  0.1232 -0.2638
11223SOL    HW135537   7.182   3.776   1.014 -0.3270 -0.3697  1.8485
11223SOL    HW235538   7.082   3.785   0.901  2.2634 -0.2742 -0.5268
11224SOL     OW35539   6.240   6.749   8.368  0.4237 -0.1631 -0.5937
11224SOL    HW135540   6.178   6.676   8.376 -0.1040  0.0932 -2.0611
11224SOL    HW235541   6.191   6.825   8.399 -0.1306  0.0820 -1.9759
11225SOL     OW35542   6.159   8.377   7.213 -0.0508  0.3215 -0.4548
11225SOL    HW135543   6.203   8.373   7.297 -0.5686 -0.4902 -0.2091
11225SOL    HW235544   6.206   8.314   7.158 -2.7109 -3.0316  0.7367
11226SOL     OW35545   3.782   3.988   4.654 -0.0328 -0.4917 -0.3662
11226SOL    HW135546   3.804   4.063   4.709 -0.6850 -0.3350 -0.3041
11226SOL    HW235547   3.749   3.923   4.715 -0.8925 -0.2653 -0.5758
11227SOL     OW35548   6.389   0.560   1.954  0.1983 -0.0434  0.0621
11227SOL    HW135549   6.358   0.529   2.039 -0.3324  0.7923  0.1767
11227SOL    HW235550   6.410   0.480   1.906 -1.5422 -0.6092  0.2009
11228SOL     OW35551   4.940   3.688   4.956  0.4884  0.8060 -0.1312
11228SOL    HW135552   4.977   3.662   4.872  0.5388  1.4671 -0.3218
11228SOL    HW235553   4.953   3.783   4.959  0.4636  0.7877  0.6129
11229SOL     OW35554   5.667   7.433   8.782 -1.1183  0.2209  0.5949
11229SOL    HW135555   5.711   7.470   8.706  0.6488 -1.2265  0.8567
11229SOL    HW235556   5.611   7.504   8.814 -0.1454  1.6136 -0.6637
11230SOL     OW35557   2.963   3.261   1.269  0.4622 -0.0348 -0.1501
11230SOL    HW135558   2.873   3.272   1.238  0.6457 -0.4393 -0.8400
11230SOL    HW235559   2.967   3.315   1.348 -0.6833 -0.8271  0.4886
11231SOL     OW35560   5.043   4.597   0.350 -0.3463 -0.1518 -0.2267
11231SOL    HW135561   5.136   4.588   0.329 -0.7526  0.4607 -2.6076
11231SOL    HW235562   5.001   4.522   0.307 -0.9457 -0.6183  1.1132
11232SOL     OW35563   7.137   0.419   0.911 -0.0664 -0.1927  0.0515
11232SOL    HW135564   7.095   0.379   0.836 -0.3243  0.1811 -0.0045
11232SOL    HW235565   7.218   0.369   0.922  0.0352 -0.1669 -0.5494
11233SOL     OW35566   7.754   7.549   4.145  0.1212 -0.2529  0.0866
11233SOL    HW135567   7.672   7.542   4.097  0.3958 -0.5380 -0.3494
11233SOL    HW235568   7.805   7.613   4.096 -0.2182  0.6834  0.9198
11234SOL     OW35569   1.475   5.472   3.850 -0.6416  0.6926 -0.1120
11234SOL    HW135570   1.418   5.406   3.812 -1.5773  1.7585 -0.6294
11234SOL    HW235571   1.564   5.440   3.835 -1.0076  0.5102 -2.1659
11235SOL     OW35572   5.491   1.046   1.179  0.2677 -0.3968 -0.3417
11235SOL    HW135573   5.418   1.009   1.130 -0.6283  0.3819  0.3651
11235SOL    HW235574   5.459   1.053   1.269  1.1561  0.0855 -0.0486
11236SOL     OW35575   8.004   4.433   3.574 -0.1827 -0.1859  0.4758
11236SOL    HW135576   7.908   4.431   3.571 -0.1651 -2.1629 -0.0343
11236SOL    HW235577   8.026   4.387   3.654  0.3573 -1.3154 -0.3115
11237SOL     OW35578   0.602   1.532   0.043 -0.1439 -0.4277 -0.2101
11237SOL    HW135579   0.549   1.571   0.113 -2.7718 -0.6604 -1.9407
11237SOL    HW235580   0.583   1.439   0.047 -0.4868 -0.4177 -1.3467
11238SOL     OW35581   7.715   1.511   0.825 -0.2283  0.2133  0.2449
11238SOL    HW135582   7.637   1.477   0.781  0.0369  0.4072 -0.3744
11238SOL    HW235583   7.698   1.605   0.834  0.8327  0.6612 -1.8275
11239SOL     OW35584   0.094   3.538   5.107 -0.8284  0.1191  0.2600
11239SOL    HW135585   0.137   3.563   5.024  0.7257 -0.5022  0.8451
11239SOL    HW235586   0.071   3.446   5.096 -0.4989 -0.0009  0.5663
11240SOL     OW35587   1.619   0.976   2.052  0.4296  0.3490 -0.1104
11240SOL    HW135588   1.682   1.018   2.111 -0.8332  1.3385  0.5727
11240SOL    HW235589   1.614   0.885   2.084  0.3912  0.6594  0.8024
11241SOL     OW35590   3.049   6.537   0.218 -0.2323  0.4556 -0.3663
11241SOL    HW135591   3.092   6.460   0.181  0.6666  0.8042 -0.0908
11241SOL    HW235592   2.990   6.502   0.284  1.4905  0.0641  1.0541
11242SOL     OW35593   4.414   1.136   4.914 -0.2464  0.4105  0.3934
11242SOL    HW135594   4.349   1.129   4.844 -0.4591 -0.6651  0.6841
11242SOL    HW235595   4.432   1.230   4.920 -1.0283  0.6256 -0.3612
11243SOL     OW35596   5.289   5.978   6.448  0.0569 -0.4209  0.2557
11243SOL    HW135597   5.309   5.905   6.506 -1.3483 -0.8481  0.2165
11243SOL    HW235598   5.297   5.942   6.359 -0.3935 -0.4663  0.2323
11244SOL     OW35599   5.484   8.793   1.858 -0.0635 -0.2837  0.5382
11244SOL    HW135600   5.499   8.835   1.943 -0.5690  2.3753 -0.5640
11244SOL    HW235601   5.564   8.812   1.808 -0.0148 -1.3110  0.1985
11245SOL     OW35602   7.481   8.683   8.393 -0.3163 -0.1147  0.3849
11245SOL    HW135603   7.418   8.754   8.406  0.8428  0.8261  1.1003
11245SOL    HW235604   7.549   8.721   8.337  1.4942  0.1893  2.6015
11246SOL     OW35605   4.907   8.837   3.629  0.1655  0.3053 -0.8817
11246SOL    HW135606   4.961   8.904   3.588 -0.1502 -0.5075 -2.7442
11246SOL    HW235607   4.908   8.764   3.566 -0.6330 -0.8879  0.4334
11247SOL     OW35608   1.791   0.428   4.855  0.1373  0.6738  0.2190
11247SOL    HW135609   1.841   0.465   4.782  0.1995  0.8446  0.3465
11247SOL    HW235610   1.851   0.432   4.930 -0.2236  1.3431  0.4882
11248SOL     OW35611   8.236   5.506   8.172 -0.2259 -0.2241  0.1354
11248SOL    HW135612   8.158   5.485   8.223  1.3830 -2.5318  1.8440
11248SOL    HW235613   8.241   5.436   8.106 -0.0027  0.3339 -0.4476
11249SOL     OW35614   6.600   8.137   4.396 -0.6717  0.5300 -0.0259
11249SOL    HW135615   6.622   8.103   4.483 -1.4439  1.8595  0.7265
11249SOL    HW235616   6.506   8.121   4.387 -0.5627  0.2088 -0.7354
11250SOL     OW35617   6.775   3.137   3.131 -0.6310 -0.5597 -0.6517
11250SOL    HW135618   6.741   3.184   3.208 -1.6193 -2.6683  0.2951
11250SOL    HW235619   6.858   3.180   3.112 -0.1017 -0.2608  1.9139
11251SOL     OW35620   7.049   2.302   4.130 -0.1969 -0.8179  0.2100
11251SOL    HW135621   6.978   2.344   4.082  0.6613 -2.0186 -2.2728
11251SOL    HW235622   7.112   2.277   4.063  2.6381  0.2107  2.2815
11252SOL     OW35623   1.909   3.658   2.415  0.0025  0.4446  0.2972
11252SOL    HW135624   1.927   3.564   2.411 -1.9374  0.0660 -0.8431
11252SOL    HW235625   1.959   3.689   2.490  1.2161 -1.3622  0.3050
11253SOL     OW35626   0.490   3.048   5.649  0.3125  0.7033  0.3628
11253SOL    HW135627   0.537   3.092   5.720  1.5436 -0.6616  0.4556
11253SOL    HW235628   0.470   3.118   5.587  2.5241  1.3894  0.3184
11254SOL     OW35629   6.524   5.591   3.099 -0.3916 -0.4457  0.3941
11254SOL    HW135630   6.550   5.672   3.143  1.1801 -0.7757  0.1452
11254SOL    HW235631   6.571   5.592   3.016  0.0415 -1.8263  0.5856
11255SOL     OW35632   7.064   4.803   3.410  0.3394  0.2954  0.6140
11255SOL    HW135633   7.135   4.789   3.473 -0.1024  0.6898  1.2035
11255SOL    HW235634   7.054   4.898   3.406  0.2098  0.2627  0.1199
11256SOL     OW35635   4.001   7.006   8.108  0.1470  0.5835  0.0985
11256SOL    HW135636   3.988   7.057   8.188 -1.6093 -0.2833  0.4122
11256SOL    HW235637   4.079   6.954   8.125  1.2369  2.1867  0.2597
11257SOL     OW35638   3.020   8.686   1.699 -0.4916 -0.0857 -0.3297
11257SOL    HW135639   3.016   8.772   1.741  2.7672  0.0528 -0.0253
11257SOL    HW235640   2.997   8.703   1.607 -2.8374  0.4813  0.2917
11258SOL     OW35641   2.126   6.933   1.505 -0.3766  0.7851  0.0789
11258SOL    HW135642   2.181   6.917   1.429 -0.6781  0.2145 -0.0303
11258SOL    HW235643   2.105   6.845   1.537  0.1673  1.0133  1.1255
11259SOL     OW35644   2.592   0.096   5.801 -0.2969  0.3637  0.2711
11259SOL    HW135645   2.573   0.012   5.843  1.6471 -0.4785 -0.4126
11259SOL    HW235646   2.561   0.161   5.864 -3.8458 -0.7524 -0.1020
11260SOL     OW35647   0.898   7.449   7.795  0.4231 -0.4005 -0.5173
11260SOL    HW135648   0.900   7.354   7.777  1.9330 -1.1905  3.0713
11260SOL    HW235649   0.988   7.478   7.779 -0.1499  0.6133 -2.1008
11261SOL     OW35650   5.229   3.504   8.389  0.3967 -0.2861  0.1258
11261SOL    HW135651   5.228   3.582   8.334 -0.3504  0.0634  0.6195
11261SOL    HW235652   5.163   3.447   8.350  1.5284 -1.0546 -0.7424
11262SOL     OW35653   1.570   5.109   7.086  0.0012  0.4539 -0.5995
11262SOL    HW135654   1.537   5.037   7.141  1.2915  0.4293  0.2051
11262SOL    HW235655   1.574   5.072   6.998 -0.3294 -0.1196 -0.3817
11263SOL     OW35656   0.967   5.394   0.432 -0.3853 -0.5686 -0.1678
11263SOL    HW135657   0.883   5.352   0.452 -1.0649  0.3083 -1.0920
11263SOL    HW235658   0.975   5.463   0.498  0.8372 -2.1930  1.4917
11264SOL     OW35659   4.298   0.413   8.350  0.1633 -0.2970  0.6094
11264SOL    HW135660   4.283   0.341   8.288  0.6409  0.3581 -0.2753
11264SOL    HW235661   4.392   0.432   8.342 -0.0142  0.6127  0.6274
11265SOL     OW35662   2.538   8.849   0.855 -0.6127  0.4528 -0.5155
11265SOL    HW135663   2.497   8.906   0.791  0.7886  0.1452 -1.7260
11265SOL    HW235664   2.595   8.792   0.804  0.8001  0.4201  1.0201
11266SOL     OW35665   4.500   2.369   1.909 -0.3663 -0.3172  0.6689
11266SOL    HW135666   4.475   2.430   1.839 -0.3094 -0.3910  0.5842
11266SOL    HW235667   4.484   2.417   1.990 -1.4064 -0.5864  0.6381
11267SOL     OW35668   6.692   0.439   0.409 -0.0724 -0.5209  0.6912
11267SOL    HW135669   6.775   0.392   0.401  0.9361  1.1572  0.5673
11267SOL    HW235670   6.696   0.506   0.341 -2.0786 -1.1158 -0.0857
11268SOL     OW35671   8.343   6.936   2.149 -0.2773 -0.1651 -0.5555
11268SOL    HW135672   8.352   6.931   2.244  0.0728  1.6810 -0.4485
11268SOL    HW235673   8.293   6.858   2.125  2.5056 -2.5271  0.7125
11269SOL     OW35674   8.935   4.249   4.649  0.5655 -0.1889 -0.3062
11269SOL    HW135675   8.870   4.269   4.582  0.4051 -0.0743 -0.1168
11269SOL    HW235676   9.006   4.205   4.601 -1.3695 -4.0838  0.0222
11270SOL     OW35677   6.071   4.526   3.311  0.7129  0.3002 -0.1160
11270SOL    HW135678   6.089   4.460   3.244 -0.3340 -0.6686  0.5100
11270SOL    HW235679   6.048   4.604   3.262 -0.1167 -0.4138 -0.9034
11271SOL     OW35680   1.110   6.552   5.741  0.6992 -0.2844  0.3009
11271SOL    HW135681   1.081   6.553   5.649 -0.4037 -1.0264  0.6231
11271SOL    HW235682   1.125   6.459   5.760 -0.0796 -0.2453  1.1690
11272SOL     OW35683   3.537   8.782   4.578 -0.3465 -0.0326 -0.0139
11272SOL    HW135684   3.601   8.786   4.508  0.5430 -0.2512  0.7632
11272SOL    HW235685   3.589   8.791   4.658 -1.4669  1.6946  0.5788
11273SOL     OW35686   7.029   5.571   7.123  0.0235  0.1031  1.1748
11273SOL    HW135687   6.999   5.591   7.212  1.1051 -1.2523  1.8819
11273SOL    HW235688   7.003   5.480   7.110 -2.3855  0.9782 -0.9108
11274SOL     OW35689   4.101   0.903   1.674 -0.7752 -0.4302 -0.6053
11274SOL    HW135690   4.164   0.881   1.743 -0.0042  1.4649 -0.6482
11274SOL    HW235691   4.028   0.944   1.721 -2.0987 -2.6628 -0.5491
11275SOL     OW35692   5.598   3.256   6.717 -0.0526  0.9176  0.8446
11275SOL    HW135693   5.645   3.231   6.796  1.1543  2.0051  0.4930
11275SOL    HW235694   5.562   3.173   6.684 -0.1735  0.3820  2.2473
11276SOL     OW35695   1.503   6.227   0.912 -0.0335  0.1316 -0.0405
11276SOL    HW135696   1.500   6.154   0.973  0.1652  0.3764  0.2657
11276SOL    HW235697   1.430   6.283   0.938 -0.7371 -0.3976 -0.8393
11277SOL     OW35698   6.258   8.043   6.502  0.1488  0.1688 -0.1136
11277SOL    HW135699   6.272   8.121   6.448  0.5341  0.4057  0.3188
11277SOL    HW235700   6.163   8.028   6.497  0.3078 -0.5038 -1.7760
11278SOL     OW35701   7.908   6.395   3.968  0.2156  0.2137 -0.1215
11278SOL    HW135702   7.876   6.374   4.055 -1.9559 -0.2796 -0.9868
11278SOL    HW235703   7.941   6.312   3.933 -1.2866 -0.1710 -0.6891
11279SOL     OW35704   8.923   0.178   1.131 -0.3862 -0.1994  0.2762
11279SOL    HW135705   8.832   0.162   1.108  0.1389 -1.3926 -1.1315
11279SOL    HW235706   8.920   0.211   1.220 -2.1373 -1.1082  0.5903
11280SOL     OW35707   0.623   3.895   5.983 -0.0683  0.6512 -0.9124
11280SOL    HW135708   0.622   3.830   5.912  0.5469 -0.2363 -0.1367
11280SOL    HW235709   0.651   3.976   5.941  3.2476 -0.5068 -1.2092
11281SOL     OW35710   6.128   0.761   8.368  0.4390 -0.1253  0.2984
11281SOL    HW135711   6.067   0.774   8.440  0.9106 -0.3781  0.7558
11281SOL    HW235712   6.110   0.672   8.337  1.9351 -1.0112  1.7910
11282SOL     OW35713   3.316   8.723   6.913 -0.1546 -0.3844  0.0351
11282SOL    HW135714   3.245   8.667   6.883 -1.3785  1.3915 -0.4857
11282SOL    HW235715   3.395   8.681   6.879 -0.5438 -3.9303  2.8714
11283SOL     OW35716   1.667   3.770   0.328  0.1403 -0.1578 -0.2501
11283SOL    HW135717   1.617   3.696   0.293 -1.7110  0.2118  1.4300
11283SOL    HW235718   1.656   3.839   0.262  1.9953 -1.3295 -1.8998
11284SOL     OW35719   4.686   5.010   7.032 -0.2829  0.3846 -0.2563
11284SOL    HW135720   4.654   5.046   7.115 -0.4234 -0.0360 -0.1247
11284SOL    HW235721   4.684   4.915   7.045 -0.6743  0.3031 -0.8778
11285SOL     OW35722   8.768   3.695   2.511 -0.4236 -0.0385 -0.1412
11285SOL    HW135723   8.805   3.734   2.590 -1.5913 -1.1508  1.0148
11285SOL    HW235724   8.844   3.671   2.458  0.3931  0.4006  0.8030
11286SOL     OW35725   6.827   1.923   1.195  0.2117  0.2809  0.1747
11286SOL    HW135726   6.854   1.956   1.109 -1.0709  1.9548  0.3498
11286SOL    HW235727   6.850   1.993   1.256 -2.0511  0.6866  0.6690
11287SOL     OW35728   0.935   4.410   6.510 -0.0750 -0.3150  0.2305
11287SOL    HW135729   0.871   4.474   6.478  1.2041 -0.0887 -2.1507
11287SOL    HW235730   0.995   4.398   6.436  1.9445 -1.4193  1.9409
11288SOL     OW35731   5.449   6.798   1.031  0.3821  0.3395  0.3348
11288SOL    HW135732   5.418   6.707   1.032 -0.2400  0.5453  0.6617
11288SOL    HW235733   5.388   6.844   0.974  0.2294  0.7036  0.7803
11289SOL     OW35734   7.888   3.908   2.451  0.0649  0.1535 -0.1779
11289SOL    HW135735   7.881   3.966   2.375 -0.0102  1.8851  1.0813
11289SOL    HW235736   7.860   3.962   2.525 -1.4856 -1.9661  0.8937
11290SOL     OW35737   8.917   7.268   7.394 -0.1417 -0.3017 -0.1391
11290SOL    HW135738   8.899   7.182   7.357  1.0476 -0.1296 -1.1899
11290SOL    HW235739   8.898   7.329   7.322  0.8354  0.1604 -0.0180
11291SOL     OW35740   6.056   3.668   3.174 -0.2039 -0.1870 -0.5807
11291SOL    HW135741   6.103   3.679   3.256  1.0204 -0.2239 -1.2649
11291SOL    HW235742   6.083   3.742   3.120 -0.1113 -0.7758 -1.3578
11292SOL     OW35743   7.491   6.587   4.845 -0.7497  0.2620  0.0098
11292SOL    HW135744   7.415   6.641   4.822 -1.3052  0.4631  2.0811
11292SOL    HW235745   7.543   6.643   4.903 -0.4551 -0.8288  0.8182
11293SOL     OW35746   3.931   2.955   2.801  0.0808 -0.0228  0.4519
11293SOL    HW135747   3.972   3.003   2.874 -0.0494 -0.4309  0.8007
11293SOL    HW235748   3.838   2.957   2.821 -0.1129  1.1433 -0.4865
11294SOL     OW35749   8.569   7.887   3.672 -0.2863  0.0623 -0.5047
11294SOL    HW135750   8.616   7.811   3.709  0.5260  1.4161  1.4127
11294SOL    HW235751   8.490   7.894   3.726 -1.2293 -0.3947 -1.7833
11295SOL     OW35752   1.650   2.514   3.653 -0.4411 -0.3312 -0.1908
11295SOL    HW135753   1.722   2.499   3.714  0.8181 -0.3493 -1.6070
11295SOL    HW235754   1.655   2.441   3.592 -0.6917  0.4764 -1.2061
11296SOL     OW35755   3.392   4.473   8.171 -0.1170 -0.2446  0.3458
11296SOL    HW135756   3.310   4.516   8.149  0.7112  1.4592  0.3822
11296SOL    HW235757   3.369   4.409   8.238 -1.2803  0.8457  1.0275
11297SOL     OW35758   5.193   1.726   3.531 -0.3359 -0.6184 -0.5294
11297SOL    HW135759   5.251   1.675   3.475 -0.4968  0.3102 -1.5713
11297SOL    HW235760   5.218   1.701   3.620  0.2557 -1.7572 -0.9962
11298SOL     OW35761   4.713   1.900   0.361 -0.2557 -0.2655  0.1090
11298SOL    HW135762   4.663   1.973   0.323  0.5410 -0.1692 -0.8209
11298SOL    HW235763   4.691   1.825   0.306  1.3137 -0.0127 -0.9646
11299SOL     OW35764   3.986   4.908   2.846 -0.0678  0.1160 -0.3297
11299SOL    HW135765   3.982   4.995   2.884 -1.4979 -0.4558  0.9253
11299SOL    HW235766   3.931   4.854   2.902  1.3333 -1.7775 -0.6641
11300SOL     OW35767   7.191   3.486   7.103  0.1781 -0.3089  0.2314
11300SOL    HW135768   7.193   3.581   7.091  1.2373 -0.5341 -2.0939
11300SOL    HW235769   7.202   3.451   7.014 -2.5073 -2.6399  0.6681
11301SOL     OW35770   2.126   4.993   6.944  0.3203  0.3236 -0.7789
11301SOL    HW135771   2.196   4.948   6.898 -0.2440 -1.8236  0.3586
11301SOL    HW235772   2.170   5.042   7.013  0.7482 -0.6562 -0.3491
11302SOL     OW35773   8.815   1.352   3.791  0.1500  0.5323 -0.1830
11302SOL    HW135774   8.721   1.334   3.796  0.1688  0.4976  0.0580
11302SOL    HW235775   8.841   1.324   3.703  0.3503 -1.4046  0.4477
11303SOL     OW35776   1.888   7.135   1.395  0.2347 -0.2149  0.0914
11303SOL    HW135777   1.930   7.138   1.481  0.9476 -1.3511 -0.1911
11303SOL    HW235778   1.961   7.123   1.334 -0.2958  0.2162 -0.6369
11304SOL     OW35779   2.502   0.162   8.421  0.2690 -0.1303 -0.2447
11304SOL    HW135780   2.455   0.188   8.341 -0.2418  2.7260  0.8814
11304SOL    HW235781   2.435   0.124   8.477  0.2676 -0.4534 -0.4616
11305SOL     OW35782   5.217   7.791   2.216 -0.3264 -0.2250  0.1696
11305SOL    HW135783   5.265   7.821   2.293  1.9416  1.9560 -1.9303
11305SOL    HW235784   5.207   7.869   2.161 -2.1799 -1.6109 -1.6431
11306SOL     OW35785   0.277   1.812   7.477 -0.2273 -0.3397 -0.2352
11306SOL    HW135786   0.206   1.809   7.413 -0.6582 -0.1757  0.2365
11306SOL    HW235787   0.235   1.796   7.561  0.3266 -0.4666  0.0210
11307SOL     OW35788   6.753   7.090   3.797 -0.7429  0.1235 -0.0900
11307SOL    HW135789   6.771   6.996   3.796  0.7383  0.3765  0.0061
11307SOL    HW235790   6.789   7.122   3.715 -0.1922  0.7726  0.3962
11308SOL     OW35791   0.023   4.348   8.118  0.1060  0.2303 -0.2648
11308SOL    HW135792  -0.010   4.309   8.199 -1.7889 -0.3449 -1.2475
11308SOL    HW235793  -0.036   4.422   8.102 -0.1691 -0.2695 -1.6222
11309SOL     OW35794   1.064   6.524   8.847  0.7772  0.7449  0.0601
11309SOL    HW135795   1.133   6.550   8.908 -0.0455 -0.2166  1.4665
11309SOL    HW235796   1.031   6.442   8.883 -0.4800  0.7195 -1.0997
11310SOL     OW35797   5.602   2.453   4.145 -0.3539 -0.6410  0.5506
11310SOL    HW135798   5.668   2.431   4.079  0.8248  1.9594  0.7557
11310SOL    HW235799   5.619   2.393   4.218  1.8669 -0.0043  0.6143
11311SOL     OW35800   7.692   6.861   0.409 -0.5175  0.5184  0.3497
11311SOL    HW135801   7.614   6.868   0.463 -2.4371 -0.1477 -2.1072
11311SOL    HW235802   7.687   6.772   0.372  1.7386  0.2537  0.5248
11312SOL     OW35803   4.942   1.619   2.590  0.5531  0.2918 -0.1666
11312SOL    HW135804   4.884   1.692   2.569  1.0877  0.3627 -1.4517
11312SOL    HW235805   4.911   1.589   2.675  0.1765  1.8771  0.3074
11313SOL     OW35806   5.091   3.098   7.949 -0.0107 -0.2869  0.1452
11313SOL    HW135807   5.145   3.174   7.970 -0.1913  0.2989 -1.3864
11313SOL    HW235808   5.005   3.135   7.930  0.1627 -0.7405 -1.6447
11314SOL     OW35809   3.238   8.712   0.698  0.3071  0.4068  0.4551
11314SOL    HW135810   3.243   8.689   0.791 -0.0485 -1.0022  0.1475
11314SOL    HW235811   3.318   8.676   0.660  0.7238  1.4659  0.2947
11315SOL     OW35812   6.168   6.913   3.048 -0.3085  0.3923  0.3866
11315SOL    HW135813   6.252   6.902   3.093 -0.2958 -0.4043  0.1678
11315SOL    HW235814   6.147   6.827   3.013 -1.3137  0.5323  0.6009
11316SOL     OW35815   6.691   4.512   6.204  0.2099 -0.5523  0.2080
11316SOL    HW135816   6.757   4.574   6.237  0.3559 -1.0917  0.9555
11316SOL    HW235817   6.625   4.567   6.162 -0.0981  0.1863  1.6035
11317SOL     OW35818   8.410   6.541   0.319  0.0670 -0.7196  0.2912
11317SOL    HW135819   8.483   6.582   0.272 -0.9521  0.2795 -0.4731
11317SOL    HW235820   8.378   6.609   0.378 -1.3913 -0.5068 -0.6978
11318SOL     OW35821   0.992   4.204   1.413 -0.3073 -0.7943 -0.1488
11318SOL    HW135822   1.074   4.207   1.463 -1.3633  0.3271  1.6516
11318SOL    HW235823   0.931   4.156   1.470 -1.0647 -1.1311 -1.2036
11319SOL     OW35824   4.206   2.345   0.720  0.9238  0.0794  0.4166
11319SOL    HW135825   4.210   2.271   0.660  0.2680  0.9780 -0.7959
11319SOL    HW235826   4.201   2.422   0.663 -1.1784  0.9037  1.5783
11320SOL     OW35827   5.021   1.878   1.618  0.2306 -0.2595  0.3688
11320SOL    HW135828   4.932   1.869   1.652  0.4041 -1.6917  0.4907
11320SOL    HW235829   5.077   1.871   1.695  0.5311 -1.5169  0.0556
11321SOL     OW35830   3.613   2.543   4.800  0.0595 -0.1048  0.0157
11321SOL    HW135831   3.566   2.461   4.814  0.4053 -0.3007  0.0372
11321SOL    HW235832   3.670   2.526   4.725 -1.7443  0.9290 -1.6789
11322SOL     OW35833   2.646   6.851   7.021 -0.0133  0.0679 -0.5263
11322SOL    HW135834   2.672   6.923   7.078 -0.9779 -1.5114  2.0943
11322SOL    HW235835   2.718   6.788   7.028 -0.6522 -0.6260 -0.1417
11323SOL     OW35836   1.227   7.157   7.356 -0.1600  0.1809 -0.2852
11323SOL    HW135837   1.240   7.224   7.423  1.0773 -0.3288  0.0164
11323SOL    HW235838   1.159   7.100   7.392  0.0537  0.2677  0.2748
11324SOL     OW35839   5.499   6.643   6.308 -0.7648 -0.4541 -0.6245
11324SOL    HW135840   5.414   6.598   6.300 -0.9356 -0.3474  0.4736
11324SOL    HW235841   5.480   6.720   6.361  0.0577 -0.5311 -0.2117
11325SOL     OW35842   5.061   2.983   8.941  0.0958  0.2995  0.1627
11325SOL    HW135843   5.154   3.004   8.953  1.3799 -4.0718 -0.0641
11325SOL    HW235844   5.046   2.908   9.000 -1.4525 -3.0567 -3.9809
11326SOL     OW35845   2.081   5.149   4.438  0.0491  0.0984  0.0596
11326SOL    HW135846   2.028   5.110   4.508  0.6254 -1.3648 -0.2749
11326SOL    HW235847   2.099   5.076   4.379  3.1058  0.3401  0.5420
11327SOL     OW35848   0.181   8.587   4.928 -0.2042  0.3024 -0.3925
11327SOL    HW135849   0.132   8.574   4.847  1.3114 -0.9817 -1.1565
11327SOL    HW235850   0.254   8.525   4.922  1.4673  2.0535  0.7363
11328SOL     OW35851   5.799   4.786   4.540 -0.1039  0.3303 -0.3955
11328SOL    HW135852   5.773   4.849   4.472 -0.6207 -1.3508 -1.8118
11328SOL    HW235853   5.871   4.737   4.501  1.3690  1.0280  1.2988
11329SOL     OW35854   7.673   7.811   6.163  0.3431 -0.5457 -0.0518
11329SOL    HW135855   7.747   7.818   6.224 -0.0254 -3.6699  0.9269
11329SOL    HW235856   7.596   7.829   6.217  0.1018 -2.1196  0.1665
11330SOL     OW35857   5.480   4.432   5.364 -0.3547  0.6880 -0.1051
11330SOL    HW135858   5.549   4.494   5.343  0.8539 -0.7703 -0.6210
11330SOL    HW235859   5.492   4.361   5.301 -2.4655  0.4675 -0.3348
11331SOL     OW35860   6.722   7.444   4.895  0.0277 -0.3251 -0.1101
11331SOL    HW135861   6.743   7.402   4.812 -0.8020  0.2613 -0.6319
11331SOL    HW235862   6.780   7.402   4.959  0.2068 -1.2543 -0.8632
11332SOL     OW35863   4.575   1.305   2.066 -0.5992  0.1402 -0.2487
11332SOL    HW135864   4.622   1.381   2.032 -3.4108  0.3659 -4.3115
11332SOL    HW235865   4.611   1.231   2.017  0.4637 -0.8976  1.9640
11333SOL     OW35866   0.327   2.292   5.322  0.1761 -0.2593 -0.0752
11333SOL    HW135867   0.281   2.237   5.258 -1.8588  1.1493  0.0966
11333SOL    HW235868   0.366   2.362   5.270 -1.5500  0.9340  0.1567
11334SOL     OW35869   1.819   5.323   0.357  0.1589 -0.5668 -0.3720
11334SOL    HW135870   1.723   5.318   0.348  0.0961  0.3505 -0.2530
11334SOL    HW235871   1.840   5.415   0.345  0.9430 -0.6188  0.4681
11335SOL     OW35872   1.691   8.907   5.270 -0.2148  0.3583 -0.9656
11335SOL    HW135873   1.639   8.981   5.237 -0.0663  0.9132 -0.0010
11335SOL    HW235874   1.750   8.946   5.334  1.2703 -0.3062 -1.8957
11336SOL     OW35875   8.602   8.110   3.458 -0.5659  0.0469  0.3801
11336SOL    HW135876   8.584   8.055   3.534  1.3603  0.0377  0.8874
11336SOL    HW235877   8.698   8.113   3.453 -0.6262  1.8744 -0.7033
11337SOL     OW35878   0.419   7.535   7.979  0.1935 -0.4978 -0.3069
11337SOL    HW135879   0.419   7.456   8.034 -0.1903 -0.5143 -0.3306
11337SOL    HW235880   0.512   7.550   7.959  0.2700 -0.9428 -0.2987
11338SOL     OW35881   3.088   0.813   6.574  0.4246  0.6198  0.2476
11338SOL    HW135882   3.111   0.728   6.536  0.3724  0.6648  0.1183
11338SOL    HW235883   3.072   0.793   6.667 -0.8964  0.2478 -0.0386
11339SOL     OW35884   1.174   7.662   1.968 -0.2397  0.9037  0.3281
11339SOL    HW135885   1.224   7.684   1.889  0.9505  0.2630  0.8788
11339SOL    HW235886   1.136   7.746   1.996  1.7020  1.7118  0.6755
11340SOL     OW35887   5.148   3.690   3.843  0.4026 -0.3511  0.4923
11340SOL    HW135888   5.224   3.733   3.804 -0.3039  0.3802 -0.0876
11340SOL    HW235889   5.124   3.621   3.781 -0.5720  0.6556 -0.2791
11341SOL     OW35890   2.523   1.253   5.795 -0.3143  0.1059  0.6645
11341SOL    HW135891   2.535   1.316   5.724  0.2105 -0.3179  0.3680
11341SOL    HW235892   2.592   1.273   5.857 -2.2396  2.1135  2.3253
11342SOL     OW35893   1.479   4.942   3.348  0.1876 -0.1788  0.5465
11342SOL    HW135894   1.416   4.876   3.318 -0.3156 -0.2529  1.7309
11342SOL    HW235895   1.565   4.905   3.325 -0.1437 -0.5891 -0.0674
11343SOL     OW35896   5.233   5.984   1.382  0.1765  0.8086 -0.0570
11343SOL    HW135897   5.197   5.918   1.324 -1.1055 -0.0258  1.5921
11343SOL    HW235898   5.276   6.047   1.324 -1.3335  0.2217 -1.8968
11344SOL     OW35899   7.403   2.532   1.999 -0.5086 -0.0275 -0.2352
11344SOL    HW135900   7.449   2.521   2.082  0.4349 -0.3523 -0.7845
11344SOL    HW235901   7.377   2.624   1.997 -2.0933 -0.3889  1.1872
11345SOL     OW35902   2.994   0.399   4.317 -0.0611  0.5607  0.1515
11345SOL    HW135903   3.021   0.458   4.246 -0.5361  1.1744  0.4707
11345SOL    HW235904   3.018   0.312   4.286  0.3633  0.8904 -0.4679
11346SOL     OW35905   7.891   7.419   6.251 -0.4041 -0.1197 -0.2099
11346SOL    HW135906   7.877   7.440   6.343 -1.3765  0.2787 -0.4455
11346SOL    HW235907   7.880   7.324   6.246 -0.4039 -0.1331  0.0670
11347SOL     OW35908   3.025   6.775   3.888 -0.0258 -0.5494  0.1692
11347SOL    HW135909   3.021   6.699   3.946  0.7419 -0.3816  0.4577
11347SOL    HW235910   3.118   6.796   3.883 -0.1348 -0.2240 -0.6899
11348SOL     OW35911   8.346   3.250   3.887  0.0613 -0.4055  0.1471
11348SOL    HW135912   8.254   3.235   3.906 -0.0036 -0.1455  0.0373
11348SOL    HW235913   8.365   3.195   3.811  0.2729 -1.3091  0.8312
11349SOL     OW35914   8.571   4.199   2.462 -0.3952  0.1760 -0.1738
11349SOL    HW135915   8.478   4.200   2.480 -0.4886 -0.8939 -0.5273
11349SOL    HW235916   8.589   4.110   2.433  0.5417  0.6306 -1.0871
11350SOL     OW35917   0.631   5.812   5.215  0.4903 -0.4862 -0.1024
11350SOL    HW135918   0.658   5.897   5.180  0.9273 -0.0116  1.3053
11350SOL    HW235919   0.537   5.822   5.233  1.0145  0.6252  2.4282
11351SOL     OW35920   0.304   5.114   2.113  0.2085  0.1680 -0.3309
11351SOL    HW135921   0.361   5.136   2.187 -0.3911  0.2702  0.1170
11351SOL    HW235922   0.263   5.197   2.088  0.7241  0.2092 -1.0585
11352SOL     OW35923   7.938   8.219   5.281  0.2314 -0.1081  0.2002
11352SOL    HW135924   7.986   8.180   5.208  1.5800  0.4591  0.7601
11352SOL    HW235925   7.865   8.265   5.239 -0.0336 -1.2455 -0.6377
11353SOL     OW35926   3.497   4.902   5.450  0.1387  0.3509  0.0317
11353SOL    HW135927   3.561   4.843   5.410  0.4703  1.4283 -1.0898
11353SOL    HW235928   3.545   4.946   5.520  1.0033  1.8695 -1.4182
11354SOL     OW35929   4.513   7.206   1.898  0.3258  0.8517 -0.1925
11354SOL    HW135930   4.472   7.262   1.832  0.5862 -0.1183 -1.2088
11354SOL    HW235931   4.605   7.200   1.871  0.2684 -0.1920 -0.2151
11355SOL     OW35932   8.724   7.359   8.832  0.3192  0.7084  0.3070
11355SOL    HW135933   8.712   7.275   8.788  0.0916  0.4675  0.8166
11355SOL    HW235934   8.658   7.359   8.901 -0.7554  1.9899 -0.6660
11356SOL     OW35935   3.809   4.781   0.017 -0.3343  0.2291  0.3556
11356SOL    HW135936   3.904   4.778   0.014 -0.2691  1.1829  0.9646
11356SOL    HW235937   3.781   4.745  -0.068  0.6454  2.4447 -1.0048
11357SOL     OW35938   7.847   3.060   4.024 -0.1072  0.0864  0.2022
11357SOL    HW135939   7.833   3.057   4.119  0.1515  0.4469  0.2531
11357SOL    HW235940   7.773   3.111   3.991  1.5826  3.0354  0.5984
11358SOL     OW35941   7.442   2.806   1.756  0.1206  0.4557 -0.6993
11358SOL    HW135942   7.537   2.809   1.745  0.1723  0.3911 -0.2989
11358SOL    HW235943   7.414   2.731   1.704  0.4464 -0.3346  0.2421
11359SOL     OW35944   3.230   0.815   3.356  0.4189  0.1638 -0.0712
11359SOL    HW135945   3.206   0.907   3.346  0.9838  0.2801 -0.3933
11359SOL    HW235946   3.216   0.797   3.449  2.8995  1.3402  0.6082
11360SOL     OW35947   3.994   7.368   5.892  0.4271  0.3880  0.1963
11360SOL    HW135948   3.985   7.350   5.985 -1.1168  3.5648  0.8161
11360SOL    HW235949   4.001   7.464   5.887 -2.6416  0.6324 -3.0862
11361SOL     OW35950   7.304   2.675   7.254 -0.3083  0.6989 -0.2961
11361SOL    HW135951   7.376   2.698   7.312 -0.5942 -0.1223  0.4030
11361SOL    HW235952   7.242   2.628   7.310  0.7606 -2.8922 -1.8408
11362SOL     OW35953   3.575   0.488   0.631  0.4083 -0.8332 -0.1369
11362SOL    HW135954   3.648   0.453   0.681 -0.1715 -2.1026 -0.1382
11362SOL    HW235955   3.532   0.411   0.594  0.6541  0.0283 -2.3818
11363SOL     OW35956   6.858   3.094   3.907 -0.0906  0.3433 -0.2707
11363SOL    HW135957   6.805   3.121   3.982 -0.3272  0.9882 -0.6640
11363SOL    HW235958   6.882   3.003   3.926  0.3284  0.6796  0.8525
11364SOL     OW35959   2.501   4.859   7.325 -0.5008  0.4953  0.6225
11364SOL    HW135960   2.431   4.866   7.260 -1.0004  1.8968  1.2675
11364SOL    HW235961   2.522   4.950   7.348  1.2962  0.0967  0.7169
11365SOL     OW35962   6.859   0.904   0.254 -0.1186 -0.4048 -0.2769
11365SOL    HW135963   6.949   0.881   0.230  0.8168  2.4509  0.0927
11365SOL    HW235964   6.860   0.908   0.350 -0.4111  0.4701 -0.3083
11366SOL     OW35965   6.444   0.443   3.745  0.2870  0.4005 -0.1385
11366SOL    HW135966   6.470   0.414   3.658 -1.6697 -1.2711 -0.2454
11366SOL    HW235967   6.494   0.388   3.805  2.3840  2.2230 -0.1023
11367SOL     OW35968   6.502   1.473   2.554 -0.0179  0.2918  0.1349
11367SOL    HW135969   6.444   1.549   2.545 -3.9291 -2.6016 -1.4076
11367SOL    HW235970   6.552   1.491   2.634 -3.1888  2.9975  1.7519
11368SOL     OW35971   8.927   2.076   3.176 -0.3255 -0.4538  0.1865
11368SOL    HW135972   8.988   2.007   3.148 -0.9572 -0.2700 -1.7886
11368SOL    HW235973   8.893   2.045   3.260 -0.7028 -2.6446 -0.7070
11369SOL     OW35974   0.968   1.252   0.465  0.0750  0.6418  0.0933
11369SOL    HW135975   0.898   1.227   0.404  0.5896  1.4131 -0.8329
11369SOL    HW235976   1.021   1.172   0.473  0.0769  0.5616 -0.5904
11370SOL     OW35977   6.129   2.728   2.843  0.2132  0.3255 -0.6947
11370SOL    HW135978   6.144   2.815   2.879 -0.6928 -0.0848  0.7175
11370SOL    HW235979   6.107   2.673   2.918  0.5370 -1.0849 -1.5792
11371SOL     OW35980   8.382   3.141   5.756  0.0042  0.0723 -0.1574
11371SOL    HW135981   8.298   3.183   5.775 -0.4394  0.2426 -2.1881
11371SOL    HW235982   8.434   3.152   5.835 -1.2841  1.4971  0.5314
11372SOL     OW35983   1.632   8.889   4.742 -0.0750 -0.3558  0.5786
11372SOL    HW135984   1.674   8.965   4.700 -1.0145 -0.2932 -0.2674
11372SOL    HW235985   1.540   8.913   4.748 -0.4426 -1.5574  0.0189
11373SOL     OW35986   2.765   0.072   7.592  0.1567  0.5938 -0.5076
11373SOL    HW135987   2.778   0.095   7.684 -3.0507 -2.5823  0.9657
11373SOL    HW235988   2.729   0.152   7.553  0.9234  1.8085  1.1150
11374SOL     OW35989   4.095   3.041   7.586 -0.6734 -0.0131 -0.1281
11374SOL    HW135990   4.149   2.996   7.651  0.5009 -0.1320 -1.1460
11374SOL    HW235991   4.013   2.992   7.585 -0.2064 -0.8356  0.2968
11375SOL     OW35992   1.092   2.752   4.759 -0.0556 -0.3082  0.0792
11375SOL    HW135993   1.145   2.794   4.691  1.4338  1.8393  2.3762
11375SOL    HW235994   1.136   2.668   4.774 -0.2664 -0.7092 -1.3823
11376SOL     OW35995   2.230   2.133   8.470 -0.0432 -0.1705 -0.1797
11376SOL    HW135996   2.173   2.089   8.533 -0.0530  0.1720  0.0555
11376SOL    HW235997   2.311   2.082   8.470 -0.9735 -1.7888 -1.9032
11377SOL     OW35998   3.437   0.110   6.686 -0.3459 -0.5219 -0.0453
11377SOL    HW135999   3.422   0.071   6.772 -0.9285  0.5132  0.3449
11377SOL    HW236000   3.349   0.132   6.654 -0.0209  1.3844  0.2184
11378SOL     OW36001   6.514   6.502   6.906 -0.3782  0.5608 -0.2630
11378SOL    HW136002   6.458   6.426   6.921 -0.1885  0.5816  0.6456
11378SOL    HW236003   6.603   6.469   6.917 -0.3287  1.1376  1.4144
11379SOL     OW36004   4.739   8.013   4.885  0.6955  0.3093  0.2351
11379SOL    HW136005   4.829   7.998   4.913  0.7311 -2.4139 -0.9909
11379SOL    HW236006   4.746   8.028   4.791 -0.0611  1.2003  0.3090
11380SOL     OW36007   1.547   1.260   0.371 -0.4052  0.4345  0.6253
11380SOL    HW136008   1.474   1.311   0.405 -1.7182 -0.6952 -0.3683
11380SOL    HW236009   1.555   1.288   0.279  0.2649  0.3704  0.6567
11381SOL     OW36010   1.506   8.536   0.527 -0.4401  0.1221  0.3781
11381SOL    HW136011   1.475   8.446   0.522  0.0468 -0.0703  0.7656
11381SOL    HW236012   1.510   8.555   0.621 -1.3995  0.8527  0.2912
11382SOL     OW36013   3.588   3.701   6.235 -0.1503  0.3430  0.0198
11382SOL    HW136014   3.563   3.735   6.321 -0.4978  0.0745  0.0250
11382SOL    HW236015   3.518   3.730   6.177 -0.2476 -0.0384 -0.0501
11383SOL     OW36016   7.480   8.689   8.849  0.2219  0.2456  0.1973
11383SOL    HW136017   7.418   8.703   8.921 -0.0894  1.3402 -0.2615
11383SOL    HW236018   7.437   8.727   8.773  1.6006  1.4227 -0.0484
11384SOL     OW36019   7.465   4.051   3.698  0.3276  0.1794 -0.5489
11384SOL    HW136020   7.545   4.033   3.648  1.1808  0.7829  0.5655
11384SOL    HW236021   7.457   3.977   3.758 -0.0140  0.0775 -0.7142
11385SOL     OW36022   3.073   3.365   8.401  0.1752 -0.2834 -0.1614
11385SOL    HW136023   3.043   3.282   8.364 -2.4016  1.0043 -1.1954
11385SOL    HW236024   3.028   3.432   8.350  1.9939  1.7938  0.7802
11386SOL     OW36025   0.231   0.853   4.589 -0.0337 -0.4241 -0.4819
11386SOL    HW136026   0.177   0.774   4.588 -0.4634 -0.1386 -0.2614
11386SOL    HW236027   0.277   0.852   4.505 -0.0714 -0.8838 -0.4993
11387SOL     OW36028   6.880   1.901   4.263 -0.1755  0.4297 -0.4253
11387SOL    HW136029   6.912   1.820   4.302 -0.3287  0.5493 -0.0481
11387SOL    HW236030   6.784   1.892   4.266 -0.2436 -0.5914 -2.8953
11388SOL     OW36031   3.952   3.061   2.036  0.5264  0.3576  0.1589
11388SOL    HW136032   3.888   3.120   2.077  0.2348  0.5881 -0.6017
11388SOL    HW236033   4.033   3.075   2.086  0.0195  0.1388  1.0670
11389SOL     OW36034   4.703   6.272   0.303 -0.1685  0.3041  0.2415
11389SOL    HW136035   4.792   6.305   0.310 -0.2435  0.4521  0.5264
11389SOL    HW236036   4.692   6.218   0.382 -0.0242 -0.4526 -0.2453
11390SOL     OW36037   4.546   7.194   4.712 -0.0982  0.2936  0.3628
11390SOL    HW136038   4.479   7.162   4.771  1.0157 -0.5948  1.1932
11390SOL    HW236039   4.603   7.119   4.697  1.3885  1.3149  0.6420
11391SOL     OW36040   0.641   4.948   7.992 -0.0472  0.5506 -0.5884
11391SOL    HW136041   0.575   4.914   7.931 -1.3237  1.1845  0.3912
11391SOL    HW236042   0.701   4.998   7.936 -0.8598  0.6363 -1.4077
11392SOL     OW36043   7.710   2.128   8.317 -0.1573  0.6273 -1.0550
11392SOL    HW136044   7.762   2.070   8.372 -1.3775 -0.3025 -0.8288
11392SOL    HW236045   7.651   2.069   8.269  0.2201  1.4835 -2.6606
11393SOL     OW36046   0.262   2.757   2.449  0.3107  0.7683 -0.1598
11393SOL    HW136047   0.225   2.801   2.525 -0.8459  0.9329 -0.7821
11393SOL    HW236048   0.268   2.665   2.475  0.1956  0.8676  0.2233
11394SOL     OW36049   8.656   7.516   1.670  0.2579  0.4189 -0.5298
11394SOL    HW136050   8.722   7.499   1.603 -0.9054 -0.8094 -1.4092
11394SOL    HW236051   8.587   7.564   1.625  0.7614  2.2408  0.5236
11395SOL     OW36052   4.243   8.289   4.345  0.3723  0.5173 -0.2002
11395SOL    HW136053   4.337   8.297   4.332  0.0890  0.5986 -3.0031
11395SOL    HW236054   4.225   8.336   4.426  2.7585  0.2485  0.5442
11396SOL     OW36055   8.170   5.671   4.261  0.3857 -0.1675  0.0719
11396SOL    HW136056   8.164   5.739   4.194  0.8068  0.3084  0.5126
11396SOL    HW236057   8.143   5.591   4.216  3.7016 -0.5267 -1.6022
11397SOL     OW36058   1.898   5.026   6.795  0.0316 -0.2927 -0.3582
11397SOL    HW136059   1.948   4.966   6.740 -2.7753 -1.9769 -1.2485
11397SOL    HW236060   1.956   5.044   6.869  1.6432 -2.7752 -0.8948
11398SOL     OW36061   4.649   6.316   3.049 -0.4207 -0.0980  0.3832
11398SOL    HW136062   4.736   6.308   3.088  0.1403  0.8994 -0.5823
11398SOL    HW236063   4.654   6.267   2.967 -1.4030 -1.6876  1.2261
11399SOL     OW36064   3.788   2.678   1.326  0.1830  0.3706  0.8262
11399SOL    HW136065   3.796   2.659   1.419  0.3975  0.9347  0.9264
11399SOL    HW236066   3.777   2.773   1.321  0.3002  0.3636  0.2688
11400SOL     OW36067   5.055   3.281   8.349  0.1623 -0.5565  0.3212
11400SOL    HW136068   4.976   3.303   8.300  0.6598  0.6857  0.0440
11400SOL    HW236069   5.023   3.259   8.437 -0.5619 -0.9907 -0.0431
11401SOL     OW36070   0.706   2.040   4.231  0.3786  0.9469 -0.0344
11401SOL    HW136071   0.651   2.046   4.153  0.0804  1.5351  0.2117
11401SOL    HW236072   0.660   1.978   4.288  1.3287 -0.5988 -0.8944
11402SOL     OW36073   5.921   1.426   3.099  0.7251 -0.3110  0.1233
11402SOL    HW136074   5.909   1.405   3.007  1.2356  0.5523 -0.1515
11402SOL    HW236075   5.835   1.410   3.139  0.1390  0.5640 -0.7516
11403SOL     OW36076   1.343   8.267   2.024 -0.7954 -0.0480  0.1030
11403SOL    HW136077   1.288   8.214   2.081  1.4216 -1.1964  1.2918
11403SOL    HW236078   1.402   8.204   1.983  1.4960  1.3761  1.0535
11404SOL     OW36079   5.332   4.776   8.307 -0.0291  0.4377 -0.0921
11404SOL    HW136080   5.345   4.774   8.402  2.3641 -0.6123 -0.3755
11404SOL    HW236081   5.357   4.865   8.281  2.8094 -0.2781 -0.0851
11405SOL     OW36082   8.517   2.354   8.948  0.5065  0.3895 -0.1566
11405SOL    HW136083   8.499   2.264   8.919 -0.5367  0.2260  0.9350
11405SOL    HW236084   8.472   2.409   8.884 -1.6501  0.0366  0.9812
11406SOL     OW36085   3.032   3.246   0.983  0.1769 -0.3020 -0.7062
11406SOL    HW136086   3.029   3.277   1.073  0.7743 -1.0952 -0.3969
11406SOL    HW236087   3.084   3.313   0.937 -0.8563  0.5471 -0.6648
11407SOL     OW36088   7.057   5.118   8.825  0.5898 -0.4090 -0.2574
11407SOL    HW136089   6.964   5.104   8.842  0.7876 -0.4998  0.7947
11407SOL    HW236090   7.071   5.211   8.840  0.7992 -0.5178  0.2205
11408SOL     OW36091   6.080   2.264   8.524  0.0367  0.2169  0.0860
11408SOL    HW136092   6.101   2.348   8.564 -1.1580 -0.2101  1.7161
11408SOL    HW236093   6.113   2.199   8.586 -1.6201 -0.4701  0.2903
11409SOL     OW36094   6.541   8.927   3.236 -0.4979 -0.1386  0.2736
11409SOL    HW136095   6.535   9.023   3.231 -1.9029 -0.2677 -2.5718
11409SOL    HW236096   6.463   8.901   3.285 -0.8430  0.1262 -0.1268
11410SOL     OW36097   8.086   1.865   2.663  0.1858  0.2169  0.5920
11410SOL    HW136098   8.157   1.922   2.694  1.2147 -0.0377 -1.1330
11410SOL    HW236099   8.083   1.881   2.569 -1.1619 -0.7886  0.4471
11411SOL     OW36100   1.925   5.845   2.408  0.2990 -0.4408 -0.2028
11411SOL    HW136101   1.882   5.760   2.401 -1.5351  0.1602  2.2472
11411SOL    HW236102   1.853   5.907   2.421  1.6845  1.2741 -0.3418
11412SOL     OW36103   7.211   5.580   7.591  0.1248  0.2569  0.6769
11412SOL    HW136104   7.144   5.638   7.553 -1.5294  0.0795  3.0351
11412SOL    HW236105   7.176   5.492   7.578  0.1758  0.1234  1.4196
11413SOL     OW36106   7.135   5.755   8.784  0.4575  0.1760 -0.0658
11413SOL    HW136107   7.221   5.792   8.805  0.2971  0.2964  0.3996
11413SOL    HW236108   7.099   5.730   8.869 -0.1591  0.5602 -0.2098
11414SOL     OW36109   8.795   3.972   5.917  0.6875 -0.0762  0.5323
11414SOL    HW136110   8.727   4.037   5.902 -0.2573 -0.9642  0.7849
11414SOL    HW236111   8.869   4.000   5.863 -0.1717  0.4766 -0.3841
11415SOL     OW36112   4.610   7.354   8.240 -0.0027 -0.2908  0.1002
11415SOL    HW136113   4.684   7.302   8.272  0.2577  0.2795  0.4346
11415SOL    HW236114   4.579   7.306   8.164  0.5316 -0.6902  0.1252
11416SOL     OW36115   4.566   0.413   4.367 -0.2326 -0.6655  0.2726
11416SOL    HW136116   4.550   0.333   4.318 -2.7941 -0.5564  0.7592
11416SOL    HW236117   4.480   0.436   4.403  0.9905  0.7269  2.5489
11417SOL     OW36118   3.998   6.252   3.676  0.3192 -0.5520 -0.4511
11417SOL    HW136119   3.964   6.340   3.657 -0.0412 -0.6565 -0.2844
11417SOL    HW236120   3.942   6.219   3.746  0.5846 -0.8362 -0.3735
11418SOL     OW36121   7.915   0.431   8.030  0.1319  0.2215 -0.0976
11418SOL    HW136122   7.906   0.506   7.973 -0.0658  0.5334  0.3397
11418SOL    HW236123   8.006   0.403   8.019  0.5720  1.2999  0.6819
11419SOL     OW36124   0.155   1.531   6.420 -0.2552  0.0144 -0.2988
11419SOL    HW136125   0.162   1.439   6.394 -2.3698 -0.2827  0.0619
11419SOL    HW236126   0.138   1.528   6.514 -0.5077  0.7816 -0.3178
11420SOL     OW36127   3.230   5.062   7.892 -0.3399 -0.3314 -0.0183
11420SOL    HW136128   3.249   5.044   7.799 -1.1417 -0.4242 -0.1694
11420SOL    HW236129   3.135   5.070   7.896 -0.2635  0.3123  0.6927
11421SOL     OW36130   8.143   2.323   5.151  0.0816 -0.9834  0.6196
11421SOL    HW136131   8.174   2.243   5.109  0.5421 -1.2169  1.3764
11421SOL    HW236132   8.164   2.311   5.244 -3.0398 -1.5629  1.3721
11422SOL     OW36133   3.153   1.207   6.207 -0.0418  0.2241  0.1119
11422SOL    HW136134   3.184   1.137   6.149  1.7086  2.0367 -1.2558
11422SOL    HW236135   3.226   1.223   6.266 -1.3408 -0.7011  2.0548
11423SOL     OW36136   2.123   2.620   4.738  0.2031  0.8819 -0.6400
11423SOL    HW136137   2.197   2.568   4.707  0.7357  1.6508 -0.6802
11423SOL    HW236138   2.107   2.588   4.827 -0.4286 -0.3629 -1.1731
11424SOL     OW36139   3.120   6.677   2.259 -0.4211 -0.1007  0.7532
11424SOL    HW136140   3.055   6.663   2.190 -1.0535 -0.5890  1.4316
11424SOL    HW236141   3.197   6.712   2.213 -1.3646  1.0840  0.0116
11425SOL     OW36142   1.652   7.442   6.141 -0.0827  0.0016 -0.0544
11425SOL    HW136143   1.658   7.348   6.159  0.7354  0.1101  0.2910
11425SOL    HW236144   1.732   7.479   6.179  0.1044  0.7013 -1.0829
11426SOL     OW36145   2.841   8.536   0.475 -0.2114 -0.2096  0.0627
11426SOL    HW136146   2.936   8.524   0.467 -0.0256 -0.5030  2.0601
11426SOL    HW236147   2.809   8.535   0.385  1.4324 -2.2364 -0.5961
11427SOL     OW36148   8.638   7.811   5.087  0.0358  0.3785  0.2947
11427SOL    HW136149   8.717   7.762   5.062 -0.5128 -1.9250  2.5708
11427SOL    HW236150   8.591   7.824   5.005  2.0477  0.4403 -0.9067
11428SOL     OW36151   5.568   0.965   7.212  0.2427  0.1002  0.5324
11428SOL    HW136152   5.616   0.887   7.185 -0.3702  0.3622 -1.4513
11428SOL    HW236153   5.623   1.006   7.278  2.0507 -0.3736 -0.6241
11429SOL     OW36154   5.312   7.271   1.289  0.1823 -0.3485 -0.3937
11429SOL    HW136155   5.357   7.321   1.357 -0.9864  1.0838 -0.6123
11429SOL    HW236156   5.307   7.182   1.324  0.1080  0.2277  1.1475
11430SOL     OW36157   4.903   8.269   2.673 -0.3381  0.0777 -0.6642
11430SOL    HW136158   4.860   8.185   2.687 -0.1602 -0.2435 -1.9271
11430SOL    HW236159   4.867   8.326   2.741  0.6633 -1.3817  1.1632
11431SOL     OW36160   2.020   2.450   3.486  0.4092 -0.0149 -0.3586
11431SOL    HW136161   2.094   2.392   3.464  0.9687  0.7815 -0.6159
11431SOL    HW236162   2.051   2.503   3.559 -0.3286 -0.4552  0.2933
11432SOL     OW36163   3.105   2.229   6.127  0.4248 -0.2410 -0.3603
11432SOL    HW136164   3.165   2.163   6.090  0.6690  0.6063 -1.5367
11432SOL    HW236165   3.136   2.312   6.091 -0.2073  0.4611  0.6764
11433SOL     OW36166   3.246   0.696   2.082 -0.5994 -0.2110  0.0158
11433SOL    HW136167   3.214   0.615   2.122  1.8719 -0.7740  1.0953
11433SOL    HW236168   3.299   0.737   2.151 -1.7143  2.3171 -0.5356
11434SOL     OW36169   0.243   4.662   7.236 -0.3065 -0.3087  0.5583
11434SOL    HW136170   0.212   4.694   7.151  1.1484 -2.2348 -0.8179
11434SOL    HW236171   0.165   4.661   7.292 -1.0942  2.0214 -0.3770
11435SOL     OW36172   1.058   3.881   4.558 -0.5502 -0.1992 -0.6991
11435SOL    HW136173   1.053   3.941   4.632 -0.9966 -1.3633  0.2338
11435SOL    HW236174   1.077   3.938   4.483  1.8757  0.8301  0.5538
11436SOL     OW36175   3.253   0.807   8.980 -0.6641  0.6109 -0.1047
11436SOL    HW136176   3.228   0.900   8.982 -2.0681  0.3460 -2.0014
11436SOL    HW236177   3.241   0.781   8.889  3.7824 -0.4517 -0.6183
11437SOL     OW36178   4.838   0.717   7.723 -0.4763  0.0298  0.2978
11437SOL    HW136179   4.797   0.782   7.780 -0.0509  1.2625 -0.7436
11437SOL    HW236180   4.767   0.685   7.668 -0.2400  1.7238 -1.0976
11438SOL     OW36181   6.925   5.998   2.765 -0.5706  0.4976 -0.1361
11438SOL    HW136182   6.918   5.967   2.674 -0.5368 -0.7689  0.2793
11438SOL    HW236183   6.965   6.085   2.757  0.5714 -0.0954 -1.2614
11439SOL     OW36184   4.698   5.000   7.519 -0.7768 -0.6482 -0.5712
11439SOL    HW136185   4.609   5.034   7.508 -0.7042 -0.7691 -1.7524
11439SOL    HW236186   4.755   5.072   7.492 -0.5104 -0.5713  0.1861
11440SOL     OW36187   6.432   5.591   8.094  0.1647  0.6111  0.0303
11440SOL    HW136188   6.343   5.613   8.122  0.0170  1.0624 -0.7512
11440SOL    HW236189   6.480   5.579   8.175 -0.9841 -1.2884  0.5007
11441SOL     OW36190   3.474   5.528   3.688  0.0236  0.3292  0.2143
11441SOL    HW136191   3.426   5.546   3.608  0.6024  1.9157  0.1921
11441SOL    HW236192   3.406   5.519   3.755 -0.4589 -0.9890 -0.4304
11442SOL     OW36193   0.061   8.646   1.947  0.4372  0.5861  0.3041
11442SOL    HW136194   0.023   8.617   2.031  0.4666  0.9147  0.4315
11442SOL    HW236195   0.149   8.609   1.947  0.5715  0.9017  0.5915
11443SOL     OW36196   5.662   7.779   4.187  0.0145 -0.2524  0.3844
11443SOL    HW136197   5.690   7.867   4.213  0.1057 -0.6941  1.8700
11443SOL    HW236198   5.723   7.720   4.232  1.5612 -1.0779 -2.5715
11444SOL     OW36199   1.365   2.849   0.331 -0.2303  0.6745 -1.0180
11444SOL    HW136200   1.316   2.882   0.255  0.4069  0.9113 -1.3352
11444SOL    HW236201   1.341   2.909   0.402 -1.0633  0.2724 -0.9462
11445SOL     OW36202   0.679   0.348   6.127 -0.6987  0.0760  0.2203
11445SOL    HW136203   0.597   0.349   6.078 -0.4167 -1.0377 -0.2961
11445SOL    HW236204   0.737   0.407   6.077 -0.8957  0.1602  0.0884
11446SOL     OW36205   4.400   2.476   8.968  0.0756 -0.1494  0.0542
11446SOL    HW136206   4.315   2.447   9.001  0.8782 -1.8421  0.7768
11446SOL    HW236207   4.391   2.571   8.959 -1.9251 -0.3001 -0.0653
11447SOL     OW36208   6.671   4.894   3.754  0.1978  0.0163  0.7057
11447SOL    HW136209   6.627   4.862   3.675  0.2051  0.9460  0.3225
11447SOL    HW236210   6.702   4.814   3.797 -1.2593 -0.6098  0.6408
11448SOL     OW36211   6.218   2.654   8.623  0.1248 -0.1397  0.2614
11448SOL    HW136212   6.225   2.591   8.695 -0.8735 -0.6367 -0.0611
11448SOL    HW236213   6.263   2.732   8.655 -1.0172 -0.0548  1.7589
11449SOL     OW36214   5.273   3.585   6.137 -0.1474 -0.5056 -0.1799
11449SOL    HW136215   5.280   3.548   6.225  1.3011 -0.2227 -0.1573
11449SOL    HW236216   5.275   3.509   6.079  1.3792 -0.5734 -0.0681
11450SOL     OW36217   0.245   8.928   6.934  0.0861  0.1802  0.2524
11450SOL    HW136218   0.299   8.878   6.873 -0.2528 -1.8694  1.5357
11450SOL    HW236219   0.245   9.017   6.898 -1.1377 -1.1283 -3.4393
11451SOL     OW36220   3.168   7.046   1.978 -0.6272  1.1477  0.1023
11451SOL    HW136221   3.216   7.115   2.024 -1.4724  1.4832  0.5005
11451SOL    HW236222   3.207   6.964   2.009  0.7939  1.4530 -0.8328
11452SOL     OW36223   0.704   6.510   6.717 -0.2097  0.0005  0.2178
11452SOL    HW136224   0.729   6.513   6.809  2.0876 -0.7175 -0.3354
11452SOL    HW236225   0.638   6.579   6.708  0.4044  0.8922  2.1285
11453SOL     OW36226   8.794   8.578   5.087 -0.0202  0.2851 -0.1829
11453SOL    HW136227   8.766   8.544   5.172 -0.2097 -0.4329 -0.5268
11453SOL    HW236228   8.885   8.605   5.100  0.2008 -0.5467  0.0489
11454SOL     OW36229   7.064   5.945   2.997  0.3040 -0.0522  0.4343
11454SOL    HW136230   7.051   5.965   2.904 -0.3665  0.6774  0.6758
11454SOL    HW236231   7.146   5.989   3.019 -0.8416  2.0524  0.8070
11455SOL     OW36232   7.423   7.734   7.657 -0.3212 -0.3611  0.1627
11455SOL    HW136233   7.358   7.694   7.599  0.8901 -1.9057 -0.2088
11455SOL    HW236234   7.493   7.762   7.598 -0.2442  0.4972  0.6442
11456SOL     OW36235   7.697   1.230   1.532 -0.2175  0.6712  0.1564
11456SOL    HW136236   7.732   1.313   1.565 -2.4222  1.2103  1.3078
11456SOL    HW236237   7.653   1.253   1.450 -0.9074  0.6811  0.5215
11457SOL     OW36238   5.564   3.415   7.596  0.5136 -0.3313  0.1909
11457SOL    HW136239   5.642   3.450   7.553  0.5587  0.5332  0.9457
11457SOL    HW236240   5.524   3.358   7.530  1.0922  0.2099 -0.6545
11458SOL     OW36241   0.703   5.914   7.832  0.1281  0.0958  0.5386
11458SOL    HW136242   0.756   5.841   7.864  1.2243  0.1575 -1.0242
11458SOL    HW236243   0.741   5.991   7.874  1.3905  0.1510 -0.6446
11459SOL     OW36244   7.461   5.906   7.975 -0.3819  0.2228  0.1556
11459SOL    HW136245   7.413   5.979   8.014 -1.4949  0.0516 -0.8127
11459SOL    HW236246   7.473   5.844   8.047  3.2291  2.4930  1.8159
11460SOL     OW36247   5.905   8.114   1.480 -0.5902  0.4396  0.1713
11460SOL    HW136248   5.839   8.089   1.544  0.6126 -1.2884  0.8081
11460SOL    HW236249   5.857   8.121   1.397 -1.6701 -0.1815  0.7198
11461SOL     OW36250   2.468   5.221   2.126 -0.5828 -0.7423 -0.1947
11461SOL    HW136251   2.412   5.252   2.054 -0.6223 -0.7249 -0.1563
11461SOL    HW236252   2.431   5.135   2.149  0.0910 -1.2406 -0.9222
11462SOL     OW36253   1.365   6.279   1.739  0.4692 -0.5834  0.3255
11462SOL    HW136254   1.361   6.277   1.835  0.9265  0.5159  0.3899
11462SOL    HW236255   1.445   6.231   1.718 -0.4513 -2.2074  0.3806
11463SOL     OW36256   1.287   2.368   3.423 -0.0891  0.3572  0.0980
11463SOL    HW136257   1.342   2.399   3.351 -2.3997 -0.8259 -2.3938
11463SOL    HW236258   1.269   2.276   3.402 -2.2603  0.4470  1.1954
11464SOL     OW36259   3.839   1.863   0.461  0.3413  0.2911 -0.4509
11464SOL    HW136260   3.882   1.947   0.444  0.8469  0.1001 -0.1552
11464SOL    HW236261   3.824   1.862   0.555 -0.5482  0.4589 -0.5845
11465SOL     OW36262   7.321   3.369   1.409 -0.0292 -0.0169 -0.1541
11465SOL    HW136263   7.333   3.281   1.444 -1.8759 -1.5134 -3.0008
11465SOL    HW236264   7.382   3.423   1.461  0.6584 -2.7611  2.1634
11466SOL     OW36265   4.169   6.424   8.461  0.7706  0.7552  1.0982
11466SOL    HW136266   4.140   6.495   8.517 -0.1571 -0.2385  1.9169
11466SOL    HW236267   4.111   6.351   8.482  0.2966  0.3613 -1.2320
11467SOL     OW36268   2.403   8.907   1.077  0.1975 -0.4427 -0.7642
11467SOL    HW136269   2.335   8.955   1.030  1.3066  0.6279 -1.3408
11467SOL    HW236270   2.475   8.900   1.015  1.0140 -0.6301  0.1695
11468SOL     OW36271   3.809   0.336   1.118 -0.7823 -0.7153  0.0979
11468SOL    HW136272   3.809   0.429   1.141  0.1568 -0.6324 -0.1969
11468SOL    HW236273   3.830   0.291   1.200 -0.4902 -0.6235  0.0715
11469SOL     OW36274   3.672   3.013   7.387  0.3784  0.0579 -0.0527
11469SOL    HW136275   3.587   2.976   7.411 -0.8334  1.7166 -1.5339
11469SOL    HW236276   3.667   3.105   7.414  1.0229  0.6015 -1.6944
11470SOL     OW36277   1.115   5.198   0.893  0.0350 -0.3033 -0.0808
11470SOL    HW136278   1.030   5.200   0.849  0.7737 -0.7153 -1.6072
11470SOL    HW236279   1.176   5.164   0.827  1.2230 -0.9446  1.2750
11471SOL     OW36280   1.266   0.953   8.014  0.3646  0.4449  0.2000
11471SOL    HW136281   1.326   0.882   7.991  1.5876  1.0056  1.4815
11471SOL    HW236282   1.310   1.033   7.984  0.1993  0.8596  1.0261
11472SOL     OW36283   7.809   6.892   5.350 -0.5406 -0.0029 -1.0909
11472SOL    HW136284   7.843   6.968   5.303 -0.2305 -0.4366 -1.5675
11472SOL    HW236285   7.827   6.818   5.293 -0.3047 -0.5153 -0.3598
11473SOL     OW36286   6.573   3.481   4.034  1.0692  0.6934 -0.0679
11473SOL    HW136287   6.527   3.543   4.090  4.1945  2.5266  0.6839
11473SOL    HW236288   6.569   3.520   3.946  0.5204  0.4263 -0.1649
11474SOL     OW36289   8.669   4.884   1.006  0.0373  0.2094  0.0007
11474SOL    HW136290   8.583   4.845   1.022  0.3543 -0.7989 -0.7114
11474SOL    HW236291   8.732   4.813   1.020  0.5677  0.2171 -2.0178
11475SOL     OW36292   0.138   2.654   8.737  0.0904  0.4275  0.2098
11475SOL    HW136293   0.166   2.745   8.726 -0.2461  0.7331  1.7436
11475SOL    HW236294   0.063   2.658   8.795 -1.2559 -0.6801 -1.3569
11476SOL     OW36295   8.603   2.724   2.656  0.3456  0.0945  0.3114
11476SOL    HW136296   8.646   2.667   2.592  2.2178 -0.0324  1.5993
11476SOL    HW236297   8.647   2.808   2.646 -1.4866  0.9986 -0.6528
11477SOL     OW36298   7.034   3.721   8.119 -0.2558  0.0251 -0.7067
11477SOL    HW136299   7.120   3.757   8.139 -1.1050  0.8368  1.8561
11477SOL    HW236300   6.973   3.792   8.138 -1.7717 -1.7598  1.7190
11478SOL     OW36301   6.494   5.424   1.555  0.1979 -0.1181  0.0131
11478SOL    HW136302   6.566   5.457   1.608  0.4860  0.2563 -0.5963
11478SOL    HW236303   6.442   5.371   1.615 -0.7860  2.1299  1.2729
11479SOL     OW36304   6.730   8.968   7.007  0.1744  0.3167 -0.5647
11479SOL    HW136305   6.656   9.028   7.014  0.9039  1.2619 -0.7577
11479SOL    HW236306   6.803   9.023   6.980  1.8451  0.1345  3.0452
11480SOL     OW36307   0.316   2.007   3.355  0.7807 -0.0567  0.7126
11480SOL    HW136308   0.288   2.099   3.356 -2.4867 -0.9083  0.1500
11480SOL    HW236309   0.349   1.994   3.266  0.9200  0.4737  0.6811
11481SOL     OW36310   1.846   2.638   4.514 -0.5500 -0.2746  0.1117
11481SOL    HW136311   1.843   2.593   4.599 -1.4607 -0.5260 -0.0480
11481SOL    HW236312   1.770   2.695   4.514  0.0759  0.5878 -0.0838
11482SOL     OW36313   1.702   2.106   0.173 -0.3113  0.1967 -0.2004
11482SOL    HW136314   1.786   2.112   0.219 -0.8202  1.0057  0.6555
11482SOL    HW236315   1.718   2.043   0.103  0.5562 -0.8950  0.9305
11483SOL     OW36316   4.821   1.319   5.655 -0.0189 -0.1780 -0.1005
11483SOL    HW136317   4.740   1.362   5.685  0.3821  1.1427 -0.8488
11483SOL    HW236318   4.851   1.373   5.582  0.8635 -1.3904 -0.6540
11484SOL     OW36319   0.728   3.285   0.596  0.1643  0.5928 -0.2610
11484SOL    HW136320   0.669   3.310   0.667  0.4920  0.7738 -0.0498
11484SOL    HW236321   0.809   3.260   0.640  0.3804  0.7365 -0.5735
11485SOL     OW36322   6.441   8.488   5.820 -0.4384 -0.6628 -0.7393
11485SOL    HW136323   6.524   8.469   5.865  0.6977 -0.3442 -2.5920
11485SOL    HW236324   6.386   8.412   5.837  0.5068 -1.2176 -0.1003
11486SOL     OW36325   1.514   4.919   6.695  0.2364  0.4903 -0.3680
11486SOL    HW136326   1.445   4.875   6.744  1.2770 -0.2659  0.4564
11486SOL    HW236327   1.500   4.892   6.605  1.1037 -1.9502  0.1610
11487SOL     OW36328   6.775   7.515   7.483  0.3545 -0.2254  0.7057
11487SOL    HW136329   6.721   7.459   7.538 -1.0437 -0.2522 -0.6256
11487SOL    HW236330   6.765   7.480   7.395  0.6633  1.2089  0.0709
11488SOL     OW36331   6.415   2.473   6.385 -0.2957 -0.0247  0.4065
11488SOL    HW136332   6.418   2.417   6.463 -2.4417 -1.2152 -0.2887
11488SOL    HW236333   6.335   2.447   6.339 -1.7209  3.9533  0.2247
11489SOL     OW36334   0.327   5.450   1.366 -0.0744  0.0472 -0.3639
11489SOL    HW136335   0.311   5.539   1.397  1.1623 -0.7144  2.8571
11489SOL    HW236336   0.419   5.450   1.341 -0.4053 -0.0428 -1.6604
11490SOL     OW36337   5.410   7.243   4.967 -1.1601  0.4993 -0.4089
11490SOL    HW136338   5.419   7.302   4.892 -0.9302  1.1855  0.1402
11490SOL    HW236339   5.450   7.291   5.040 -1.3260 -0.1762  0.1410
11491SOL     OW36340   3.526   4.029   4.964 -0.4444 -0.2731  0.0773
11491SOL    HW136341   3.473   4.024   5.043 -0.2176  0.9153  0.3213
11491SOL    HW236342   3.582   4.106   4.977 -0.8572  0.3296 -1.5132
11492SOL     OW36343   6.444   5.263   1.797 -0.6321  0.9822 -0.3121
11492SOL    HW136344   6.464   5.346   1.840 -0.7634  1.8486 -1.8594
11492SOL    HW236345   6.353   5.246   1.818 -0.3654  0.7853  0.7151
11493SOL     OW36346   6.801   8.453   6.390 -0.3818  0.2783 -0.3098
11493SOL    HW136347   6.856   8.485   6.319  0.4345  0.1456  0.2572
11493SOL    HW236348   6.855   8.461   6.468 -0.8333 -0.7230  0.1215
11494SOL     OW36349   4.017   6.161   2.871  0.0744 -0.6395 -0.2096
11494SOL    HW136350   3.973   6.087   2.912 -0.4109 -1.6552 -2.4247
11494SOL    HW236351   3.978   6.238   2.913 -1.0374 -1.5851  0.5654
11495SOL     OW36352   5.032   1.125   2.944 -0.3896 -0.2301  0.0752
11495SOL    HW136353   4.972   1.131   3.019 -2.5076 -0.5152 -1.5009
11495SOL    HW236354   5.034   1.032   2.923 -1.7293  0.0778 -1.6224
11496SOL     OW36355   7.854   1.038   4.939  0.0273 -0.0634 -0.1157
11496SOL    HW136356   7.855   1.105   5.007  0.1252 -1.7725  1.6604
11496SOL    HW236357   7.775   1.055   4.888  0.5772  1.9669 -0.3697
11497SOL     OW36358   1.872   0.905   2.453  0.2875 -0.3768  0.2729
11497SOL    HW136359   1.806   0.888   2.521  1.0354 -0.3951  1.0148
11497SOL    HW236360   1.942   0.951   2.499  0.1703  0.9514 -0.8059
11498SOL     OW36361   8.000   2.934   2.079 -0.1624  0.0560  0.1508
11498SOL    HW136362   7.905   2.921   2.088 -0.2207  0.1687 -0.2738
11498SOL    HW236363   8.036   2.908   2.164 -0.3329 -2.2140 -0.4084
11499SOL     OW36364   0.833   3.647   8.641  0.2534  0.3315 -0.0170
11499SOL    HW136365   0.913   3.606   8.608  0.5628 -0.5104  1.6915
11499SOL    HW236366   0.801   3.587   8.708 -0.1442  2.1426  1.4819
11500SOL     OW36367   0.783   4.341   4.257  0.0721  0.1900  0.5425
11500SOL    HW136368   0.854   4.304   4.204  1.3667  1.0833  1.5665
11500SOL    HW236369   0.730   4.266   4.283  0.3448 -0.4431 -0.6639
11501SOL     OW36370   3.864   2.052   7.314  0.3178  0.0947  0.6900
11501SOL    HW136371   3.854   1.982   7.379  0.5687 -1.0917 -0.5085
11501SOL    HW236372   3.777   2.093   7.310  0.3756  0.3738  1.9606
11502SOL     OW36373   8.264   8.474   2.814 -0.3203  0.5000  0.0159
11502SOL    HW136374   8.284   8.396   2.763  2.4332 -0.2823  2.0779
11502SOL    HW236375   8.332   8.537   2.790  2.0730 -0.4378  3.5928
11503SOL     OW36376   0.450   1.012   6.754 -0.1236  0.0015  0.2440
11503SOL    HW136377   0.388   0.960   6.806  1.4570 -0.8369  1.3777
11503SOL    HW236378   0.449   1.099   6.796 -2.3260  0.8223 -1.2936
11504SOL     OW36379   1.710   0.379   1.416 -0.0760 -0.7932  0.2745
11504SOL    HW136380   1.667   0.458   1.384  1.7199 -0.1417 -0.6553
11504SOL    HW236381   1.740   0.402   1.504  0.2867 -0.4920  0.0737
11505SOL     OW36382   8.632   1.600   4.894 -0.0651  0.1490  0.0585
11505SOL    HW136383   8.591   1.658   4.830 -0.2934  1.0083  0.9664
11505SOL    HW236384   8.573   1.600   4.969  0.2743 -0.7207  0.3438
11506SOL     OW36385   1.594   1.276   8.722  0.1162  0.0482  0.5247
11506SOL    HW136386   1.553   1.191   8.705 -0.5143  0.8420 -2.6035
11506SOL    HW236387   1.523   1.339   8.712  1.2531  1.1669 -1.0898
11507SOL     OW36388   5.832   4.131   8.495  0.1456  0.1318 -0.1329
11507SOL    HW136389   5.827   4.169   8.408  0.5962 -2.1781 -1.2456
11507SOL    HW236390   5.903   4.066   8.489  0.0286 -0.2589  1.8779
11508SOL     OW36391   3.944   1.790   4.138 -0.2030 -0.0825 -0.4842
11508SOL    HW136392   3.918   1.741   4.217  1.3914 -0.7784 -0.3501
11508SOL    HW236393   3.970   1.722   4.076  2.2609  0.5374 -0.2228
11509SOL     OW36394   4.050   0.158   4.015 -0.0941 -0.3355 -0.2413
11509SOL    HW136395   4.056   0.127   4.106 -1.0041 -0.1402 -0.1055
11509SOL    HW236396   3.958   0.150   3.993  0.2336 -1.1442 -1.4369
11510SOL     OW36397   4.403   4.470   6.821 -0.4492 -0.0903 -0.2159
11510SOL    HW136398   4.389   4.439   6.732 -1.4263 -2.3048  0.6434
11510SOL    HW236399   4.420   4.391   6.872  0.8869  1.1969  1.4419
11511SOL     OW36400   7.342   0.451   3.594 -0.2073 -0.1257 -0.5719
11511SOL    HW136401   7.335   0.542   3.622  0.4144 -0.0504 -0.6457
11511SOL    HW236402   7.431   0.443   3.559 -0.1457 -0.8395 -0.2813
11512SOL     OW36403   7.245   8.317   4.493  0.1188 -0.6554  0.0391
11512SOL    HW136404   7.173   8.341   4.434  1.4890 -0.5198 -1.6757
11512SOL    HW236405   7.323   8.323   4.438  1.5446 -0.0689  2.0304
11513SOL     OW36406   4.859   6.097   1.188  0.1886  0.0780  0.3363
11513SOL    HW136407   4.828   6.006   1.187 -0.0691  0.1581 -1.0268
11513SOL    HW236408   4.780   6.150   1.184  0.3733  0.3443  0.1644
11514SOL     OW36409   8.121   5.427   8.585 -0.1033  0.0407 -0.1794
11514SOL    HW136410   8.045   5.413   8.642  0.2904 -0.6249  0.1929
11514SOL    HW236411   8.084   5.442   8.498 -0.6668 -0.0887  0.0349
11515SOL     OW36412   3.156   2.272   8.524 -0.2377 -0.1132 -0.0577
11515SOL    HW136413   3.206   2.305   8.449  1.0183  0.9580  1.1980
11515SOL    HW236414   3.178   2.332   8.595 -1.0526 -1.3665  1.2923
11516SOL     OW36415   4.730   8.521   6.103 -0.4119  0.2395 -0.3478
11516SOL    HW136416   4.645   8.556   6.129 -0.0608 -0.0711  1.3689
11516SOL    HW236417   4.712   8.432   6.073 -0.5866 -0.2915  1.2211
11517SOL     OW36418   5.992   7.395   6.122 -0.2727 -0.1150  0.2905
11517SOL    HW136419   6.008   7.302   6.140  1.2476 -0.1462 -0.9366
11517SOL    HW236420   5.987   7.399   6.026  1.8965  1.3317  0.1695
11518SOL     OW36421   7.275   0.242   7.183  0.0581 -0.0824  0.1765
11518SOL    HW136422   7.210   0.213   7.247 -0.2033  0.2038  0.0442
11518SOL    HW236423   7.228   0.242   7.099  0.1106  0.5145  0.1406
11519SOL     OW36424   7.039   4.236   8.473  0.3040 -0.2647 -0.2240
11519SOL    HW136425   7.085   4.215   8.554  0.7118 -1.2752 -0.7062
11519SOL    HW236426   6.985   4.159   8.455  0.2062 -0.0426 -0.9015
11520SOL     OW36427   4.700   1.744   0.127  0.7143 -0.6263  0.8035
11520SOL    HW136428   4.670   1.678   0.064  1.1575  0.0074 -0.0912
11520SOL    HW236429   4.792   1.758   0.105  0.1241  1.8527 -0.4520
11521SOL     OW36430   1.239   2.607   8.165 -0.2752 -0.0224  0.2805
11521SOL    HW136431   1.193   2.686   8.136  0.2633  0.6312  1.1685
11521SOL    HW236432   1.231   2.608   8.260 -0.0169 -0.8954  0.3208
11522SOL     OW36433   8.260   7.565   5.018  0.2238 -0.6690 -0.2790
11522SOL    HW136434   8.165   7.573   5.031  0.3113  0.8638 -0.3513
11522SOL    HW236435   8.279   7.473   5.037 -1.2976 -1.0546 -0.4307
11523SOL     OW36436   4.737   8.027   2.650 -0.0761 -0.6927  0.2320
11523SOL    HW136437   4.705   7.998   2.735 -1.5985 -1.1964 -0.4776
11523SOL    HW236438   4.709   7.959   2.589  1.2650 -0.5010 -0.6389
11524SOL     OW36439   3.787   5.369   7.233 -0.0485 -0.0462 -0.5180
11524SOL    HW136440   3.754   5.286   7.201 -1.2871  0.8354 -1.6461
11524SOL    HW236441   3.830   5.348   7.316 -3.1055 -1.3737  0.8926
11525SOL     OW36442   7.805   8.084   8.364 -0.0809 -0.2183 -0.1571
11525SOL    HW136443   7.770   8.153   8.308 -0.6228 -0.8673 -0.6372
11525SOL    HW236444   7.758   8.096   8.447 -0.9712 -0.6643 -0.5833
11526SOL     OW36445   3.151   3.661   2.230 -0.1934 -0.1483  0.4161
11526SOL    HW136446   3.060   3.634   2.223 -0.5017  1.0157 -0.3388
11526SOL    HW236447   3.161   3.731   2.165  1.1767 -0.0983  0.6381
11527SOL     OW36448   0.595   7.493   7.598 -0.0829  0.6829  0.1709
11527SOL    HW136449   0.543   7.544   7.536  1.1917  3.9936  1.6208
11527SOL    HW236450   0.682   7.490   7.559 -0.0561 -0.1444  0.2790
11528SOL     OW36451   6.181   1.768   3.456 -0.5872  0.4767 -0.7188
11528SOL    HW136452   6.234   1.737   3.530 -0.2828  1.5131 -0.4745
11528SOL    HW236453   6.096   1.726   3.468 -0.0057 -0.7324 -0.7724
11529SOL     OW36454   3.768   7.240   2.275  0.5549 -0.6689 -0.2277
11529SOL    HW136455   3.762   7.335   2.267 -1.4089 -0.6873  0.4545
11529SOL    HW236456   3.805   7.211   2.192  0.7386  0.6392 -0.6283
11530SOL     OW36457   8.667   0.600   0.419  0.1257 -0.0370  0.0798
11530SOL    HW136458   8.682   0.510   0.448  0.6233 -0.6998 -2.0923
11530SOL    HW236459   8.579   0.621   0.451 -0.3650 -1.6150 -0.1600
11531SOL     OW36460   3.084   4.577   5.330 -0.2425  0.1054  0.2610
11531SOL    HW136461   3.164   4.630   5.332 -0.0269 -0.2317  0.5999
11531SOL    HW236462   3.093   4.524   5.250  0.9798 -1.6139  1.4631
11532SOL     OW36463   6.961   4.269   4.397  0.0031  0.0750 -0.1945
11532SOL    HW136464   6.976   4.321   4.476  2.4121 -0.1251 -0.4439
11532SOL    HW236465   6.929   4.185   4.430 -0.7980  0.5937  0.4143
11533SOL     OW36466   8.027   1.938   6.657 -0.7399  0.2248  0.0634
11533SOL    HW136467   7.953   1.920   6.600 -1.9833  3.8047  0.3091
11533SOL    HW236468   8.099   1.957   6.598 -0.5326 -1.3023 -0.2014
11534SOL     OW36469   5.128   8.570   1.269 -0.2293  0.6087  0.3479
11534SOL    HW136470   5.043   8.612   1.277 -0.3023  0.5998 -0.2986
11534SOL    HW236471   5.135   8.548   1.176 -0.4259 -1.3255  0.7438
11535SOL     OW36472   2.435   5.117   5.522  0.2922  0.3621 -0.1868
11535SOL    HW136473   2.424   5.166   5.603  0.4933  2.4196 -1.3440
11535SOL    HW236474   2.459   5.029   5.551  1.7661  1.3701  1.9688
11536SOL     OW36475   6.761   8.445   7.032 -0.3824 -0.0009 -0.1329
11536SOL    HW136476   6.808   8.469   6.951 -2.8027  0.1625 -1.5758
11536SOL    HW236477   6.814   8.483   7.102  1.0802  1.0483 -1.7150
11537SOL     OW36478   5.116   6.931   5.243  0.4166  0.5657  0.1737
11537SOL    HW136479   5.072   6.859   5.198 -0.6929  1.7955 -0.7979
11537SOL    HW236480   5.063   6.947   5.321  0.7709  0.2222  0.4891
11538SOL     OW36481   6.456   5.218   8.941 -0.1144  0.6929 -0.1864
11538SOL    HW136482   6.391   5.273   8.985 -1.9819 -1.5978  0.1042
11538SOL    HW236483   6.433   5.129   8.966  2.3942 -0.3183 -1.1502
11539SOL     OW36484   2.964   5.640   1.283 -0.5882  0.0694  0.0553
11539SOL    HW136485   3.038   5.588   1.314 -0.8561  0.0994  0.7636
11539SOL    HW236486   2.996   5.730   1.285 -0.3405  0.0000 -0.5416
11540SOL     OW36487   6.926   4.893   7.647 -0.2390  0.4303  0.2600
11540SOL    HW136488   6.999   4.927   7.595 -0.3263  1.5815  0.8461
11540SOL    HW236489   6.958   4.893   7.737 -0.6138 -0.0501  0.4002
11541SOL     OW36490   3.105   2.679   4.400  0.0257 -0.4251 -0.4052
11541SOL    HW136491   3.129   2.709   4.313  1.5716 -0.5528 -0.0608
11541SOL    HW236492   3.025   2.629   4.387  0.1266 -0.2792 -1.7267
11542SOL     OW36493   6.204   6.796   0.556  0.0762 -0.5762 -0.0464
11542SOL    HW136494   6.138   6.843   0.505 -1.4944 -1.2735  1.2606
11542SOL    HW236495   6.276   6.858   0.566 -0.9103  0.6741 -0.4243
11543SOL     OW36496   3.161   0.405   1.048 -0.4065 -0.2327 -0.4486
11543SOL    HW136497   3.113   0.328   1.016 -0.7724 -1.0790  1.9232
11543SOL    HW236498   3.093   0.464   1.080 -0.0179 -0.2392  0.4280
11544SOL     OW36499   1.520   1.780   8.349 -0.7325  0.3258 -0.4066
11544SOL    HW136500   1.451   1.714   8.356  0.8691 -1.3722  0.5012
11544SOL    HW236501   1.553   1.770   8.260 -1.6566  1.1681 -0.8542
11545SOL     OW36502   1.425   2.117   4.773  0.2515 -0.0591  0.4651
11545SOL    HW136503   1.493   2.183   4.765 -1.7323  2.3028  1.8425
11545SOL    HW236504   1.458   2.056   4.838  1.7585 -0.0041 -0.2057
11546SOL     OW36505   3.319   6.081   0.344  0.2159  0.1158  0.0010
11546SOL    HW136506   3.362   6.033   0.414 -0.8165 -0.7938  0.0331
11546SOL    HW236507   3.373   6.159   0.332  0.8664 -0.1190  1.2361
11547SOL     OW36508   2.036   4.063   3.202  0.4064  0.2382  0.1441
11547SOL    HW136509   2.109   4.003   3.188  0.8371  0.9447 -0.7134
11547SOL    HW236510   1.996   4.033   3.284  0.0090 -1.8185 -0.7517
11548SOL     OW36511   0.296   3.467   3.767 -0.1500 -0.3053 -0.4896
11548SOL    HW136512   0.275   3.514   3.848  0.7810  0.6700 -0.7946
11548SOL    HW236513   0.301   3.375   3.793 -1.3635 -0.1819  0.2485
11549SOL     OW36514   2.356   2.904   5.235  0.2645  0.0573  0.1480
11549SOL    HW136515   2.384   2.895   5.326 -0.4039  0.5275  0.4100
11549SOL    HW236516   2.422   2.857   5.184  1.2577  0.7514  0.7742
11550SOL     OW36517   7.949   8.331   1.187 -0.4044 -0.1234 -0.1329
11550SOL    HW136518   8.040   8.360   1.180 -0.5654  0.1531 -1.1964
11550SOL    HW236519   7.897   8.410   1.176 -0.7944 -0.4518 -0.6878
11551SOL     OW36520   3.657   2.522   4.128  0.2707  0.3164 -0.1151
11551SOL    HW136521   3.681   2.508   4.036  0.2565 -0.1626 -0.0492
11551SOL    HW236522   3.738   2.505   4.177  0.0264 -0.4297  0.0376
11552SOL     OW36523   3.847   5.173   5.562  0.2166 -0.1507  0.0301
11552SOL    HW136524   3.868   5.235   5.632 -1.2786 -1.6359  1.8908
11552SOL    HW236525   3.772   5.211   5.517 -0.5396 -0.4661  1.0056
11553SOL     OW36526   4.152   4.654   2.386 -0.3087  0.2521 -0.4703
11553SOL    HW136527   4.118   4.696   2.464  0.8333  0.4980 -0.0830
11553SOL    HW236528   4.122   4.564   2.392  0.0073  0.1926  0.4156
11554SOL     OW36529   1.646   8.246   1.066  0.0299 -1.1817  0.4198
11554SOL    HW136530   1.685   8.161   1.088  0.5893 -0.7952  0.9553
11554SOL    HW236531   1.687   8.271   0.983  0.2336 -1.2105  0.5107
11555SOL     OW36532   6.114   4.588   6.386  0.3509 -0.3640  0.5061
11555SOL    HW136533   6.075   4.662   6.340  0.3540  0.2412  1.4347
11555SOL    HW236534   6.175   4.550   6.324  1.4939  1.3642  0.5046
11556SOL     OW36535   0.574   6.675   0.252 -0.9913 -0.4999 -0.3042
11556SOL    HW136536   0.595   6.590   0.290  0.4125 -0.0336  0.0231
11556SOL    HW236537   0.526   6.721   0.322 -2.6374 -1.3377 -0.8260
11557SOL     OW36538   6.840   7.730   6.688  0.2011 -0.7770 -0.0777
11557SOL    HW136539   6.854   7.725   6.593 -0.7513 -0.9565 -0.2160
11557SOL    HW236540   6.903   7.796   6.718 -0.5648  0.4540 -1.0759
11558SOL     OW36541   7.687   7.700   1.956 -0.2220 -0.1412 -0.5502
11558SOL    HW136542   7.647   7.696   2.043  1.0312  1.4369  0.1512
11558SOL    HW236543   7.612   7.699   1.896 -1.1530 -0.3521  0.5790
11559SOL     OW36544   0.133   5.640   2.672  0.2527 -0.0871 -0.0678
11559SOL    HW136545   0.055   5.673   2.627  0.6389  0.8706 -0.0597
11559SOL    HW236546   0.125   5.674   2.761  0.7988  0.2331 -0.1362
11560SOL     OW36547   4.259   5.469   0.049 -0.5232  0.3313 -0.4414
11560SOL    HW136548   4.192   5.484  -0.018 -1.4477 -2.4747 -0.3077
11560SOL    HW236549   4.242   5.535   0.116 -2.1866  0.6625 -1.1461
11561SOL     OW36550   4.070   6.540   8.038  0.0688  0.8323  0.0617
11561SOL    HW136551   3.995   6.483   8.056  0.5066  0.5567  1.0726
11561SOL    HW236552   4.035   6.628   8.047 -0.3875  0.7283 -0.5827
11562SOL     OW36553   0.089   4.673   4.941 -0.2243 -0.0104  0.0609
11562SOL    HW136554   0.002   4.708   4.923 -0.2556 -1.3072 -2.7428
11562SOL    HW236555   0.132   4.667   4.856  1.4332 -2.4332  0.9557
11563SOL     OW36556   2.790   8.687   8.164  0.2121 -0.0309  0.2501
11563SOL    HW136557   2.809   8.610   8.109 -1.3758  0.4728 -1.0634
11563SOL    HW236558   2.705   8.718   8.134  1.9038  3.8287 -1.0762
11564SOL     OW36559   8.884   6.699   0.033  0.2761 -0.4538  0.0232
11564SOL    HW136560   8.902   6.621  -0.019 -0.8755  0.5997 -2.0867
11564SOL    HW236561   8.901   6.772  -0.027 -3.6028  0.7755  0.1384
11565SOL     OW36562   0.562   5.123   2.487 -0.0865  0.0204 -0.2013
11565SOL    HW136563   0.624   5.147   2.556 -1.0039 -1.4564  1.1907
11565SOL    HW236564   0.596   5.041   2.452  0.3613  0.7524 -1.5276
11566SOL     OW36565   7.864   6.161   2.689  0.6593 -0.0255  0.4079
11566SOL    HW136566   7.821   6.230   2.638  1.2335 -0.1049 -0.2021
11566SOL    HW236567   7.863   6.194   2.779 -3.1936 -1.2395  1.0129
11567SOL     OW36568   3.349   0.458   1.637  0.0573  0.3070 -0.2756
11567SOL    HW136569   3.281   0.441   1.702  1.5696  2.4798  2.0827
11567SOL    HW236570   3.429   0.464   1.688  1.5172  1.0303 -2.5321
11568SOL     OW36571   4.063   5.166   7.494  0.5520  0.5014 -0.2219
11568SOL    HW136572   4.098   5.194   7.410  0.4960 -1.3484 -0.8942
11568SOL    HW236573   4.068   5.245   7.549  0.3922  1.8076 -1.9842
11569SOL     OW36574   5.834   5.312   4.754 -0.3783 -0.3217 -0.3823
11569SOL    HW136575   5.836   5.216   4.756  3.0189 -0.3904 -0.5565
11569SOL    HW236576   5.794   5.336   4.837  1.1788 -1.9936  0.9592
11570SOL     OW36577   8.437   8.924   5.161 -0.2317  0.0933 -0.2624
11570SOL    HW136578   8.380   8.858   5.201 -0.7964  0.8248  0.1882
11570SOL    HW236579   8.421   9.003   5.213  0.5279  0.5487 -0.7037
11571SOL     OW36580   0.991   2.537   6.264  0.4781 -0.5639  0.3195
11571SOL    HW136581   0.907   2.560   6.304 -0.0396 -0.8524 -0.5715
11571SOL    HW236582   0.975   2.451   6.224  0.4985  0.3357 -1.7861
11572SOL     OW36583   7.801   8.318   0.243  0.0240 -0.5267  0.1838
11572SOL    HW136584   7.747   8.393   0.219  0.3200 -0.6253 -0.8710
11572SOL    HW236585   7.851   8.347   0.319 -1.4863 -0.4375  1.1707
11573SOL     OW36586   4.619   0.973   3.022  0.4577  0.2770  0.3207
11573SOL    HW136587   4.570   1.031   3.081  0.1704  0.6299 -0.2540
11573SOL    HW236588   4.667   0.914   3.080 -1.8260 -1.0950  0.9042
11574SOL     OW36589   2.436   5.640   0.413 -0.0900 -0.3206 -0.1675
11574SOL    HW136590   2.444   5.706   0.482 -2.4013 -0.7644  0.6295
11574SOL    HW236591   2.358   5.590   0.437  0.9076 -2.6122 -1.3776
11575SOL     OW36592   8.637   3.864   4.114 -0.1045  0.1637 -0.0770
11575SOL    HW136593   8.696   3.832   4.045 -1.3800  0.1597 -1.2196
11575SOL    HW236594   8.627   3.790   4.173  1.1939  0.2362  0.2543
11576SOL     OW36595   1.994   6.270   6.600  0.4725 -0.0286 -0.7996
11576SOL    HW136596   1.962   6.217   6.527 -1.1250 -1.1807  0.6519
11576SOL    HW236597   1.948   6.235   6.677  1.4902  1.6504  0.6472
11577SOL     OW36598   8.496   6.336   3.033 -0.2691 -0.2184  0.3276
11577SOL    HW136599   8.524   6.310   3.121  1.2522  0.1251 -0.0198
11577SOL    HW236600   8.489   6.254   2.985  0.6209 -0.2894  0.3039
11578SOL     OW36601   5.647   4.151   4.701  0.5712  0.3374 -0.1143
11578SOL    HW136602   5.563   4.116   4.671  0.6474  0.4935 -0.5132
11578SOL    HW236603   5.625   4.233   4.745  0.4723  0.1679  0.1533
11579SOL     OW36604   7.987   3.886   5.734  0.1205 -1.0808  0.3280
11579SOL    HW136605   7.988   3.860   5.642 -4.5581  0.3427 -0.3430
11579SOL    HW236606   7.983   3.803   5.782  0.6074 -1.7957 -0.8365
11580SOL     OW36607   2.609   3.360   8.482 -0.0415 -0.1112 -0.6611
11580SOL    HW136608   2.593   3.276   8.526  0.1555 -0.0396 -0.4498
11580SOL    HW236609   2.585   3.425   8.548  0.5845 -0.0036 -0.5398
11581SOL     OW36610   4.304   4.344   7.879 -0.0122  0.2792 -0.3828
11581SOL    HW136611   4.311   4.359   7.785 -0.6160 -0.1734 -0.5037
11581SOL    HW236612   4.318   4.431   7.918  0.8863  0.3576 -0.8442
11582SOL     OW36613   1.662   5.403   4.761 -0.3550 -0.3720 -0.6598
11582SOL    HW136614   1.701   5.332   4.813  0.5466 -0.4372 -1.4011
11582SOL    HW236615   1.722   5.415   4.688 -0.0251  1.7814 -0.0842
11583SOL     OW36616   1.162   0.579   6.984 -0.4884  0.6219 -0.1765
11583SOL    HW136617   1.160   0.627   6.902 -0.1150 -0.1007 -0.6208
11583SOL    HW236618   1.249   0.598   7.021 -0.6489  0.9320  0.0497
11584SOL     OW36619   0.146   2.390   1.097 -0.1894  0.3413  0.1853
11584SOL    HW136620   0.211   2.346   1.042  0.4967  1.6067 -0.0491
11584SOL    HW236621   0.130   2.474   1.054  0.2017  1.2799  1.7634
11585SOL     OW36622   3.480   2.226   3.539 -0.0042  0.3773 -0.0135
11585SOL    HW136623   3.453   2.314   3.564  0.6687  1.3217 -2.4223
11585SOL    HW236624   3.404   2.190   3.493  1.1900  1.4485 -3.0116
11586SOL     OW36625   5.096   8.310   2.494  0.2850  0.2701 -0.1946
11586SOL    HW136626   5.044   8.341   2.420  0.0879 -3.9931 -2.2026
11586SOL    HW236627   5.031   8.279   2.558  0.4575  1.4414  0.5738
11587SOL     OW36628   2.870   0.909   3.830 -0.6665  0.3547 -0.4461
11587SOL    HW136629   2.885   0.858   3.910 -0.2979 -0.3408 -0.9472
11587SOL    HW236630   2.802   0.861   3.783  0.1816 -0.0891 -1.2604
11588SOL     OW36631   7.003   6.312   7.388  0.3187  0.6799  0.1566
11588SOL    HW136632   6.926   6.333   7.439  0.5359 -0.1848  0.8696
11588SOL    HW236633   7.073   6.299   7.453  0.7169  0.0640 -0.3754
11589SOL     OW36634   4.550   8.649   3.442  0.6369 -0.5071  0.0530
11589SOL    HW136635   4.616   8.684   3.383  0.9310  0.5453  0.9756
11589SOL    HW236636   4.599   8.617   3.518  0.1374 -0.0806  0.5709
11590SOL     OW36637   3.919   1.562   5.142  0.5803  0.2006  0.3674
11590SOL    HW136638   3.998   1.554   5.195  2.0470  1.5312 -1.4493
11590SOL    HW236639   3.904   1.657   5.136 -0.6492 -0.0037 -0.0193
11591SOL     OW36640   3.566   8.245   8.017 -0.3271  0.3073  0.2905
11591SOL    HW136641   3.507   8.288   8.079 -1.0103 -0.7781  0.4219
11591SOL    HW236642   3.652   8.252   8.058 -0.9545 -1.5941  2.0998
11592SOL     OW36643   8.414   2.566   6.138  0.4631  0.3025  0.1522
11592SOL    HW136644   8.366   2.483   6.147 -0.3582  0.7742  0.2036
11592SOL    HW236645   8.421   2.599   6.227  0.4030  0.5037  0.0824
11593SOL     OW36646   3.702   5.789   7.020  0.2949 -0.3631 -0.2208
11593SOL    HW136647   3.712   5.751   7.107 -2.3951  0.9223  0.7647
11593SOL    HW236648   3.608   5.790   7.005  0.6172  0.5701 -2.6753
11594SOL     OW36649   4.228   2.711   1.679  0.0941  0.7312  0.6129
11594SOL    HW136650   4.134   2.725   1.690  0.0129  0.5816  0.1381
11594SOL    HW236651   4.266   2.798   1.686 -0.1448  0.8724  0.2176
11595SOL     OW36652   4.477   6.960   8.436  0.1119  0.5353  0.5779
11595SOL    HW136653   4.435   6.875   8.445 -0.9790  0.7485 -1.7738
11595SOL    HW236654   4.405   7.023   8.443  0.4240  1.0611 -0.6489
11596SOL     OW36655   1.389   3.171   0.066  0.1512  0.1507  0.0460
11596SOL    HW136656   1.379   3.194  -0.026  0.5732 -1.4295 -0.4244
11596SOL    HW236657   1.481   3.188   0.085 -0.1190  1.2902  0.4461
11597SOL     OW36658   8.634   8.778   7.480 -0.1614 -0.2804 -0.0300
11597SOL    HW136659   8.569   8.849   7.486 -0.8610 -0.8766 -0.4267
11597SOL    HW236660   8.712   8.820   7.443 -0.2417  0.4945  0.6571
11598SOL     OW36661   3.151   4.135   7.778  0.0807  0.1826 -0.6583
11598SOL    HW136662   3.201   4.053   7.784 -0.0318  0.0595 -1.2784
11598SOL    HW236663   3.081   4.126   7.843  0.7334  0.2685  0.0685
11599SOL     OW36664   0.665   7.791   5.600 -0.2387  0.2516  0.0818
11599SOL    HW136665   0.744   7.826   5.640 -0.2126 -1.1347  1.3317
11599SOL    HW236666   0.692   7.765   5.512  1.1260 -1.6106  0.9980
11600SOL     OW36667   6.013   6.700   5.840  0.3826  0.5530  0.0215
11600SOL    HW136668   6.095   6.750   5.843  1.1096 -0.6183  0.0938
11600SOL    HW236669   6.005   6.673   5.749  0.4703  0.0335  0.1656
11601SOL     OW36670   1.645   0.342   4.527  0.0490  0.3292  0.4198
11601SOL    HW136671   1.604   0.329   4.441  0.7011  1.0724 -0.0212
11601SOL    HW236672   1.661   0.436   4.531  0.3716  0.2426  1.2052
11602SOL     OW36673   2.494   3.500   3.897 -0.2534 -0.2746  0.8024
11602SOL    HW136674   2.439   3.516   3.820  1.3694 -0.1749 -0.3895
11602SOL    HW236675   2.574   3.550   3.880  0.4413 -0.8518  2.2061
11603SOL     OW36676   3.306   2.447   4.423  0.0380  0.0163 -0.0075
11603SOL    HW136677   3.297   2.422   4.515  1.4247 -0.5796 -0.0042
11603SOL    HW236678   3.234   2.508   4.408 -0.8415 -0.6776  1.1818
11604SOL     OW36679   7.538   0.943   4.451  0.1115 -0.1263 -0.2150
11604SOL    HW136680   7.559   1.031   4.422 -0.5800 -0.2799 -1.2158
11604SOL    HW236681   7.584   0.934   4.535  0.5575  1.0110 -0.3210
11605SOL     OW36682   7.832   5.962   4.571  0.2785 -0.0997  0.0909
11605SOL    HW136683   7.788   6.042   4.600  1.5870  0.1747  1.4209
11605SOL    HW236684   7.902   5.993   4.514  0.3729 -0.3460  0.0743
11606SOL     OW36685   6.623   1.680   4.436 -0.1456 -0.5455  0.6076
11606SOL    HW136686   6.683   1.694   4.510 -0.5882 -1.4210  1.1440
11606SOL    HW236687   6.629   1.761   4.386  1.7163 -0.7180  0.4707
11607SOL     OW36688   3.816   4.417   7.263 -0.8018 -0.4551 -0.6757
11607SOL    HW136689   3.871   4.457   7.197 -0.3295  0.9979  0.5597
11607SOL    HW236690   3.873   4.354   7.308 -1.3595 -2.1130 -2.1603
11608SOL     OW36691   4.169   7.455   4.111 -0.3928  0.3108  0.1574
11608SOL    HW136692   4.252   7.408   4.119 -0.8411 -0.9810 -2.0207
11608SOL    HW236693   4.188   7.526   4.050 -1.1310 -0.6871 -1.2659
11609SOL     OW36694   4.369   5.766   8.171 -0.6954 -0.4831  0.1083
11609SOL    HW136695   4.385   5.671   8.174  1.1316 -0.3003 -1.7410
11609SOL    HW236696   4.296   5.776   8.110  0.1858 -0.6160 -0.9787
11610SOL     OW36697   2.626   1.218   6.644  0.4856 -0.1505  0.1952
11610SOL    HW136698   2.554   1.158   6.664  0.2670  0.0490  0.0171
11610SOL    HW236699   2.626   1.281   6.715  0.3193  0.0010  0.0600
11611SOL     OW36700   4.489   5.657   4.767  0.0948  0.1875  0.3315
11611SOL    HW136701   4.561   5.718   4.752 -0.0774  0.8652  1.9668
11611SOL    HW236702   4.456   5.680   4.855 -1.2158 -1.0068  0.1984
11612SOL     OW36703   2.526   8.379   5.386  0.6406  0.1413 -0.0033
11612SOL    HW136704   2.555   8.304   5.439  0.4374 -1.5641 -2.1723
11612SOL    HW236705   2.443   8.406   5.426  1.2218 -0.0784  1.4294
11613SOL     OW36706   2.493   7.369   2.001  0.0375  0.0074 -0.4125
11613SOL    HW136707   2.438   7.342   2.074  0.6456  1.4966  0.6437
11613SOL    HW236708   2.473   7.306   1.932 -0.0027 -1.9468  1.2559
11614SOL     OW36709   0.290   7.721   8.901 -0.3665  0.5966  0.8977
11614SOL    HW136710   0.235   7.645   8.920  0.3989 -1.1039 -2.8417
11614SOL    HW236711   0.230   7.795   8.906 -1.9912 -0.6737  1.1658
11615SOL     OW36712   0.184   8.321   0.662 -0.1830  0.2034  0.0041
11615SOL    HW136713   0.130   8.364   0.729 -0.5877  0.6871 -0.6227
11615SOL    HW236714   0.225   8.249   0.708 -0.5574  0.4531  0.7520
11616SOL     OW36715   4.752   2.515   1.714  0.1410  0.0417 -0.8210
11616SOL    HW136716   4.789   2.597   1.681  0.9229  0.2696  0.5459
11616SOL    HW236717   4.786   2.507   1.803 -2.2530 -0.3020  0.1527
11617SOL     OW36718   2.895   1.466   0.095  0.3646  0.1485 -0.2816
11617SOL    HW136719   2.920   1.379   0.126  0.2913  0.2615  0.0962
11617SOL    HW236720   2.931   1.471   0.006 -0.1853 -0.5105 -0.5566
11618SOL     OW36721   0.593   1.450   1.950  0.1362 -0.0193 -0.0137
11618SOL    HW136722   0.575   1.477   2.040  1.2539  2.3405 -0.4010
11618SOL    HW236723   0.518   1.397   1.925 -1.1684  0.9235  1.6675
11619SOL     OW36724   6.973   8.917   2.658 -0.2822  0.6602 -0.2196
11619SOL    HW136725   7.057   8.881   2.632 -0.0200  1.5212 -0.5906
11619SOL    HW236726   6.925   8.842   2.695 -0.0848 -0.2649 -1.7577
11620SOL     OW36727   6.509   1.669   1.783  0.6911 -0.2018  0.0565
11620SOL    HW136728   6.414   1.682   1.781  0.7187  0.8033  2.2233
11620SOL    HW236729   6.540   1.713   1.704 -0.5719  0.0517 -0.3335
11621SOL     OW36730   1.419   0.892   4.338 -0.1276 -0.4295 -0.7285
11621SOL    HW136731   1.396   0.970   4.288  2.0534  0.7305 -0.0563
11621SOL    HW236732   1.423   0.922   4.429  1.3934 -1.1236 -0.5268
11622SOL     OW36733   3.446   2.278   6.182  0.2916 -0.1158 -0.0734
11622SOL    HW136734   3.470   2.185   6.184  0.4837 -0.0591  0.3460
11622SOL    HW236735   3.437   2.302   6.274  1.2083  0.5332 -0.1381
11623SOL     OW36736   4.462   3.148   5.312 -0.1988  0.2083  0.2806
11623SOL    HW136737   4.528   3.210   5.281  1.2782 -1.1026  0.6276
11623SOL    HW236738   4.442   3.095   5.234 -0.2984  0.1496  0.3468
11624SOL     OW36739   2.993   5.171   4.153  0.5941 -0.1487 -0.5464
11624SOL    HW136740   3.052   5.102   4.123  0.9047 -0.0265 -0.2195
11624SOL    HW236741   3.044   5.220   4.217  0.1816  0.0417 -0.3612
11625SOL     OW36742   6.454   2.974   6.841 -0.1424 -0.3924 -0.2018
11625SOL    HW136743   6.543   3.007   6.854 -0.5123  0.3632  0.5324
11625SOL    HW236744   6.463   2.906   6.774  0.8677  0.1965 -0.6907
11626SOL     OW36745   2.307   5.217   3.368  0.4646  0.5054  0.0367
11626SOL    HW136746   2.256   5.155   3.421  1.6636 -1.1273 -0.6477
11626SOL    HW236747   2.242   5.277   3.333 -0.7182 -0.2028  0.9311
11627SOL     OW36748   8.153   6.009   5.061 -0.1990  0.4127  0.0400
11627SOL    HW136749   8.211   5.936   5.080  1.6025  2.0954  1.4630
11627SOL    HW236750   8.136   6.049   5.147  0.6568  2.9033 -0.8503
11628SOL     OW36751   3.810   1.043   3.977  0.8376 -0.1225 -0.1108
11628SOL    HW136752   3.889   1.097   3.970  0.4351  0.2846 -2.5557
11628SOL    HW236753   3.738   1.106   3.974  0.3768 -0.5381  1.4001
11629SOL     OW36754   3.557   8.338   6.014 -0.0662  0.3047 -0.5117
11629SOL    HW136755   3.624   8.406   6.006 -1.7519  2.1941  0.5933
11629SOL    HW236756   3.500   8.350   5.938 -0.4067  0.1548 -0.2837
11630SOL     OW36757   2.150   6.375   0.092 -0.7529  0.0027  0.3106
11630SOL    HW136758   2.139   6.350   0.184 -0.7671 -1.2258 -0.0046
11630SOL    HW236759   2.245   6.387   0.082 -0.6402 -0.8106  0.2758
11631SOL     OW36760   2.179   5.644   3.662  0.0857 -0.4017  0.2352
11631SOL    HW136761   2.181   5.612   3.752  0.1838  2.9794  1.5761
11631SOL    HW236762   2.266   5.681   3.648 -0.0409 -0.5806 -1.1491
11632SOL     OW36763   6.275   1.843   7.182  0.3677 -0.0875 -0.2466
11632SOL    HW136764   6.290   1.750   7.198 -0.3279 -0.0320  0.8267
11632SOL    HW236765   6.338   1.866   7.114  1.0421 -1.1785 -0.0195
11633SOL     OW36766   0.049   0.544   5.881  0.5900 -0.0849  0.1788
11633SOL    HW136767  -0.039   0.568   5.852 -0.3773  1.4625  3.8498
11633SOL    HW236768   0.063   0.457   5.843 -1.7340  0.3392 -1.9680
11634SOL     OW36769   6.664   5.634   6.515  0.1978 -0.3631  0.0596
11634SOL    HW136770   6.584   5.680   6.490 -0.1886 -0.8375  0.4031
11634SOL    HW236771   6.726   5.703   6.536 -0.0916  0.0114 -0.3000
11635SOL     OW36772   1.926   6.608   6.674  0.6199  0.2027  0.5111
11635SOL    HW136773   1.998   6.671   6.668  1.5198 -0.8145  0.3721
11635SOL    HW236774   1.932   6.556   6.594 -1.4160  1.2427 -0.3950
11636SOL     OW36775   4.541   3.138   1.549  0.4889 -0.1522  0.1889
11636SOL    HW136776   4.597   3.211   1.525 -0.8762  1.8356  2.5818
11636SOL    HW236777   4.453   3.165   1.521  0.2706 -2.1257 -1.3021
11637SOL     OW36778   6.639   1.004   3.937 -0.1996  0.5575 -0.0141
11637SOL    HW136779   6.718   0.981   3.986 -0.0747  0.2329 -0.3615
11637SOL    HW236780   6.573   1.022   4.004 -0.1358 -0.2444  0.2694
11638SOL     OW36781   5.304   6.487   1.323 -0.2989  0.5925 -0.3427
11638SOL    HW136782   5.243   6.494   1.397 -2.3702 -2.3499 -1.5868
11638SOL    HW236783   5.385   6.526   1.356 -0.9439 -0.9394  3.6902
11639SOL     OW36784   6.288   3.136   0.486 -0.7567 -0.3869  0.2083
11639SOL    HW136785   6.336   3.210   0.449 -0.6965 -0.1915  0.6808
11639SOL    HW236786   6.347   3.061   0.476 -0.6498 -0.2910  0.1222
11640SOL     OW36787   2.580   5.369   0.311 -0.1168 -0.4808 -0.3637
11640SOL    HW136788   2.626   5.418   0.244  2.5440 -0.1570  1.5115
11640SOL    HW236789   2.534   5.435   0.362 -1.2156 -0.6103 -1.1537
11641SOL     OW36790   2.586   0.431   0.222 -0.1272  0.8619 -0.1939
11641SOL    HW136791   2.604   0.417   0.129 -0.4683  1.1059 -0.2993
11641SOL    HW236792   2.520   0.500   0.223 -1.1172 -0.0603  0.1717
11642SOL     OW36793   0.709   2.645   6.585  0.1031  0.0965 -0.1325
11642SOL    HW136794   0.792   2.610   6.617 -1.1172 -1.4188  1.5227
11642SOL    HW236795   0.643   2.586   6.619 -1.6393  0.8686 -2.0046
11643SOL     OW36796   4.022   2.215   2.153 -0.0502  0.5476 -0.2655
11643SOL    HW136797   3.933   2.235   2.122 -0.9913 -0.7343  1.4450
11643SOL    HW236798   4.056   2.153   2.089 -1.5905 -1.3170  0.6548
11644SOL     OW36799   5.143   4.121   5.483  0.2691 -0.2480  0.3903
11644SOL    HW136800   5.218   4.070   5.513  0.5803  0.1794  0.3486
11644SOL    HW236801   5.181   4.187   5.425 -0.1700 -0.1935  0.1606
11645SOL     OW36802   4.423   8.541   3.688  0.4878 -0.1904 -0.0268
11645SOL    HW136803   4.415   8.537   3.592  0.3014  0.7190 -0.0538
11645SOL    HW236804   4.513   8.513   3.705  1.2641  1.8030 -0.6449
11646SOL     OW36805   4.888   7.864   8.574  0.0715  0.3955  0.8099
11646SOL    HW136806   4.953   7.794   8.570 -1.3343 -0.8989 -0.4297
11646SOL    HW236807   4.876   7.880   8.667 -0.1629 -1.5994  1.1605
11647SOL     OW36808   0.126   7.551   5.756  0.2269  0.0886  0.4384
11647SOL    HW136809   0.082   7.520   5.835 -0.8176 -1.4389 -0.6901
11647SOL    HW236810   0.197   7.489   5.742 -0.1083 -0.1495 -0.2639
11648SOL     OW36811   0.596   2.150   5.757 -0.0013  0.7487  0.1386
11648SOL    HW136812   0.514   2.180   5.719  0.0495 -0.3614 -0.9285
11648SOL    HW236813   0.664   2.189   5.701  0.1501  0.7110  0.2958
11649SOL     OW36814   0.856   0.773   1.376  0.3208 -0.1199 -0.3738
11649SOL    HW136815   0.845   0.868   1.379  1.1367 -0.0396  0.7261
11649SOL    HW236816   0.790   0.743   1.314 -0.0788  1.1451 -0.5865
11650SOL     OW36817   6.614   6.094   1.394 -0.1249  0.2735 -0.2629
11650SOL    HW136818   6.599   6.181   1.358  0.6356  1.4436  2.0469
11650SOL    HW236819   6.617   6.107   1.489  1.6747 -1.9823  0.0922
11651SOL     OW36820   2.974   1.155   6.896  0.1765  0.3815  0.5356
11651SOL    HW136821   2.883   1.177   6.916  0.2148  0.8531  0.2315
11651SOL    HW236822   3.005   1.107   6.972 -0.2286  0.5094  0.7862
11652SOL     OW36823   7.339   8.622   6.586  0.1214 -0.1496 -0.2020
11652SOL    HW136824   7.291   8.610   6.668 -0.4451  1.1463 -0.3293
11652SOL    HW236825   7.431   8.607   6.610  0.1738  1.8409  1.0762
11653SOL     OW36826   6.150   6.666   1.363 -0.3146 -0.2763 -0.4363
11653SOL    HW136827   6.211   6.735   1.337 -0.1047 -0.2194  0.1889
11653SOL    HW236828   6.064   6.702   1.343 -0.1870  0.0008 -0.5040
11654SOL     OW36829   3.005   3.482   0.732 -0.4470 -0.2311 -0.5468
11654SOL    HW136830   3.032   3.520   0.816 -0.0939 -2.1453  0.2596
11654SOL    HW236831   3.069   3.514   0.669 -1.4684  2.3183 -0.4100
11655SOL     OW36832   7.443   4.641   7.208 -0.0502 -0.3301 -0.3085
11655SOL    HW136833   7.448   4.549   7.182  1.7260  0.1736 -1.9644
11655SOL    HW236834   7.534   4.667   7.221 -0.6432  0.6167  2.4883
11656SOL     OW36835   3.653   1.185   0.845 -0.2131  0.8427  0.0460
11656SOL    HW136836   3.672   1.235   0.924  1.9294 -0.0817  0.1880
11656SOL    HW236837   3.614   1.104   0.876  2.8295 -0.6001  0.4881
11657SOL     OW36838   2.818   7.523   4.090  0.3115 -0.6602  0.1186
11657SOL    HW136839   2.810   7.428   4.104 -1.4593 -0.4052  1.2381
11657SOL    HW236840   2.808   7.534   3.996 -1.2070 -1.4956  0.1439
11658SOL     OW36841   8.246   6.153   1.083 -0.1042  0.1207  0.2269
11658SOL    HW136842   8.163   6.179   1.042  0.6458  1.2134 -0.6579
11658SOL    HW236843   8.253   6.060   1.065 -1.5087 -0.1580  0.9986
11659SOL     OW36844   2.658   5.512   3.142  0.6955  0.4100  0.2111
11659SOL    HW136845   2.709   5.575   3.091  0.0450  0.3760 -0.5221
11659SOL    HW236846   2.658   5.546   3.231 -1.5625  2.7886 -0.5574
11660SOL     OW36847   7.651   0.440   0.248  0.0461  0.2927 -0.2979
11660SOL    HW136848   7.734   0.434   0.200  0.6525  2.6768  0.3310
11660SOL    HW236849   7.657   0.373   0.316  1.9040  1.0382  0.3237
11661SOL     OW36850   5.500   5.139   5.840  0.0960 -0.0823  0.0884
11661SOL    HW136851   5.410   5.169   5.844  0.5266  1.4925 -0.9163
11661SOL    HW236852   5.550   5.205   5.889  0.4689 -2.2984  2.9591
11662SOL     OW36853   4.263   3.313   4.554  0.1423  0.1780 -0.4758
11662SOL    HW136854   4.301   3.228   4.533  0.3036 -0.1273  0.9515
11662SOL    HW236855   4.337   3.366   4.584  0.1792  1.1055 -2.1196
11663SOL     OW36856   7.510   2.600   7.443 -0.0890 -0.3888 -0.3538
11663SOL    HW136857   7.587   2.551   7.472  0.7690  0.8615 -0.4717
11663SOL    HW236858   7.469   2.629   7.524  1.6784  2.1330 -0.2651
11664SOL     OW36859   6.592   7.495   8.802 -0.3428  0.1734 -0.4168
11664SOL    HW136860   6.554   7.566   8.855 -1.1098 -0.2692 -0.3620
11664SOL    HW236861   6.683   7.491   8.831 -0.4967  0.6016  0.1618
11665SOL     OW36862   1.042   1.228   4.798  0.5075 -0.7565 -0.3445
11665SOL    HW136863   1.021   1.156   4.858  1.0964 -1.9098 -1.4510
11665SOL    HW236864   0.959   1.245   4.752  0.1598 -0.1474  0.4783
11666SOL     OW36865   2.404   2.547   7.055  0.3650  0.0061 -0.0886
11666SOL    HW136866   2.336   2.609   7.082  0.6586  0.1125  0.4219
11666SOL    HW236867   2.429   2.503   7.137 -0.4062 -1.3635 -0.5464
11667SOL     OW36868   6.421   6.110   7.361  0.0330 -0.6058 -0.2071
11667SOL    HW136869   6.367   6.160   7.300  1.2417  0.5455 -0.3895
11667SOL    HW236870   6.367   6.101   7.439 -0.0576  1.5468  0.0530
11668SOL     OW36871   5.078   7.489   4.666  0.5372 -0.5099  0.2312
11668SOL    HW136872   5.077   7.403   4.709 -0.4713 -1.2689 -1.1934
11668SOL    HW236873   4.998   7.489   4.613  1.2124  0.7726 -0.8407
11669SOL     OW36874   0.182   4.366   6.038 -0.0969 -0.3748 -0.2091
11669SOL    HW136875   0.118   4.406   6.097 -0.4613 -0.7325 -0.3555
11669SOL    HW236876   0.140   4.366   5.952  0.5344  0.3829 -0.5286
11670SOL     OW36877   4.549   1.882   7.500 -1.3832  0.0402 -0.1220
11670SOL    HW136878   4.606   1.944   7.454 -0.6569  1.9898  3.0990
11670SOL    HW236879   4.595   1.798   7.494  0.4391  0.9893  0.0006
11671SOL     OW36880   4.340   4.302   3.336 -0.1268 -0.2506  0.3001
11671SOL    HW136881   4.366   4.221   3.378  1.1649 -0.0200 -0.0049
11671SOL    HW236882   4.422   4.351   3.326 -0.6986  0.5503 -0.6362
11672SOL     OW36883   6.244   5.214   2.700 -0.0425  0.5489  0.4532
11672SOL    HW136884   6.148   5.217   2.706 -0.3142 -2.8507  0.0387
11672SOL    HW236885   6.270   5.153   2.769  1.1190 -3.2057 -2.9257
11673SOL     OW36886   6.496   3.282   6.380 -0.1536  0.1745  0.1308
11673SOL    HW136887   6.444   3.291   6.460 -0.6213 -0.2334 -0.1170
11673SOL    HW236888   6.444   3.326   6.312  0.8713  1.7019  0.2988
11674SOL     OW36889   5.645   7.136   6.404  0.1477 -0.3148 -0.4760
11674SOL    HW136890   5.714   7.109   6.464  0.5594  0.7247 -0.4642
11674SOL    HW236891   5.679   7.111   6.317 -0.8097 -2.5936 -0.2819
11675SOL     OW36892   0.472   2.938   0.779 -0.8990  0.2416  0.4377
11675SOL    HW136893   0.457   2.845   0.797  0.2503  0.0290  0.3624
11675SOL    HW236894   0.566   2.951   0.793 -1.3986  1.9242  2.7172
11676SOL     OW36895   3.849   5.700   0.906 -0.2728  0.2840  0.1924
11676SOL    HW136896   3.902   5.708   0.985 -1.0280  2.4896  0.5510
11676SOL    HW236897   3.897   5.750   0.840 -0.3006 -0.4587 -0.4092
11677SOL     OW36898   7.406   7.019   6.643 -0.3266  0.0732  0.0502
11677SOL    HW136899   7.401   7.100   6.694 -0.1094  0.7716 -1.0077
11677SOL    HW236900   7.498   7.010   6.620 -0.6551  0.7655 -1.7281
11678SOL     OW36901   7.788   8.402   3.023  0.0071  0.3370 -0.3596
11678SOL    HW136902   7.765   8.324   2.973  0.3456 -0.1641  0.2501
11678SOL    HW236903   7.858   8.443   2.972 -0.0097  0.1174 -0.5609
11679SOL     OW36904   5.631   3.637   0.761 -0.1352  0.7740 -0.3697
11679SOL    HW136905   5.594   3.715   0.803  1.8297  0.8493  1.3711
11679SOL    HW236906   5.715   3.666   0.727 -0.2792 -0.1100 -1.5119
11680SOL     OW36907   0.372   0.753   8.222 -0.1396 -0.4061  0.2805
11680SOL    HW136908   0.370   0.831   8.276  0.6049  0.4202 -0.8435
11680SOL    HW236909   0.281   0.740   8.195 -0.0433  1.0172 -0.8078
11681SOL     OW36910   4.661   1.771   0.951  0.1985  0.1766  0.5940
11681SOL    HW136911   4.729   1.807   0.895 -0.3356  2.0573  1.0672
11681SOL    HW236912   4.697   1.778   1.040 -0.0449 -0.1833  0.7235
11682SOL     OW36913   3.246   2.124   6.476  0.1066 -0.2734 -0.1890
11682SOL    HW136914   3.252   2.058   6.546 -0.7262 -1.5699 -1.2685
11682SOL    HW236915   3.155   2.117   6.446  0.6922 -0.4769 -2.0466
11683SOL     OW36916   1.110   7.645   7.434  0.4535  0.0771  0.2204
11683SOL    HW136917   1.153   7.560   7.428  1.4902  0.5570  0.6523
11683SOL    HW236918   1.181   7.708   7.444 -0.2120  1.1380 -1.2376
11684SOL     OW36919   1.914   6.329   1.134 -0.4198  0.5262  0.2668
11684SOL    HW136920   1.996   6.342   1.182 -0.3424 -3.1680  1.4205
11684SOL    HW236921   1.939   6.333   1.042  0.4456  2.3823  0.5340
11685SOL     OW36922   8.819   3.365   5.765  0.1044 -0.1049  0.0794
11685SOL    HW136923   8.860   3.438   5.718  0.3786 -2.0136 -2.9179
11685SOL    HW236924   8.893   3.319   5.806  0.1321  0.3221  0.5122
11686SOL     OW36925   6.630   5.021   3.225 -0.5272  0.0693  0.1418
11686SOL    HW136926   6.537   5.035   3.239 -0.4965  0.4587 -0.0139
11686SOL    HW236927   6.662   4.981   3.306 -0.5894  1.0960  0.6920
11687SOL     OW36928   7.475   5.510   6.079 -0.2166  0.1070 -0.5913
11687SOL    HW136929   7.432   5.526   5.995 -2.1800 -1.3886  0.0556
11687SOL    HW236930   7.524   5.429   6.066 -1.2610 -0.6237 -0.0632
11688SOL     OW36931   8.247   2.014   4.829  0.2179  0.7615  0.5145
11688SOL    HW136932   8.295   2.018   4.746 -0.3720 -0.5753  0.0826
11688SOL    HW236933   8.259   1.924   4.860 -0.4755  0.9362  1.3300
11689SOL     OW36934   5.108   6.495   6.974  0.6745 -0.1714 -0.1090
11689SOL    HW136935   5.197   6.521   6.951  1.2602 -1.9245  0.0061
11689SOL    HW236936   5.112   6.479   7.068 -0.0906  0.8533  0.1193
11690SOL     OW36937   0.142   0.614   3.246  0.2721  0.1095  0.5098
11690SOL    HW136938   0.223   0.575   3.282  0.7949  0.2470 -0.4748
11690SOL    HW236939   0.167   0.703   3.222 -0.2069  0.1900  0.3061
11691SOL     OW36940   8.236   5.845   1.037 -0.1110 -0.8213  0.0324
11691SOL    HW136941   8.168   5.838   0.971  0.2813 -0.0121 -0.4677
11691SOL    HW236942   8.197   5.808   1.116 -0.7799 -1.2783 -0.5007
11692SOL     OW36943   3.110   6.872   0.698  0.6233  0.4794 -0.2515
11692SOL    HW136944   3.067   6.815   0.634  0.6358  0.0696  0.1006
11692SOL    HW236945   3.193   6.897   0.656  0.0458  1.2892 -0.9409
11693SOL     OW36946   5.588   8.373   7.245 -0.8612 -0.0851  0.1819
11693SOL    HW136947   5.508   8.335   7.207 -1.0760  0.3274  0.2134
11693SOL    HW236948   5.659   8.330   7.198 -1.0248 -1.9185  1.4978
11694SOL     OW36949   6.880   7.774   2.722  0.0716 -0.2739  0.2576
11694SOL    HW136950   6.866   7.786   2.628 -0.8615 -1.3169  0.2510
11694SOL    HW236951   6.810   7.823   2.764 -0.8946 -1.6520  0.3317
11695SOL     OW36952   5.382   6.062   8.429 -0.0048 -0.2721 -0.2378
11695SOL    HW136953   5.330   6.141   8.413  1.8375  1.5538  2.1635
11695SOL    HW236954   5.335   6.016   8.498 -0.7043 -0.9951 -1.1564
11696SOL     OW36955   7.849   7.021   6.670 -0.9125 -0.7425  0.0852
11696SOL    HW136956   7.763   7.032   6.628 -0.6508  1.9609  0.0819
11696SOL    HW236957   7.908   6.998   6.598 -1.4803 -1.8091 -0.0493
11697SOL     OW36958   8.323   2.766   0.728  0.0980  0.1585 -0.3945
11697SOL    HW136959   8.333   2.791   0.820  1.9912 -0.1580 -0.4658
11697SOL    HW236960   8.412   2.774   0.692 -0.3101 -1.2144 -1.8097
11698SOL     OW36961   5.140   3.110   2.338 -0.0615  0.4167 -0.3498
11698SOL    HW136962   5.188   3.125   2.257  2.1267  2.3157  1.1874
11698SOL    HW236963   5.110   3.197   2.365  0.2095 -0.0046  1.4367
11699SOL     OW36964   1.720   6.050   2.410 -0.2811  0.2417  0.6839
11699SOL    HW136965   1.677   6.021   2.330  0.0864  0.4729  0.4019
11699SOL    HW236966   1.754   6.137   2.389  0.5476 -0.0429  0.8198
11700SOL     OW36967   7.385   7.065   0.156  0.0447  0.2408  0.5642
11700SOL    HW136968   7.326   7.140   0.148 -0.3281 -0.1028  0.0119
11700SOL    HW236969   7.374   7.017   0.074  1.0356  0.1233  0.4930
11701SOL     OW36970   7.873   2.510   6.281 -0.4380  0.4522 -0.3444
11701SOL    HW136971   7.927   2.506   6.360 -0.9581  1.5482  0.0782
11701SOL    HW236972   7.931   2.479   6.211 -0.3558 -1.7686  0.6279
11702SOL     OW36973   1.934   2.681   2.196  0.4877  0.2826  0.4205
11702SOL    HW136974   1.966   2.765   2.165  2.1838 -0.6881 -0.6562
11702SOL    HW236975   1.976   2.668   2.281 -1.8804  1.6429  1.9117
11703SOL     OW36976   3.033   2.931   3.198  0.0604  0.0792 -0.6387
11703SOL    HW136977   2.987   2.963   3.276 -0.7365 -0.8168 -0.7183
11703SOL    HW236978   3.075   2.850   3.227 -0.4971 -0.4251 -1.1995
11704SOL     OW36979   2.237   3.363   3.762  0.2694  0.3013  0.8732
11704SOL    HW136980   2.233   3.404   3.676  0.3025 -0.2922  0.5792
11704SOL    HW236981   2.180   3.286   3.754 -0.9058  1.0292  1.8325
11705SOL     OW36982   5.663   2.160   1.503 -0.2428  0.1710 -0.0735
11705SOL    HW136983   5.678   2.124   1.415 -0.3920  2.1813 -0.9624
11705SOL    HW236984   5.638   2.084   1.555  2.9601 -1.6694 -0.9479
11706SOL     OW36985   0.311   8.113   7.889  0.5835 -0.6693 -0.4060
11706SOL    HW136986   0.391   8.062   7.894  0.0257 -1.5592 -0.2811
11706SOL    HW236987   0.241   8.048   7.886 -0.3608  0.0363  2.7291
11707SOL     OW36988   4.538   1.338   5.440 -0.3302  0.0625  0.2709
11707SOL    HW136989   4.500   1.396   5.505 -1.0475 -0.7363  0.5880
11707SOL    HW236990   4.558   1.258   5.488 -0.5854 -0.4232 -0.4180
11708SOL     OW36991   5.738   6.792   5.327  0.4320  0.2289  0.0292
11708SOL    HW136992   5.709   6.764   5.414 -0.7265  1.3642  0.0291
11708SOL    HW236993   5.833   6.793   5.333  0.4067 -0.6512  0.9738
11709SOL     OW36994   1.910   8.522   5.079  0.1683  0.3397 -0.2762
11709SOL    HW136995   1.923   8.613   5.108 -0.6338  0.3730  0.0123
11709SOL    HW236996   1.902   8.473   5.161  0.9328 -0.0580 -0.4260
11710SOL     OW36997   0.914   0.503   7.060 -0.3544 -0.1995 -0.1488
11710SOL    HW136998   1.003   0.529   7.037 -0.0542 -0.6121  0.5508
11710SOL    HW236999   0.919   0.474   7.151 -1.1204 -0.6166 -0.2281
11711SOL     OW37000   2.135   6.282   8.831  0.2342  0.2608  0.3879
11711SOL    HW137001   2.086   6.345   8.884  1.3761  1.3653  0.1635
11711SOL    HW237002   2.131   6.319   8.742 -0.9190 -1.1214 -0.1778
11712SOL     OW37003   7.542   5.115   5.269 -0.0795  0.4023 -0.3292
11712SOL    HW137004   7.562   5.207   5.287 -0.7780  0.2544  1.3972
11712SOL    HW237005   7.543   5.109   5.173  2.0146  1.7322 -0.4823
11713SOL     OW37006   4.278   0.117   1.698  0.1375 -0.2124  0.0760
11713SOL    HW137007   4.330   0.197   1.711 -0.3262 -0.1594  1.9447
11713SOL    HW237008   4.337   0.056   1.655  0.5953  1.0301 -1.1129
11714SOL     OW37009   8.588   7.154   6.879 -0.1278 -0.1287  1.1039
11714SOL    HW137010   8.642   7.178   6.804 -1.1536  0.2930  0.4847
11714SOL    HW237011   8.623   7.069   6.907 -0.4175 -0.8052 -0.5206
11715SOL     OW37012   6.358   3.632   7.108  0.4396 -0.4480 -0.2373
11715SOL    HW137013   6.366   3.568   7.179 -0.5910 -0.6478 -0.2843
11715SOL    HW237014   6.448   3.655   7.087  0.7816  0.2334  1.6957
11716SOL     OW37015   7.683   1.209   5.451  0.8091 -0.9726 -0.9053
11716SOL    HW137016   7.739   1.240   5.380  0.3372  0.7987 -0.5431
11716SOL    HW237017   7.738   1.148   5.501  1.7018 -0.8862 -1.7725
11717SOL     OW37018   5.192   3.572   0.956 -0.0520  0.0314 -0.1245
11717SOL    HW137019   5.131   3.642   0.934 -0.3942 -0.7721 -1.8849
11717SOL    HW237020   5.162   3.540   1.041 -0.5704  1.2506  0.1711
11718SOL     OW37021   8.735   8.097   4.869 -0.5132  0.1558 -0.4767
11718SOL    HW137022   8.666   8.102   4.936 -2.0443  1.5809 -2.0444
11718SOL    HW237023   8.790   8.173   4.886  0.2389 -0.5426  0.2902
11719SOL     OW37024   3.301   5.251   0.778 -0.7151 -0.2870  0.1397
11719SOL    HW137025   3.336   5.223   0.693  1.6673  1.7783  0.3166
11719SOL    HW237026   3.275   5.342   0.764 -0.1193  0.1364  1.6312
11720SOL     OW37027   4.660   6.490   0.948  0.0448  0.2265  0.8339
11720SOL    HW137028   4.579   6.491   0.998  0.3267  0.4233  1.2899
11720SOL    HW237029   4.721   6.542   1.000  0.5256 -0.1004  0.6022
11721SOL     OW37030   1.091   2.185   3.951 -0.3475  0.6026  0.0039
11721SOL    HW137031   1.059   2.095   3.958 -1.8314  1.0285 -0.9117
11721SOL    HW237032   1.014   2.237   3.930  0.7095  1.9031 -0.8405
11722SOL     OW37033   1.271   6.370   8.973  0.2685 -0.4011 -0.0793
11722SOL    HW137034   1.272   6.275   8.957  0.1307 -0.3506 -0.4014
11722SOL    HW237035   1.319   6.407   8.898  0.2772 -0.2117  0.0201
11723SOL     OW37036   3.109   3.618   7.057  0.1954  0.1346 -0.4386
11723SOL    HW137037   3.019   3.606   7.026  0.2182 -0.8111 -0.1473
11723SOL    HW237038   3.162   3.611   6.978  0.1642 -1.2289 -0.3519
11724SOL     OW37039   4.371   0.988   8.661  0.1390 -0.4342  0.0323
11724SOL    HW137040   4.336   1.033   8.584 -1.2867 -0.1198  0.8269
11724SOL    HW237041   4.350   1.046   8.734  1.5441 -0.6930  0.6652
11725SOL     OW37042   6.409   5.918   8.961 -0.1474  0.2886  0.2584
11725SOL    HW137043   6.343   5.983   8.985  0.1020  0.6331  0.0164
11725SOL    HW237044   6.360   5.837   8.948 -0.3139  0.1115  1.8156
11726SOL     OW37045   0.356   5.817   4.342 -0.1939 -0.9020 -0.2661
11726SOL    HW137046   0.275   5.806   4.392 -0.2328  0.7487  0.1070
11726SOL    HW237047   0.331   5.802   4.251 -1.6865  2.3801 -0.5511
11727SOL     OW37048   6.236   2.207   1.720 -1.2148  0.3850 -0.8698
11727SOL    HW137049   6.188   2.207   1.803 -1.4238  1.8291 -0.9713
11727SOL    HW237050   6.174   2.239   1.656 -0.5930  0.7510 -1.2983
11728SOL     OW37051   8.380   5.723   7.507  0.3102 -0.8929 -0.2175
11728SOL    HW137052   8.337   5.795   7.554 -0.2462 -2.8386  2.5141
11728SOL    HW237053   8.359   5.739   7.415 -0.3324  2.0274  0.3297
11729SOL     OW37054   7.205   6.256   3.251  0.4754  0.2168  0.2412
11729SOL    HW137055   7.232   6.214   3.170  0.9110  0.6207  0.1711
11729SOL    HW237056   7.275   6.234   3.314  0.1267 -0.1196  0.5176
11730SOL     OW37057   5.893   7.119   8.470 -0.1824  0.6935 -0.5703
11730SOL    HW137058   5.979   7.108   8.430 -0.2057  0.9400 -0.6855
11730SOL    HW237059   5.880   7.038   8.521 -0.7191 -0.2146 -2.0896
11731SOL     OW37060   6.252   7.079   5.718  0.6537  1.0399 -0.2216
11731SOL    HW137061   6.201   7.084   5.637  2.4607 -0.9539 -1.5933
11731SOL    HW237062   6.243   6.988   5.747  1.6140  1.2229  0.7428
11732SOL     OW37063   6.165   6.417   6.730  0.1125 -0.2760  0.4045
11732SOL    HW137064   6.112   6.481   6.779 -1.1483 -1.3627  0.5065
11732SOL    HW237065   6.223   6.379   6.796 -0.5340 -0.6634  0.7560
11733SOL     OW37066   0.648   3.649   5.691  0.3664  0.2001 -0.1859
11733SOL    HW137067   0.713   3.646   5.761 -0.4950 -0.4711  0.6150
11733SOL    HW237068   0.661   3.734   5.649  0.4632  0.9024  1.2132
11734SOL     OW37069   5.716   6.954   7.399  0.1810  0.1986 -0.4459
11734SOL    HW137070   5.734   7.040   7.361 -0.0184  0.1657 -0.6132
11734SOL    HW237071   5.638   6.968   7.454  0.6184  0.3072  0.1587
11735SOL     OW37072   0.370   3.002   8.329 -0.3359  0.2934  0.1569
11735SOL    HW137073   0.365   2.906   8.326 -0.0127  0.2799 -0.0137
11735SOL    HW237074   0.461   3.020   8.352 -1.0979  0.5191  3.6128
11736SOL     OW37075   6.499   7.601   6.429  0.3195  0.0612  0.2291
11736SOL    HW137076   6.516   7.528   6.370  1.1621  0.1631  0.3379
11736SOL    HW237077   6.469   7.559   6.510  1.0432 -0.1793  0.3758
11737SOL     OW37078   5.847   5.551   3.081  0.1012 -0.1377 -0.7345
11737SOL    HW137079   5.803   5.633   3.105  0.0154 -0.3066 -0.3116
11737SOL    HW237080   5.893   5.525   3.161  2.7878  1.1746 -1.7182
11738SOL     OW37081   6.248   4.846   3.499 -0.0626  0.5171  0.2555
11738SOL    HW137082   6.270   4.829   3.591  0.1165  0.2095  0.1571
11738SOL    HW237083   6.308   4.790   3.449 -1.2263 -0.5516 -0.0112
11739SOL     OW37084   7.344   6.209   0.591  0.0485 -0.2500 -0.2856
11739SOL    HW137085   7.274   6.255   0.545 -0.1628 -0.3231 -0.0405
11739SOL    HW237086   7.390   6.278   0.639  0.4954 -0.1221 -0.8911
11740SOL     OW37087   6.074   7.565   1.474 -0.2145  0.1527  0.1850
11740SOL    HW137088   6.140   7.634   1.467 -0.7084  0.4845 -1.6293
11740SOL    HW237089   6.104   7.511   1.547  1.9335  0.4278 -0.4289
11741SOL     OW37090   2.053   2.234   7.708 -0.2160 -0.2556  0.3907
11741SOL    HW137091   2.057   2.323   7.673  1.1371 -0.3138  0.3664
11741SOL    HW237092   2.023   2.245   7.798  1.0343  0.3419  0.7519
11742SOL     OW37093   2.387   8.655   1.660  0.4883 -0.2152 -0.4631
11742SOL    HW137094   2.385   8.655   1.564 -1.5613 -2.2391 -0.4900
11742SOL    HW237095   2.315   8.713   1.685  0.7763 -0.0007 -0.1226
11743SOL     OW37096   1.081   8.294   5.153 -0.4063  0.3424  0.0177
11743SOL    HW137097   1.176   8.280   5.152 -0.5696 -1.7631  2.4346
11743SOL    HW237098   1.046   8.216   5.197 -3.1025  1.8333  0.7480
11744SOL     OW37099   0.681   2.071   1.858  0.3622 -0.0799 -0.1864
11744SOL    HW137100   0.695   2.139   1.924  0.5585  0.3611 -0.6757
11744SOL    HW237101   0.768   2.040   1.836  0.4060  0.6394 -1.1222
11745SOL     OW37102   3.892   3.996   6.140  0.4622  0.0406  0.1551
11745SOL    HW137103   3.812   4.049   6.148 -0.1215 -0.6956 -0.5855
11745SOL    HW237104   3.920   3.982   6.230 -0.0325  0.6220  0.4115
11746SOL     OW37105   4.119   3.008   7.308  0.1836 -0.0180  0.6293
11746SOL    HW137106   4.110   3.023   7.402 -2.0908  1.1245  0.2951
11746SOL    HW237107   4.149   3.092   7.273  1.1075 -0.4630  0.3173
11747SOL     OW37108   3.680   8.676   8.351 -0.2749  0.7380  0.2201
11747SOL    HW137109   3.713   8.723   8.427 -0.2831 -1.0624  1.4081
11747SOL    HW237110   3.593   8.713   8.335  0.1813  1.9021  0.3730
11748SOL     OW37111   1.858   6.993   7.480  0.1505 -0.3197 -0.0619
11748SOL    HW137112   1.873   6.974   7.387  0.7251 -3.2097  0.5330
11748SOL    HW237113   1.936   7.040   7.508  1.2944 -1.8737 -0.4751
11749SOL     OW37114   7.782   7.926   5.266 -0.0986  0.0310  0.4281
11749SOL    HW137115   7.831   7.981   5.205  0.1595 -0.8489 -0.1659
11749SOL    HW237116   7.736   7.863   5.211  1.0352 -1.5064  1.1865
11750SOL     OW37117   0.313   5.637   6.629 -0.3571  0.0421  0.4222
11750SOL    HW137118   0.298   5.684   6.710  2.5761  1.2195  0.3911
11750SOL    HW237119   0.270   5.690   6.562  0.0392  0.8700  0.8084
11751SOL     OW37120   1.915   1.458   5.431  0.5574  0.5472  0.1601
11751SOL    HW137121   1.940   1.374   5.393  0.4293  0.5629  0.0379
11751SOL    HW237122   1.979   1.520   5.398  0.6803  0.4888  0.2893
11752SOL     OW37123   2.113   8.140   0.476  0.6907  0.4231  0.0290
11752SOL    HW137124   2.128   8.196   0.400  1.3724  0.1937 -0.0155
11752SOL    HW237125   2.088   8.055   0.440 -2.5507  1.2348  0.1128
11753SOL     OW37126   8.878   6.057   8.608  0.3589 -0.3080 -0.0107
11753SOL    HW137127   8.850   5.984   8.663 -0.3373 -1.1382 -1.4051
11753SOL    HW237128   8.799   6.110   8.597  0.3891 -0.3659 -0.5260
11754SOL     OW37129   6.569   1.417   0.570  0.2394 -0.9092 -0.0462
11754SOL    HW137130   6.604   1.430   0.657  1.7206 -0.1499 -0.7218
11754SOL    HW237131   6.638   1.447   0.511 -0.6259 -1.6277 -1.4898
11755SOL     OW37132   6.455   0.417   6.101  0.0409 -0.1340 -0.0122
11755SOL    HW137133   6.413   0.502   6.118 -1.8814 -1.1541  0.6303
11755SOL    HW237134   6.490   0.426   6.013 -0.7527  1.1030 -0.2403
11756SOL     OW37135   7.951   1.544   5.174  0.1351 -0.1798  0.5842
11756SOL    HW137136   7.957   1.526   5.080  1.4013  0.6088  0.4923
11756SOL    HW237137   7.947   1.639   5.180 -0.1934 -0.2334  1.3256
11757SOL     OW37138   3.628   8.673   8.772  0.1955 -0.6161 -0.1580
11757SOL    HW137139   3.619   8.727   8.850 -0.8722 -0.4553 -0.3801
11757SOL    HW237140   3.651   8.586   8.805 -1.8426 -0.9665  0.4766
11758SOL     OW37141   2.718   8.230   6.591 -0.1613 -0.0013 -0.4741
11758SOL    HW137142   2.756   8.146   6.565  3.5236  1.7669 -1.4031
11758SOL    HW237143   2.761   8.251   6.673 -0.9745  1.0447 -0.3023
11759SOL     OW37144   0.735   3.921   1.083  0.5847 -0.0504 -0.1544
11759SOL    HW137145   0.709   3.829   1.078 -0.2735  0.1639  0.1457
11759SOL    HW237146   0.790   3.927   1.161 -0.7005 -0.0153  0.7850
11760SOL     OW37147   6.665   6.671   1.479  0.1363  0.5632 -0.3963
11760SOL    HW137148   6.737   6.661   1.542 -0.1423 -0.4354 -0.2156
11760SOL    HW237149   6.693   6.620   1.403 -0.8221 -0.7203  0.0799
11761SOL     OW37150   8.542   4.485   5.991 -0.3314 -0.3553 -0.8164
11761SOL    HW137151   8.487   4.421   6.036 -1.2879 -1.0066 -2.7733
11761SOL    HW237152   8.506   4.570   6.016  0.3340 -0.5669  1.0429
11762SOL     OW37153   3.620   1.328   7.234 -0.8996  0.3628 -0.2681
11762SOL    HW137154   3.569   1.284   7.165  0.8028 -1.2618 -0.5738
11762SOL    HW237155   3.621   1.265   7.306  0.8669  0.2064 -0.3847
11763SOL     OW37156   5.106   6.496   5.411  0.1312 -0.3629 -0.3261
11763SOL    HW137157   5.020   6.492   5.453  1.5973 -1.3033  2.8367
11763SOL    HW237158   5.142   6.408   5.421  1.9398  0.3296 -0.4343
11764SOL     OW37159   4.693   4.348   3.267 -0.6434 -0.0996  0.2258
11764SOL    HW137160   4.631   4.419   3.282 -0.6059  0.3182 -1.4266
11764SOL    HW237161   4.721   4.360   3.176  0.7197 -1.1718  0.4849
11765SOL     OW37162   8.411   1.760   1.937  0.1819  0.0066 -0.5907
11765SOL    HW137163   8.427   1.842   1.984  0.2558 -0.4803  0.2498
11765SOL    HW237164   8.451   1.692   1.992  0.1330 -0.5943 -1.2825
11766SOL     OW37165   4.646   4.970   8.219 -0.1285 -0.0207 -0.0188
11766SOL    HW137166   4.722   5.003   8.267 -0.8513  2.1045 -0.2026
11766SOL    HW237167   4.683   4.918   8.148  1.2080  1.2909 -0.3392
11767SOL     OW37168   8.120   8.080   1.801 -0.2963 -0.7896 -0.5655
11767SOL    HW137169   8.031   8.044   1.793 -1.2469  0.6842  2.0208
11767SOL    HW237170   8.174   8.005   1.824 -1.0287 -1.5812 -1.3489
11768SOL     OW37171   5.605   0.060   7.201 -0.1585  0.1438 -0.4040
11768SOL    HW137172   5.520   0.060   7.156 -0.1983  0.2607 -0.3277
11768SOL    HW237173   5.590   0.109   7.281 -0.5839 -1.5983  0.6471
11769SOL     OW37174   2.473   0.183   0.385  0.0091  0.3656 -0.0732
11769SOL    HW137175   2.471   0.277   0.371 -1.5028  0.5599  1.0970
11769SOL    HW237176   2.538   0.171   0.454 -1.1056  0.8091  1.0993
11770SOL     OW37177   0.806   3.432   7.548  0.0118  0.6399  0.5325
11770SOL    HW137178   0.781   3.415   7.457 -1.4711  2.0264  0.6163
11770SOL    HW237179   0.724   3.460   7.589  0.7525  0.4414  2.1863
11771SOL     OW37180   7.415   8.859   2.167 -0.6046  0.2853  0.5929
11771SOL    HW137181   7.499   8.837   2.207 -0.3402  0.7314  0.2910
11771SOL    HW237182   7.398   8.948   2.195  0.0807  0.9874 -1.0876
11772SOL     OW37183   7.668   1.200   1.216 -0.3438 -0.1237 -0.0181
11772SOL    HW137184   7.664   1.143   1.139  0.4145 -1.0163  0.5937
11772SOL    HW237185   7.576   1.216   1.238 -0.5916 -1.9549  0.4099
11773SOL     OW37186   3.951   1.287   7.605 -0.0485 -0.1460 -0.3752
11773SOL    HW137187   3.996   1.334   7.676 -0.2180  0.1225 -0.4456
11773SOL    HW237188   3.958   1.195   7.630 -0.5334 -0.0248  0.2474
11774SOL     OW37189   6.696   1.534   3.648 -0.0338 -0.7999 -0.6993
11774SOL    HW137190   6.629   1.570   3.590 -0.3800 -0.2905  0.0081
11774SOL    HW237191   6.648   1.485   3.714  0.0363  1.7496  1.3875
11775SOL     OW37192   8.969   6.146   1.541 -0.4381 -0.4703  0.2185
11775SOL    HW137193   9.057   6.165   1.575 -0.9033  0.6120  0.8882
11775SOL    HW237194   8.978   6.062   1.496  1.9694  1.5108 -3.5599
11776SOL     OW37195   1.442   5.564   0.720 -0.2467  0.3826 -0.4906
11776SOL    HW137196   1.408   5.475   0.727  1.5596 -0.3990 -1.0991
11776SOL    HW237197   1.472   5.586   0.809 -3.3720  1.6227  0.4140
11777SOL     OW37198   1.453   2.392   3.206  0.2327  0.4683  0.8824
11777SOL    HW137199   1.388   2.411   3.138 -2.3527 -2.1660  2.3873
11777SOL    HW237200   1.525   2.350   3.158 -0.2899  1.1168 -0.5293
11778SOL     OW37201   6.537   8.533   4.935  0.5027 -0.1707  0.1270
11778SOL    HW137202   6.597   8.607   4.944  1.2702 -0.8508  0.8084
11778SOL    HW237203   6.506   8.539   4.845  0.0303  1.3529  0.3616
11779SOL     OW37204   6.427   2.097   8.913 -0.0671 -0.5814  0.4371
11779SOL    HW137205   6.488   2.034   8.875 -1.7469 -1.1986 -1.3963
11779SOL    HW237206   6.475   2.180   8.914  1.4750 -1.4489  0.9908
11780SOL     OW37207   8.792   0.785   2.397  0.3625  0.2816  0.0141
11780SOL    HW137208   8.702   0.788   2.429  1.1159  0.4244  2.3004
11780SOL    HW237209   8.820   0.695   2.410  1.4409  0.8582  2.1694
11781SOL     OW37210   1.805   0.411   8.460 -0.1030  0.1028 -0.0285
11781SOL    HW137211   1.895   0.421   8.491 -0.7057 -0.1281  1.8746
11781SOL    HW237212   1.756   0.481   8.503 -0.9786 -0.1820 -0.5225
11782SOL     OW37213   2.412   4.819   8.156  0.1327  0.5964 -0.0584
11782SOL    HW137214   2.429   4.730   8.186  0.1265  0.2518 -1.0377
11782SOL    HW237215   2.492   4.868   8.176  0.6219  0.0571 -0.6686
11783SOL     OW37216   4.622   0.648   8.818 -0.0385 -0.1316 -0.3278
11783SOL    HW137217   4.656   0.616   8.901 -2.6837 -1.0302  0.5316
11783SOL    HW237218   4.655   0.587   8.753  1.1944 -0.0418  0.1847
11784SOL     OW37219   3.982   7.157   0.504 -0.1371 -0.0720  0.3292
11784SOL    HW137220   4.061   7.161   0.558 -0.4437 -1.9687  0.9820
11784SOL    HW237221   3.980   7.241   0.458  1.7365  0.3936  1.0222
11785SOL     OW37222   1.962   0.535   0.889 -0.0709  0.0012  0.1071
11785SOL    HW137223   1.877   0.522   0.846  0.0904  1.6324 -0.7759
11785SOL    HW237224   2.025   0.537   0.818  0.7426 -1.0904  0.7527
11786SOL     OW37225   8.142   8.951   3.384 -0.1135 -0.6262  0.3480
11786SOL    HW137226   8.200   8.995   3.322  1.6314 -2.6876  0.3868
11786SOL    HW237227   8.112   8.873   3.338 -1.1732 -0.6760  1.0884
11787SOL     OW37228   3.316   8.414   3.643  0.0936  0.3754  0.6566
11787SOL    HW137229   3.393   8.357   3.641  0.0141  0.1988  1.9275
11787SOL    HW237230   3.285   8.415   3.553  1.5961  0.4760  0.1066
11788SOL     OW37231   6.379   7.037   0.593  0.1386 -0.5285  0.4642
11788SOL    HW137232   6.302   7.086   0.623  0.2778 -0.0903  0.1208
11788SOL    HW237233   6.401   7.077   0.509  0.1058 -1.3481  0.0587
11789SOL     OW37234   4.593   3.836   7.121 -0.0007 -0.4171 -0.4834
11789SOL    HW137235   4.588   3.842   7.026  0.4790 -3.3856 -0.7867
11789SOL    HW237236   4.639   3.915   7.148  0.5940  0.0896 -2.7855
11790SOL     OW37237   1.373   5.388   8.947 -0.5404  0.0949  0.3526
11790SOL    HW137238   1.427   5.467   8.946  0.6940 -0.7345  0.5793
11790SOL    HW237239   1.350   5.376   9.039  0.6023 -0.6901  0.5468
11791SOL     OW37240   4.425   6.010   4.859  0.1999 -0.4906 -0.8863
11791SOL    HW137241   4.368   6.049   4.793 -0.0333 -1.0877 -1.0495
11791SOL    HW237242   4.495   5.969   4.809  2.3205  2.4784 -0.6164
11792SOL     OW37243   8.197   5.524   5.180  0.2694  0.1876  0.0843
11792SOL    HW137244   8.158   5.448   5.136  0.4302  0.1217  0.0544
11792SOL    HW237245   8.204   5.497   5.272 -0.4563  0.4823  0.2327
11793SOL     OW37246   0.632   2.712   0.284  0.1660  0.0186 -0.0520
11793SOL    HW137247   0.599   2.646   0.345  0.3594  0.7849  0.9082
11793SOL    HW237248   0.637   2.666   0.200  0.4994 -1.2564  0.6315
11794SOL     OW37249   8.027   6.305   3.448  0.1581  0.5840 -0.0902
11794SOL    HW137250   7.958   6.290   3.513  0.4261  1.1429  0.3385
11794SOL    HW237251   7.994   6.264   3.368 -0.8272  1.1294  0.0167
11795SOL     OW37252   8.380   3.692   7.357  0.0104 -0.4073  1.0009
11795SOL    HW137253   8.428   3.625   7.308  0.4041  0.3507  0.3446
11795SOL    HW237254   8.434   3.710   7.434  0.5878  0.1571  0.4668
11796SOL     OW37255   5.742   0.473   1.463 -0.0814 -0.2414 -0.4092
11796SOL    HW137256   5.815   0.412   1.452 -0.3923 -0.6856 -0.0209
11796SOL    HW237257   5.668   0.418   1.489 -0.0384  0.4370  1.2856
11797SOL     OW37258   8.047   6.924   7.429  0.1191  0.4181 -0.1385
11797SOL    HW137259   7.968   6.871   7.417 -0.3819  1.0035  0.5088
11797SOL    HW237260   8.086   6.929   7.342 -0.2326 -0.3730 -0.3539
11798SOL     OW37261   3.598   5.793   0.270 -1.2547 -0.0619 -0.0162
11798SOL    HW137262   3.510   5.828   0.257 -0.7602  1.9688  1.6321
11798SOL    HW237263   3.655   5.847   0.215 -0.9311 -0.9445 -0.5770
11799SOL     OW37264   5.111   1.341   2.776  0.3171 -0.5517 -0.5438
11799SOL    HW137265   5.116   1.255   2.819  0.2193 -0.4148 -0.2575
11799SOL    HW237266   5.090   1.402   2.847 -0.3562 -0.3946 -0.8687
11800SOL     OW37267   8.691   3.314   6.145  0.8668  0.5213 -0.4191
11800SOL    HW137268   8.786   3.306   6.155  0.6550 -0.3942  1.3484
11800SOL    HW237269   8.671   3.263   6.066  1.9394  1.7235 -1.5095
11801SOL     OW37270   3.660   5.198   5.876 -0.3303  0.2862  0.5789
11801SOL    HW137271   3.621   5.217   5.962  1.3504 -1.3557  1.7570
11801SOL    HW237272   3.714   5.121   5.890 -0.3201 -0.2859 -2.0868
11802SOL     OW37273   6.640   4.191   6.416 -0.6147  0.1486 -0.3110
11802SOL    HW137274   6.693   4.231   6.346  0.9272  1.7590  1.6592
11802SOL    HW237275   6.592   4.264   6.454 -1.4227 -0.7010  0.3307
11803SOL     OW37276   6.039   4.376   5.788 -0.3115  0.1043  0.1306
11803SOL    HW137277   5.977   4.380   5.715 -1.4267  1.0963  1.0982
11803SOL    HW237278   6.124   4.396   5.748 -1.1204  2.2419 -0.6677
11804SOL     OW37279   3.875   1.620   1.545 -0.5101  0.1163  0.0579
11804SOL    HW137280   3.820   1.566   1.603  0.5411 -0.6130  0.4039
11804SOL    HW237281   3.813   1.679   1.502 -1.6589 -1.0575  0.0115
11805SOL     OW37282   5.895   2.711   3.970 -0.1939  0.0981  0.0199
11805SOL    HW137283   5.800   2.706   3.982 -0.0808 -1.6790  0.5095
11805SOL    HW237284   5.912   2.659   3.891  0.3137  1.1144 -0.5599
11806SOL     OW37285   0.840   6.617   6.924  0.6977  0.5482 -0.4198
11806SOL    HW137286   0.842   6.661   7.009  1.4835  0.4095 -0.3618
11806SOL    HW237287   0.894   6.672   6.867 -2.0460  2.2356 -1.6482
11807SOL     OW37288   3.526   4.063   0.970  0.1589  0.5966 -0.1018
11807SOL    HW137289   3.586   4.118   1.020  1.2303 -0.2358 -0.4319
11807SOL    HW237290   3.507   4.113   0.891  2.1406  0.0257 -1.0063
11808SOL     OW37291   3.048   3.857   6.252 -0.0697  0.1771 -0.6215
11808SOL    HW137292   3.083   3.884   6.167  0.3639 -1.2232 -0.9155
11808SOL    HW237293   3.042   3.762   6.246 -0.8170  0.1228  0.6340
11809SOL     OW37294   4.659   0.320   2.071  0.3601  0.1258  0.1196
11809SOL    HW137295   4.699   0.237   2.044 -0.1435  0.1600 -0.7648
11809SOL    HW237296   4.728   0.365   2.119  1.9134  0.7437 -2.4536
11810SOL     OW37297   8.338   5.554   6.785  0.0991 -0.3827 -0.1591
11810SOL    HW137298   8.325   5.634   6.836 -1.1331 -0.7556  0.1286
11810SOL    HW237299   8.268   5.555   6.719  1.0655 -0.4135 -1.2247
11811SOL     OW37300   7.426   6.075   0.837 -0.3473  0.1132  0.3726
11811SOL    HW137301   7.375   6.080   0.756 -1.0353  1.6893  0.8621
11811SOL    HW237302   7.382   6.136   0.896  1.4876  0.6979  1.1900
11812SOL     OW37303   1.877   3.305   7.455  0.9741 -0.1713 -0.4545
11812SOL    HW137304   1.878   3.225   7.508  1.0723  0.0161 -0.1742
11812SOL    HW237305   1.931   3.283   7.379  1.3549 -0.2352 -0.1713
11813SOL     OW37306   5.956   5.051   0.070  0.0519  0.9647 -0.4015
11813SOL    HW137307   6.025   5.058   0.004 -0.3418  0.9211 -0.8267
11813SOL    HW237308   5.905   4.974   0.043  0.6585  0.1438  0.6973
11814SOL     OW37309   3.791   6.405   8.528 -0.1166  0.1133 -0.0692
11814SOL    HW137310   3.730   6.436   8.461 -0.9852  1.0435  1.1266
11814SOL    HW237311   3.765   6.315   8.545 -1.2424  0.5430  0.5242
11815SOL     OW37312   3.943   1.681   8.712  0.1018  0.2901  0.0316
11815SOL    HW137313   3.854   1.647   8.707 -0.3729  1.3104  0.9860
11815SOL    HW237314   3.969   1.695   8.621 -0.9025  0.4472 -0.2371
11816SOL     OW37315   8.357   2.500   8.121  0.8516  0.1054  0.1909
11816SOL    HW137316   8.452   2.515   8.124  1.0758 -1.3694  2.0281
11816SOL    HW237317   8.330   2.539   8.037  2.8247  1.8529  0.2695
11817SOL     OW37318   8.407   4.194   6.088 -0.0099 -0.0202  0.0346
11817SOL    HW137319   8.349   4.126   6.056 -0.7348  1.1135 -1.2076
11817SOL    HW237320   8.375   4.216   6.175 -0.9864  0.0563 -0.3352
11818SOL     OW37321   0.814   3.757   4.585  0.4474  0.1184  0.0218
11818SOL    HW137322   0.778   3.752   4.496 -1.8425  1.0055  0.8157
11818SOL    HW237323   0.907   3.775   4.572  0.4114 -0.9330 -2.1847
11819SOL     OW37324   2.674   6.459   8.847 -0.3102  0.5868 -0.8353
11819SOL    HW137325   2.732   6.387   8.822 -0.2990  0.9333 -1.8608
11819SOL    HW237326   2.595   6.445   8.794 -0.8905  0.5234  0.0224
11820SOL     OW37327   0.699   1.711   1.985 -0.0793 -0.0664 -0.3178
11820SOL    HW137328   0.659   1.624   1.978  0.3433 -0.4663  1.7285
11820SOL    HW237329   0.710   1.739   1.894 -1.7182 -1.4415 -0.9979
11821SOL     OW37330   7.332   0.258   8.813 -0.1582  0.1555 -0.3605
11821SOL    HW137331   7.377   0.190   8.864 -0.2914 -0.5880 -1.2140
11821SOL    HW237332   7.260   0.211   8.771 -0.2123  0.8223 -1.0110
11822SOL     OW37333   6.172   7.285   4.831  0.0941 -0.0511 -0.2460
11822SOL    HW137334   6.084   7.251   4.841  0.3508 -0.6065  0.1579
11822SOL    HW237335   6.202   7.250   4.747  0.1753 -0.4208 -0.0653
11823SOL     OW37336   8.796   6.371   3.033 -0.3369  0.3169 -0.0883
11823SOL    HW137337   8.758   6.410   2.953 -0.6498  0.3506  0.0755
11823SOL    HW237338   8.722   6.328   3.076 -0.0626 -0.1502 -0.0812
11824SOL     OW37339   8.547   7.002   8.939  0.6566 -0.0512 -0.3511
11824SOL    HW137340   8.499   6.952   9.004  0.8302 -0.1459 -0.2952
11824SOL    HW237341   8.485   7.014   8.867  0.4271  0.1469 -0.1232
11825SOL     OW37342   5.627   6.858   7.176  0.1146  0.0292 -0.1424
11825SOL    HW137343   5.682   6.780   7.180  1.3375  0.9422  2.1604
11825SOL    HW237344   5.643   6.904   7.258 -1.8195  1.8928 -0.7154
11826SOL     OW37345   3.553   5.239   4.046  0.1049 -0.0096 -0.5223
11826SOL    HW137346   3.571   5.183   3.970  0.7793  1.5196 -1.5592
11826SOL    HW237347   3.621   5.306   4.042 -0.4979  0.7126  0.8295
11827SOL     OW37348   2.253   6.374   0.554  0.4162  0.0326  0.0728
11827SOL    HW137349   2.209   6.306   0.604  0.7780 -0.4161 -0.2136
11827SOL    HW237350   2.302   6.424   0.620  0.8031 -0.4880  0.1851
11828SOL     OW37351   3.411   4.751   6.102 -0.2512 -0.5189  0.5404
11828SOL    HW137352   3.499   4.788   6.092 -0.3701 -0.0278  1.2945
11828SOL    HW237353   3.372   4.799   6.175 -1.2508 -0.5553  0.0405
11829SOL     OW37354   2.310   7.906   1.261 -0.5521 -0.1876  0.0964
11829SOL    HW137355   2.279   7.891   1.171  1.7086  1.2347 -1.0074
11829SOL    HW237356   2.230   7.909   1.314 -2.1158  0.9456 -2.1659
11830SOL     OW37357   1.597   7.196   0.894 -0.1404 -0.0001 -0.7851
11830SOL    HW137358   1.692   7.191   0.895 -0.1328  0.1471 -0.6213
11830SOL    HW237359   1.568   7.111   0.926 -0.0453  0.3329  0.2276
11831SOL     OW37360   3.643   5.384   3.109  0.2234 -0.0412 -0.0292
11831SOL    HW137361   3.718   5.432   3.142 -0.3276  0.1989  0.8938
11831SOL    HW237362   3.567   5.427   3.148 -0.5019  0.5212 -1.9281
11832SOL     OW37363   0.050   4.146   5.510 -0.5071 -0.4892  0.2138
11832SOL    HW137364  -0.026   4.168   5.455  1.8527  0.9191 -2.7718
11832SOL    HW237365   0.053   4.215   5.576 -1.1895  0.0883 -0.3452
11833SOL     OW37366   0.351   4.495   4.604  0.2390  0.0009  0.0085
11833SOL    HW137367   0.332   4.570   4.548  0.1723  1.6699  2.1261
11833SOL    HW237368   0.436   4.515   4.643  0.1108 -0.9093  0.7954
11834SOL     OW37369   2.257   2.391   4.979  0.1189  0.2034 -0.3671
11834SOL    HW137370   2.317   2.447   4.931 -0.8244 -0.3271 -2.2429
11834SOL    HW237371   2.271   2.304   4.944 -1.9502  0.1209 -1.1096
11835SOL     OW37372   8.611   0.154   7.095  0.3771  0.3740 -0.2517
11835SOL    HW137373   8.518   0.148   7.114  0.3430 -1.0502 -0.7937
11835SOL    HW237374   8.616   0.176   7.002  0.6040  2.8552  0.2523
11836SOL     OW37375   7.806   2.077   7.400  0.3180  0.2053 -0.6511
11836SOL    HW137376   7.726   2.116   7.436 -0.5406 -2.1322  0.1618
11836SOL    HW237377   7.801   2.097   7.306 -2.3796 -1.6257 -1.0159
11837SOL     OW37378   7.014   8.043   3.151  0.5456  0.3860 -0.5259
11837SOL    HW137379   6.988   8.093   3.074  0.9694  0.2150 -0.7785
11837SOL    HW237380   7.109   8.047   3.152  0.7354 -2.0450 -1.6700
11838SOL     OW37381   0.138   6.666   6.867 -0.1421 -0.0634 -0.2090
11838SOL    HW137382   0.180   6.581   6.883  1.2691  0.2600 -1.9089
11838SOL    HW237383   0.053   6.644   6.830  0.6565 -0.7715 -1.6990
11839SOL     OW37384   3.537   4.575   0.573 -0.1576  0.1646  0.6745
11839SOL    HW137385   3.504   4.555   0.486 -0.8816  3.0326  0.1664
11839SOL    HW237386   3.464   4.556   0.632 -1.3601  2.4706  0.0473
11840SOL     OW37387   5.069   5.839   0.311  0.2070 -0.0262 -0.1178
11840SOL    HW137388   5.003   5.899   0.276 -0.2335  0.0300  0.7882
11840SOL    HW237389   5.026   5.797   0.386  0.2464 -1.9973 -1.1273
11841SOL     OW37390   7.556   7.579   8.092 -0.3861  0.0643 -0.1646
11841SOL    HW137391   7.635   7.622   8.122 -1.0117  1.6228 -0.6700
11841SOL    HW237392   7.574   7.556   8.001 -0.6816  0.8625 -0.4287
11842SOL     OW37393   2.253   0.916   6.910 -0.4367 -0.1175  0.0096
11842SOL    HW137394   2.161   0.920   6.934 -0.5660  0.4649 -0.5555
11842SOL    HW237395   2.299   0.896   6.991 -0.8453  1.9682  0.7976
11843SOL     OW37396   1.016   3.047   7.530 -0.2931  0.0435  0.2393
11843SOL    HW137397   1.026   2.986   7.604  0.0743 -0.5308 -0.2779
11843SOL    HW237398   0.969   2.997   7.464  0.4848  0.1429 -0.3988
11844SOL     OW37399   4.968   7.153   5.724  0.4445  0.5295 -0.1682
11844SOL    HW137400   4.912   7.231   5.733  0.4841  0.4388  1.0154
11844SOL    HW237401   5.034   7.164   5.792 -0.3392 -1.1812  0.9236
11845SOL     OW37402   0.174   6.267   2.539 -0.1708  0.1098 -0.0528
11845SOL    HW137403   0.156   6.196   2.477 -1.0288  0.9754 -0.8373
11845SOL    HW237404   0.087   6.298   2.565  0.1281  2.1794 -1.2962
11846SOL     OW37405   0.253   6.291   4.865  0.0230  0.6146  0.4932
11846SOL    HW137406   0.244   6.200   4.835 -1.9070  0.4102  1.4979
11846SOL    HW237407   0.331   6.324   4.820 -0.5378 -0.8269 -1.6900
11847SOL     OW37408   2.494   3.288   3.638 -0.5159 -0.0504 -0.3924
11847SOL    HW137409   2.489   3.212   3.580 -0.6462  0.4681 -1.0700
11847SOL    HW237410   2.564   3.342   3.602  0.5727 -0.5211  0.9233
11848SOL     OW37411   7.780   7.259   4.610 -0.3353 -0.2924  0.5031
11848SOL    HW137412   7.790   7.347   4.573  1.3281 -0.3246  0.7707
11848SOL    HW237413   7.705   7.222   4.565 -0.5634  0.9784 -0.2077
11849SOL     OW37414   0.507   2.122   1.188 -0.2209 -0.1435  0.0034
11849SOL    HW137415   0.574   2.099   1.123 -0.2930  0.1859 -0.1922
11849SOL    HW237416   0.469   2.203   1.155 -0.5435 -0.1937  0.2465
11850SOL     OW37417   0.869   7.133   6.237 -0.1264  0.4672  0.5371
11850SOL    HW137418   0.892   7.225   6.251  0.8481  0.0792  1.6377
11850SOL    HW237419   0.911   7.110   6.154 -0.6221  1.0847  0.1044
11851SOL     OW37420   5.431   5.964   3.492 -0.9092 -0.0957  0.0467
11851SOL    HW137421   5.477   6.033   3.540  0.0110  0.3309 -1.3771
11851SOL    HW237422   5.491   5.941   3.421 -0.5950 -3.3187  1.2114
11852SOL     OW37423   8.974   3.163   0.781  0.0164 -0.3703  0.0362
11852SOL    HW137424   8.962   3.169   0.876 -2.1246  0.0052 -0.1993
11852SOL    HW237425   8.885   3.149   0.747  0.2258  2.7581 -2.1526
11853SOL     OW37426   8.409   5.148   6.588  0.2680 -0.5093 -0.0365
11853SOL    HW137427   8.422   5.206   6.663  0.9216 -0.3632 -0.2594
11853SOL    HW237428   8.383   5.064   6.627  4.0512 -1.5370  0.6461
11854SOL     OW37429   4.264   0.022   8.981  0.8721 -0.0988  0.5395
11854SOL    HW137430   4.333   0.078   8.946  0.3479  0.6591  0.7017
11854SOL    HW237431   4.199   0.083   9.018 -0.7984 -0.6842 -1.2350
11855SOL     OW37432   2.606   2.026   3.588  0.4947  0.3376  0.4897
11855SOL    HW137433   2.682   1.982   3.549  1.1384 -0.4306  2.4619
11855SOL    HW237434   2.545   1.954   3.607 -0.4304  0.8687 -0.4347
11856SOL     OW37435   8.184   7.555   4.358  0.0637  0.3384  0.2017
11856SOL    HW137436   8.276   7.537   4.377  0.4135  1.2384 -0.5629
11856SOL    HW237437   8.186   7.613   4.282 -1.0993  1.1580  0.7583
11857SOL     OW37438   4.602   8.167   0.569 -0.4246 -0.0005 -0.0333
11857SOL    HW137439   4.523   8.220   0.566 -2.3544 -2.7099 -1.0678
11857SOL    HW237440   4.577   8.090   0.621  0.8437 -1.8675 -2.0305
11858SOL     OW37441   8.203   8.430   7.553 -0.6423  0.2143 -1.0764
11858SOL    HW137442   8.201   8.389   7.466 -1.5598  1.3786 -1.6379
11858SOL    HW237443   8.265   8.502   7.544  0.2464 -0.4564 -0.3772
11859SOL     OW37444   2.004   4.979   5.130 -0.1461  0.4375  0.6246
11859SOL    HW137445   2.033   5.069   5.117  3.5017 -0.9520 -3.0551
11859SOL    HW237446   1.927   4.970   5.072  0.2582  0.9010  0.0007
11860SOL     OW37447   8.930   6.814   4.273  0.0211 -0.6758 -0.7287
11860SOL    HW137448   8.894   6.878   4.334  0.0600 -0.1782 -1.2262
11860SOL    HW237449   8.862   6.803   4.207  0.0221 -1.1349 -0.6586
11861SOL     OW37450   7.716   2.821   1.466 -0.4023  0.0846 -0.1939
11861SOL    HW137451   7.752   2.737   1.437  0.9264  0.9596 -1.1537
11861SOL    HW237452   7.705   2.872   1.386 -0.4799  1.0941  0.4456
11862SOL     OW37453   5.859   5.710   7.879 -0.5976  0.0922  0.1387
11862SOL    HW137454   5.825   5.741   7.795  0.2446  0.3766 -0.1083
11862SOL    HW237455   5.813   5.628   7.894  0.0750 -0.5508 -1.1719
11863SOL     OW37456   8.979   6.253   8.340 -0.0293  0.3426 -0.3917
11863SOL    HW137457   9.045   6.306   8.385 -0.0373  0.4470 -0.5059
11863SOL    HW237458   8.911   6.239   8.406  0.6357 -0.7219  0.0942
11864SOL     OW37459   1.433   5.095   3.973  0.2322  0.5874 -0.5053
11864SOL    HW137460   1.403   5.154   3.905 -2.2069 -0.6582 -0.5974
11864SOL    HW237461   1.444   5.011   3.930 -0.7457 -0.0734  0.4791
11865SOL     OW37462   4.444   3.225   6.583 -0.2811 -0.4906  0.0164
11865SOL    HW137463   4.405   3.250   6.500 -3.9104 -1.9379  1.0719
11865SOL    HW237464   4.497   3.148   6.562  2.4046  1.5945 -1.4906
11866SOL     OW37465   4.634   1.657   6.786  0.1566 -0.0327 -0.4204
11866SOL    HW137466   4.639   1.621   6.698  1.1971 -0.8733 -0.0340
11866SOL    HW237467   4.626   1.581   6.843  2.1233  0.3172  0.3971
11867SOL     OW37468   3.863   6.086   2.105 -0.2133 -0.3675  0.4864
11867SOL    HW137469   3.850   6.100   2.011  1.1688 -2.4790 -0.0955
11867SOL    HW237470   3.828   6.165   2.146  1.1421  1.6386 -1.9339
11868SOL     OW37471   2.713   6.046   3.334  0.3321  0.7799  0.2237
11868SOL    HW137472   2.725   5.969   3.390 -1.4311 -0.7346 -1.3249
11868SOL    HW237473   2.747   6.119   3.385  2.6218 -1.0726  1.5443
11869SOL     OW37474   2.242   2.687   2.384  0.8012 -0.1088 -0.0477
11869SOL    HW137475   2.289   2.604   2.395  1.1293 -0.0131 -0.7263
11869SOL    HW237476   2.260   2.713   2.294 -0.1533  0.1735 -0.1667
11870SOL     OW37477   6.569   8.121   3.470 -0.2183 -0.2996  0.1630
11870SOL    HW137478   6.576   8.045   3.528  1.3944  0.5668  1.1833
11870SOL    HW237479   6.510   8.181   3.516 -0.2263 -0.2826  0.1303
11871SOL     OW37480   2.917   2.092   0.334  0.8918  0.4632 -0.3565
11871SOL    HW137481   2.868   2.110   0.254 -0.6664  0.7434  0.6250
11871SOL    HW237482   3.008   2.114   0.312  0.2656  2.0130 -1.5757
11872SOL     OW37483   8.914   0.887   2.626  0.1249  0.2358  0.6484
11872SOL    HW137484   8.879   0.884   2.537  1.2106 -1.1282  0.2399
11872SOL    HW237485   8.842   0.921   2.679 -0.7509  0.4518 -0.6451
11873SOL     OW37486   1.806   2.614   8.693  0.6445 -0.2329  0.7980
11873SOL    HW137487   1.901   2.627   8.695  0.3675  2.3170  1.5168
11873SOL    HW237488   1.783   2.589   8.782  0.4356  1.5324  1.2790
11874SOL     OW37489   5.540   4.939   8.644 -0.1250  0.4658 -0.3792
11874SOL    HW137490   5.535   4.844   8.644 -0.3010  0.4763 -0.5469
11874SOL    HW237491   5.626   4.958   8.683  0.4504  0.2097 -1.4914
11875SOL     OW37492   5.599   3.982   8.544  0.1527 -0.3286  0.7158
11875SOL    HW137493   5.618   3.905   8.596  0.1972 -0.7982  0.0137
11875SOL    HW237494   5.668   4.045   8.568  0.8389 -0.9433  0.3966
11876SOL     OW37495   7.493   7.179   0.581  0.5341  0.6283 -0.1181
11876SOL    HW137496   7.550   7.115   0.625  1.0307  0.1844 -1.3475
11876SOL    HW237497   7.427   7.201   0.646  1.3618  0.1642  0.9156
11877SOL     OW37498   3.555   5.704   0.699  0.1992 -0.8353  0.1016
11877SOL    HW137499   3.622   5.651   0.741  0.0716  0.0660  1.5314
11877SOL    HW237500   3.472   5.665   0.728  0.0518  1.0893  2.6813
11878SOL     OW37501   6.752   7.095   6.324  0.1764  0.6730 -0.4239
11878SOL    HW137502   6.672   7.048   6.349  0.4297 -0.6849 -1.9876
11878SOL    HW237503   6.805   7.029   6.279  1.4413  1.9899 -0.9327
11879SOL     OW37504   7.930   5.586   7.182  0.1925 -0.2638  0.0168
11879SOL    HW137505   7.966   5.674   7.196  1.7888 -0.9933  0.7629
11879SOL    HW237506   7.923   5.578   7.087  1.2699  0.2312 -0.1279
11880SOL     OW37507   1.987   5.065   1.610  0.5595  0.0108 -0.2509
11880SOL    HW137508   1.936   5.072   1.691  0.3770  0.8234 -0.4346
11880SOL    HW237509   2.075   5.096   1.634  0.5608  0.0561 -0.3149
11881SOL     OW37510   7.819   5.792   4.825 -0.1986 -0.0709 -0.0961
11881SOL    HW137511   7.818   5.831   4.737 -0.6146 -0.7138 -0.3887
11881SOL    HW237512   7.911   5.792   4.850 -0.1635  0.8576 -0.1889
11882SOL     OW37513   7.273   1.641   1.928  0.2479 -0.0487  0.1006
11882SOL    HW137514   7.278   1.556   1.972 -2.1875  0.0015  0.5953
11882SOL    HW237515   7.229   1.623   1.844 -0.5890  0.7417  0.3472
11883SOL     OW37516   2.928   6.460   4.835  0.1479  0.3431 -0.0993
11883SOL    HW137517   2.840   6.420   4.836  0.6243 -0.7431 -0.1716
11883SOL    HW237518   2.922   6.531   4.898 -0.2521 -0.9206  1.3490
11884SOL     OW37519   4.130   3.583   3.882  0.3605 -0.2202 -0.4638
11884SOL    HW137520   4.202   3.528   3.851  1.3155  0.1731  0.9723
11884SOL    HW237521   4.167   3.633   3.954 -0.3500  2.6734 -1.9716
11885SOL     OW37522   7.248   6.298   8.590 -0.2373 -0.2653 -0.1012
11885SOL    HW137523   7.239   6.366   8.523 -0.1028 -1.8831 -1.8406
11885SOL    HW237524   7.170   6.244   8.580  1.4178 -2.5875 -1.4426
11886SOL     OW37525   3.777   0.982   0.079  0.2599 -0.1625 -0.4072
11886SOL    HW137526   3.819   0.989  -0.007  0.3347  0.7655 -0.3084
11886SOL    HW237527   3.786   0.890   0.103  1.8639 -0.0701 -0.5820
11887SOL     OW37528   5.653   0.355   6.348  0.6447 -0.2978 -0.1868
11887SOL    HW137529   5.573   0.348   6.295  0.2008 -1.9447  0.6134
11887SOL    HW237530   5.627   0.322   6.434  2.6143 -2.6903 -0.3963
11888SOL     OW37531   0.165   1.934   3.053 -0.3666 -0.3652 -0.2062
11888SOL    HW137532   0.214   2.012   3.078 -2.3455  0.7036  0.5197
11888SOL    HW237533   0.228   1.863   3.060  0.9908  0.8962  1.0092
11889SOL     OW37534   6.662   3.257   3.370  0.1876  0.1149  0.2252
11889SOL    HW137535   6.632   3.210   3.447 -1.7540  0.1044 -0.4833
11889SOL    HW237536   6.695   3.341   3.404  0.9184 -0.5422  1.1930
11890SOL     OW37537   8.184   1.460   6.228 -0.4731  0.3537 -0.0543
11890SOL    HW137538   8.195   1.367   6.211 -0.3184  0.6006 -1.4067
11890SOL    HW237539   8.090   1.474   6.225 -0.6653 -0.0824  2.1479
11891SOL     OW37540   5.391   3.420   2.922 -0.3696 -0.3405 -0.4777
11891SOL    HW137541   5.299   3.429   2.947  0.0250 -1.3660  1.4739
11891SOL    HW237542   5.412   3.328   2.936  1.3094  0.1315  0.4695
11892SOL     OW37543   5.408   4.900   2.214 -0.3071 -0.0283  0.0687
11892SOL    HW137544   5.455   4.846   2.150 -1.2562  0.8698 -1.4619
11892SOL    HW237545   5.470   4.912   2.286  0.4045 -1.9960 -0.1628
11893SOL     OW37546   0.509   0.626   6.702 -0.3286  0.3407 -0.5221
11893SOL    HW137547   0.558   0.701   6.735 -1.0108  0.6263 -0.1427
11893SOL    HW237548   0.488   0.574   6.780  0.2677 -0.3320 -0.7969
11894SOL     OW37549   6.454   6.887   3.542  0.4062  0.2963  0.0357
11894SOL    HW137550   6.378   6.877   3.485  0.9386 -0.5647 -0.5313
11894SOL    HW237551   6.498   6.965   3.510  0.8159 -0.3017 -0.8728
11895SOL     OW37552   8.762   2.474   1.410 -0.3647  0.1387  0.3245
11895SOL    HW137553   8.754   2.478   1.505  0.5834 -2.7206  0.6421
11895SOL    HW237554   8.833   2.412   1.395 -1.5868 -0.7986 -2.2265
11896SOL     OW37555   0.120   5.619   6.042  0.3145 -0.4259  0.1523
11896SOL    HW137556   0.054   5.624   5.972 -0.6095 -2.4671  0.8041
11896SOL    HW237557   0.200   5.651   6.001 -0.6914  0.5247 -1.1676
11897SOL     OW37558   2.060   7.233   2.363  0.0053  0.1454  0.5051
11897SOL    HW137559   2.121   7.220   2.435 -1.3639  1.3691  1.9603
11897SOL    HW237560   1.974   7.213   2.400 -0.4831 -3.5894 -2.0054
11898SOL     OW37561   6.590   6.187   1.650 -0.0624 -0.2908  0.5019
11898SOL    HW137562   6.641   6.149   1.721 -0.1539 -1.0323  0.1752
11898SOL    HW237563   6.500   6.189   1.683 -0.1627 -0.9573  0.2874
11899SOL     OW37564   5.007   5.625   1.345  0.6626 -0.3177  0.2982
11899SOL    HW137565   5.033   5.566   1.274 -1.9049 -0.8122 -0.3188
11899SOL    HW237566   5.033   5.580   1.425  1.3923 -0.8914 -0.2480
11900SOL     OW37567   1.052   7.180   5.089 -0.6335 -0.0457  0.0400
11900SOL    HW137568   0.967   7.188   5.131 -0.4482 -1.3571  0.7430
11900SOL    HW237569   1.039   7.113   5.022 -0.0243 -0.7375  0.5922
11901SOL     OW37570   4.430   1.804   4.292 -0.2636 -0.2169 -0.2709
11901SOL    HW137571   4.505   1.824   4.348 -1.6742  2.5936  0.8400
11901SOL    HW237572   4.448   1.853   4.211 -0.1207 -0.9492 -0.6868
11902SOL     OW37573   8.936   8.932   3.503 -0.1558 -0.0690  0.1327
11902SOL    HW137574   8.998   8.938   3.431  0.3889 -0.5847  0.5567
11902SOL    HW237575   8.913   8.839   3.508 -0.6601  0.0559  0.2333
11903SOL     OW37576   4.280   5.435   2.833  0.5558  0.1295 -0.1310
11903SOL    HW137577   4.297   5.342   2.849 -1.1222  0.0349  1.4230
11903SOL    HW237578   4.217   5.435   2.760 -0.7009 -0.0899  0.9107
11904SOL     OW37579   4.888   2.465   1.260  0.1369  0.3773  0.0978
11904SOL    HW137580   4.805   2.510   1.249  0.3362  0.9520  0.8221
11904SOL    HW237581   4.916   2.443   1.172 -0.2230  1.2232 -0.2410
11905SOL     OW37582   3.274   7.809   3.341  0.3424 -0.1658 -0.6478
11905SOL    HW137583   3.301   7.894   3.306 -0.5842  0.0159 -0.9615
11905SOL    HW237584   3.355   7.758   3.346  0.5287 -0.2898 -3.3686
11906SOL     OW37585   4.852   3.290   3.783 -0.5969 -0.2482 -0.6978
11906SOL    HW137586   4.902   3.295   3.701 -0.0111  0.8184 -0.2899
11906SOL    HW237587   4.912   3.322   3.850 -1.5559  0.2951 -0.0767
11907SOL     OW37588   2.231   8.437   5.867  0.5326 -0.3390  0.2380
11907SOL    HW137589   2.150   8.487   5.853  0.4591 -0.9457 -1.8231
11907SOL    HW237590   2.221   8.400   5.955 -1.0756  0.2196  0.3250
11908SOL     OW37591   5.524   5.316   1.549 -0.0352 -0.4927 -0.2895
11908SOL    HW137592   5.464   5.324   1.474 -0.3309  1.9935  0.1167
11908SOL    HW237593   5.609   5.341   1.513 -0.3082  1.4182  0.3012
11909SOL     OW37594   0.143   6.245   5.657  0.3362 -0.4879 -0.0810
11909SOL    HW137595   0.158   6.268   5.749  0.4410 -0.3785 -0.1258
11909SOL    HW237596   0.073   6.304   5.629  1.9129  1.1499 -0.7519
11910SOL     OW37597   5.993   7.364   0.473 -0.0895  0.7265 -0.1338
11910SOL    HW137598   6.063   7.429   0.484  0.1452  1.1394 -3.3198
11910SOL    HW237599   5.960   7.378   0.385 -0.2882 -3.2372 -0.8865
11911SOL     OW37600   5.306   3.075   4.485  0.8318  0.4521 -0.2377
11911SOL    HW137601   5.288   3.124   4.565 -0.7254 -1.5591  0.7351
11911SOL    HW237602   5.233   3.014   4.478  1.8294 -0.5948 -2.2774
11912SOL     OW37603   7.987   0.740   5.992 -0.5304  0.1245  0.1184
11912SOL    HW137604   8.019   0.807   5.931  0.4777  0.7244  1.2610
11912SOL    HW237605   7.987   0.659   5.940 -0.4220  0.7411 -0.8861
11913SOL     OW37606   8.820   1.284   3.512  0.0530 -0.1928 -0.2081
11913SOL    HW137607   8.736   1.329   3.520 -0.5812 -0.9754 -2.1708
11913SOL    HW237608   8.798   1.192   3.499  1.1907 -0.3827 -0.9568
11914SOL     OW37609   4.128   8.468   6.755  0.1526  0.3459 -0.3259
11914SOL    HW137610   4.214   8.493   6.719  0.3254 -0.7378 -0.7015
11914SOL    HW237611   4.099   8.396   6.699  0.4455 -1.4531  1.6870
11915SOL     OW37612   7.606   7.626   0.393 -0.3752 -0.3195 -0.4095
11915SOL    HW137613   7.696   7.635   0.364 -0.6881  0.9025 -1.0715
11915SOL    HW237614   7.605   7.662   0.481 -0.4199  0.7545 -0.8288
11916SOL     OW37615   3.364   8.426   1.090 -0.2897  0.0657 -0.1673
11916SOL    HW137616   3.326   8.491   1.148  1.0124 -0.4726  1.3537
11916SOL    HW237617   3.289   8.380   1.052 -1.1772  0.9270  0.5018
11917SOL     OW37618   2.028   2.451   7.892  0.0424  0.5418  0.3605
11917SOL    HW137619   2.107   2.420   7.936 -0.6035 -1.2672  0.3618
11917SOL    HW237620   1.995   2.521   7.949 -0.4815 -1.3536  2.5823
11918SOL     OW37621   2.965   2.907   1.599 -0.2225 -0.2021 -0.2242
11918SOL    HW137622   2.907   2.836   1.569 -1.0770  0.4403 -0.1305
11918SOL    HW237623   2.989   2.953   1.518  0.7886 -0.9224 -0.3479
11919SOL     OW37624   0.301   8.547   4.485  0.4804 -0.2234 -0.9386
11919SOL    HW137625   0.226   8.492   4.461 -0.5860 -0.5438  2.5273
11919SOL    HW237626   0.280   8.634   4.452  0.2988 -1.0009 -3.0136
11920SOL     OW37627   4.667   5.753   0.285  0.0533  0.3748  0.1196
11920SOL    HW137628   4.694   5.833   0.330 -0.1868  1.2193 -1.1979
11920SOL    HW237629   4.662   5.778   0.193  1.1404 -1.4774 -0.4855
11921SOL     OW37630   2.067   4.039   4.346 -0.9059 -0.1682  0.2509
11921SOL    HW137631   2.110   3.969   4.395  1.5501  1.1119  0.0671
11921SOL    HW237632   2.066   4.007   4.256 -3.9247 -1.8054  0.7290
11922SOL     OW37633   5.099   5.260   8.476 -0.2702  0.1210 -0.2785
11922SOL    HW137634   5.109   5.313   8.555 -0.8111  0.2415 -0.2859
11922SOL    HW237635   5.023   5.297   8.432 -0.7471 -0.7542 -0.2076
11923SOL     OW37636   7.799   4.890   5.740 -0.4035  0.8680 -0.4578
11923SOL    HW137637   7.811   4.807   5.785  1.0464  1.3221  0.0554
11923SOL    HW237638   7.775   4.952   5.809 -2.3420  0.7458 -0.9583
11924SOL     OW37639   0.421   7.199   4.267 -0.1197 -0.5071 -0.1690
11924SOL    HW137640   0.395   7.279   4.220  1.9076  0.6603  0.5670
11924SOL    HW237641   0.478   7.231   4.337 -0.9975 -2.4288  1.5181
11925SOL     OW37642   6.788   7.361   6.465  0.8195  0.4805  0.0681
11925SOL    HW137643   6.719   7.339   6.528  1.6086  0.4589  0.9456
11925SOL    HW237644   6.819   7.276   6.433  0.1678  0.5026 -0.6344
11926SOL     OW37645   7.715   4.985   3.570  0.4774 -0.0762 -0.1352
11926SOL    HW137646   7.721   5.002   3.664 -0.1144  0.4652 -0.1891
11926SOL    HW237647   7.730   4.891   3.561  0.7381 -0.0941  0.4793
11927SOL     OW37648   3.527   2.694   3.337 -0.5108 -0.1983 -0.5422
11927SOL    HW137649   3.454   2.755   3.332  0.5482  1.1078 -0.6766
11927SOL    HW237650   3.530   2.653   3.250 -1.9882 -1.4169 -0.0713
11928SOL     OW37651   7.415   1.444   4.402  0.5273 -0.0724 -0.0660
11928SOL    HW137652   7.332   1.417   4.442  1.1068  1.2841  2.2150
11928SOL    HW237653   7.479   1.437   4.472  2.1260  0.0667 -1.4591
11929SOL     OW37654   4.114   1.989   5.364  0.0876 -0.0034  0.1630
11929SOL    HW137655   4.187   1.993   5.426 -0.6688  0.2135  1.0748
11929SOL    HW237656   4.091   2.080   5.348 -1.0442 -0.0828  1.2063
11930SOL     OW37657   5.850   1.690   0.145 -0.1996  0.4815  0.2081
11930SOL    HW137658   5.873   1.632   0.073  1.6480 -0.0517  1.1636
11930SOL    HW237659   5.903   1.769   0.131  1.5498 -0.3127  1.8408
11931SOL     OW37660   1.662   4.562   1.849  0.5554 -0.1176 -0.0897
11931SOL    HW137661   1.667   4.657   1.846  1.2208  0.0042  2.3925
11931SOL    HW237662   1.568   4.543   1.853  0.2698  0.2076 -3.0984
11932SOL     OW37663   7.935   7.510   4.849  0.5306  0.2945 -0.2891
11932SOL    HW137664   7.877   7.464   4.789  0.2846  0.4578 -0.1779
11932SOL    HW237665   7.960   7.444   4.914  1.2532 -0.0365 -0.8857
11933SOL     OW37666   6.096   7.339   3.208  0.1245 -0.3938 -0.1361
11933SOL    HW137667   6.040   7.406   3.169 -0.2561 -0.3590  0.4517
11933SOL    HW237668   6.177   7.343   3.158 -0.2926 -0.2446 -0.8166
11934SOL     OW37669   6.417   5.613   2.641 -0.2827 -0.2712 -0.0486
11934SOL    HW137670   6.325   5.636   2.657 -0.5051 -1.6348  0.7308
11934SOL    HW237671   6.417   5.518   2.634  1.0489 -0.2647 -0.3075
11935SOL     OW37672   1.385   2.177   2.904  0.1004 -0.4449 -0.1043
11935SOL    HW137673   1.302   2.192   2.950  0.8274 -0.7349  1.3460
11935SOL    HW237674   1.370   2.097   2.854 -1.0053  0.3756 -1.1397
11936SOL     OW37675   6.243   0.981   4.100  0.1941  0.3637 -0.4412
11936SOL    HW137676   6.148   0.970   4.106  0.2590  0.0731  0.1033
11936SOL    HW237677   6.268   1.016   4.186  0.6272  0.0743 -0.4515
11937SOL     OW37678   6.804   5.563   4.811 -0.1107  0.1737  0.8311
11937SOL    HW137679   6.739   5.566   4.881 -0.9531 -1.2500  0.1523
11937SOL    HW237680   6.888   5.554   4.856 -0.6029 -0.2853  1.6723
11938SOL     OW37681   7.188   3.926   3.014  0.1011 -0.0265  0.4755
11938SOL    HW137682   7.194   3.831   3.010 -2.0055 -0.2160  0.7091
11938SOL    HW237683   7.259   3.956   2.958  0.1196 -1.7711 -0.5256
11939SOL     OW37684   6.535   8.866   2.590 -0.5755 -0.4764  0.5158
11939SOL    HW137685   6.463   8.810   2.561  0.1876 -1.5330  0.6133
11939SOL    HW237686   6.608   8.806   2.604 -0.0340  0.4089  1.6499
11940SOL     OW37687   3.631   7.589   6.235  0.3600 -0.4022 -0.1374
11940SOL    HW137688   3.616   7.542   6.317 -0.8546 -2.2120 -1.3045
11940SOL    HW237689   3.605   7.527   6.167  2.5346  0.5622 -1.9798
11941SOL     OW37690   3.659   7.395   4.470 -0.4512 -0.0973 -0.6636
11941SOL    HW137691   3.622   7.352   4.393  1.2257  0.6570 -1.9741
11941SOL    HW237692   3.723   7.333   4.505 -0.8365 -0.2319 -0.1977
11942SOL     OW37693   0.581   3.282   3.738  0.0027  0.0162  0.2863
11942SOL    HW137694   0.563   3.306   3.647 -0.7576  1.3439  0.7720
11942SOL    HW237695   0.504   3.231   3.765 -0.1004  0.2252  0.3927
11943SOL     OW37696   0.559   7.414   4.407 -0.0311 -0.0322  0.0514
11943SOL    HW137697   0.519   7.469   4.474 -0.2599 -0.3394  0.1672
11943SOL    HW237698   0.641   7.385   4.445  0.8245  1.4377 -0.5749
11944SOL     OW37699   5.178   0.010   4.393  1.2369  0.5744  0.1504
11944SOL    HW137700   5.196  -0.052   4.322 -1.1167 -1.5224  1.2384
11944SOL    HW237701   5.252   0.001   4.452  0.8601 -1.4575  0.3842
11945SOL     OW37702   3.088   2.870   5.925 -0.0858  0.6114  0.0096
11945SOL    HW137703   3.173   2.851   5.967  0.2910 -1.5275 -1.5638
11945SOL    HW237704   3.108   2.940   5.863  0.9315 -0.8500 -1.3927
11946SOL     OW37705   1.737   1.060   5.383 -0.4296  0.1202 -0.1221
11946SOL    HW137706   1.645   1.070   5.360 -0.0126  1.8988 -1.2009
11946SOL    HW237707   1.737   1.046   5.478 -1.8314 -0.6305 -0.2086
11947SOL     OW37708   6.623   2.535   7.336  0.3983 -0.7494  0.1646
11947SOL    HW137709   6.634   2.520   7.242  0.8898 -2.4066  0.4553
11947SOL    HW237710   6.534   2.503   7.355 -0.0338  0.3798  0.1377
11948SOL     OW37711   3.806   2.224   6.756 -0.0633 -0.5733  0.4613
11948SOL    HW137712   3.746   2.151   6.770 -0.4726 -0.1966  0.6903
11948SOL    HW237713   3.755   2.302   6.779 -0.1203 -0.0846 -1.1980
11949SOL     OW37714   3.784   2.731   7.379 -0.5443  0.3316  0.2308
11949SOL    HW137715   3.794   2.653   7.324  0.2150  0.4595  0.1717
11949SOL    HW237716   3.743   2.796   7.322  0.9897  0.7337 -0.4629
11950SOL     OW37717   5.165   2.419   0.252  0.4657 -0.6283 -0.0409
11950SOL    HW137718   5.104   2.491   0.238  0.5184 -0.7434 -0.9192
11950SOL    HW237719   5.129   2.370   0.326  0.4174  0.2765  0.5375
11951SOL     OW37720   1.385   1.269   6.510 -0.2256  0.2490 -0.4336
11951SOL    HW137721   1.320   1.295   6.445  1.3300  0.1787 -2.0999
11951SOL    HW237722   1.438   1.203   6.465  1.0586  0.3799  0.8199
11952SOL     OW37723   1.968   2.284   2.412 -0.0383 -1.1290 -0.4328
11952SOL    HW137724   1.999   2.276   2.502  0.3878 -0.9444 -0.5584
11952SOL    HW237725   1.914   2.363   2.411  1.0138 -0.3961 -0.6222
11953SOL     OW37726   7.913   8.031   0.758 -0.3128 -0.5711  0.8917
11953SOL    HW137727   7.904   8.021   0.664 -0.6211  0.2001  0.8313
11953SOL    HW237728   7.894   7.943   0.793 -1.0613 -0.6642  0.2930
11954SOL     OW37729   1.083   6.652   4.832 -0.8660  0.0545 -0.1260
11954SOL    HW137730   1.100   6.669   4.739 -2.0115  0.4868 -0.2724
11954SOL    HW237731   1.032   6.571   4.832 -0.2462 -0.3491  0.1940
11955SOL     OW37732   0.165   7.598   0.480 -0.5722 -0.0687 -0.1197
11955SOL    HW137733   0.135   7.686   0.499 -0.7974 -0.2516  0.3983
11955SOL    HW237734   0.095   7.560   0.426 -0.2063  0.2534 -0.8427
11956SOL     OW37735   8.496   6.517   0.585  0.0624  0.1188 -0.1856
11956SOL    HW137736   8.539   6.580   0.642  1.0397  1.0939 -1.9034
11956SOL    HW237737   8.560   6.448   0.572  0.5551  0.7628 -1.4309
11957SOL     OW37738   8.880   3.293   8.526 -0.0546 -0.0376  0.0382
11957SOL    HW137739   8.853   3.202   8.542 -0.6718  0.2235  0.5478
11957SOL    HW237740   8.882   3.333   8.612  2.2669 -0.0871  0.0599
11958SOL     OW37741   6.488   3.791   2.447  0.2482  0.6450  1.1512
11958SOL    HW137742   6.550   3.861   2.425 -0.2893  1.7090  2.8224
11958SOL    HW237743   6.522   3.753   2.528  0.8559 -1.5081 -0.0373
11959SOL     OW37744   6.531   4.625   3.528 -0.1119  0.0955 -0.3515
11959SOL    HW137745   6.475   4.637   3.451 -0.7818 -2.7085 -0.4060
11959SOL    HW237746   6.614   4.593   3.493 -1.0446 -3.0940  0.0665
11960SOL     OW37747   6.870   6.254   5.567 -0.1818 -0.0810  0.8214
11960SOL    HW137748   6.918   6.315   5.622  0.6192 -1.0479  1.2351
11960SOL    HW237749   6.813   6.206   5.628  0.3691 -0.8369  0.7547
11961SOL     OW37750   4.881   1.096   5.771 -0.2743  0.1338  0.1438
11961SOL    HW137751   4.952   1.128   5.827  0.4456  0.1371 -0.7423
11961SOL    HW237752   4.850   1.175   5.726 -0.0404 -0.0549 -0.3483
11962SOL     OW37753   5.263   6.098   3.237  0.1468 -0.1123 -0.3293
11962SOL    HW137754   5.232   6.148   3.313  1.9115 -2.3562  2.0302
11962SOL    HW237755   5.344   6.141   3.210  0.9517 -0.8551  0.8383
11963SOL     OW37756   4.182   3.739   6.252 -0.0375  0.5638 -0.5642
11963SOL    HW137757   4.179   3.646   6.278  0.9899  0.6582 -0.0596
11963SOL    HW237758   4.092   3.769   6.262 -0.0810  0.0329  0.8364
11964SOL     OW37759   2.619   4.652   6.137  0.0118  0.3898 -0.0668
11964SOL    HW137760   2.598   4.595   6.064  1.2241 -1.1810  0.7458
11964SOL    HW237761   2.573   4.613   6.212 -0.6879  1.5926  0.1466
11965SOL     OW37762   1.801   2.381   3.849  0.7313 -0.1958  0.4271
11965SOL    HW137763   1.896   2.373   3.858  1.0749 -0.9451 -2.7122
11965SOL    HW237764   1.773   2.295   3.819 -0.7813  0.3680  0.1600
11966SOL     OW37765   7.451   4.388   7.103  0.0965  0.0982  0.2008
11966SOL    HW137766   7.501   4.422   7.029 -0.0692  1.4865  0.7113
11966SOL    HW237767   7.469   4.294   7.102  1.7023  0.3768 -0.3981
11967SOL     OW37768   3.469   0.746   3.806  0.1184  0.4499  0.0444
11967SOL    HW137769   3.538   0.694   3.765 -0.5621 -0.1595 -0.3429
11967SOL    HW237770   3.507   0.773   3.890 -0.1614 -2.3480  1.1877
11968SOL     OW37771   4.060   2.160   5.723 -0.1111  0.2674 -0.0198
11968SOL    HW137772   3.999   2.124   5.787  0.3768  0.0092  0.3119
11968SOL    HW237773   4.006   2.179   5.646 -0.6870  0.5109  0.4383
11969SOL     OW37774   4.135   0.278   8.099  0.1631  0.2164 -0.1526
11969SOL    HW137775   4.079   0.224   8.155  0.8541 -0.6373 -0.2659
11969SOL    HW237776   4.176   0.216   8.039  0.7381  0.9085 -0.4884
11970SOL     OW37777   5.272   8.413   4.185  0.7502 -0.1132 -0.2004
11970SOL    HW137778   5.295   8.480   4.249  0.2296 -0.4442  0.3419
11970SOL    HW237779   5.214   8.457   4.124 -0.7544 -0.4104  0.9650
11971SOL     OW37780   2.915   1.137   8.887 -0.0578 -0.1844  0.0623
11971SOL    HW137781   2.854   1.210   8.900  0.7929  0.4680  0.4094
11971SOL    HW237782   2.858   1.063   8.862 -1.0139  0.3572  0.5758
11972SOL     OW37783   7.494   5.160   0.890  0.1754  0.6210  0.2866
11972SOL    HW137784   7.423   5.181   0.830  0.3601  0.2353 -0.0697
11972SOL    HW237785   7.474   5.210   0.969 -1.1113 -0.3597  0.6149
11973SOL     OW37786   3.278   8.403   5.092 -0.0508  0.0054 -0.0851
11973SOL    HW137787   3.363   8.370   5.121 -0.0233  1.3763  1.6087
11973SOL    HW237788   3.246   8.338   5.031  2.0644 -0.7191 -0.4964
11974SOL     OW37789   6.153   0.525   7.211 -0.5312 -0.1034  0.4893
11974SOL    HW137790   6.145   0.611   7.252 -1.4665 -0.1861  0.5146
11974SOL    HW237791   6.083   0.523   7.146  2.6687  1.2042 -3.3910
11975SOL     OW37792   3.923   1.215   4.963  0.2368 -0.1044  0.3374
11975SOL    HW137793   3.989   1.178   5.022  1.3687  0.0605 -0.7731
11975SOL    HW237794   3.871   1.273   5.018  0.5976 -0.7467  1.3824
11976SOL     OW37795   6.875   5.356   1.872 -0.2358  0.3329 -0.1784
11976SOL    HW137796   6.856   5.407   1.794 -1.2748  0.0505 -0.1286
11976SOL    HW237797   6.791   5.319   1.898  0.5322 -1.7484 -0.4506
11977SOL     OW37798   5.498   5.615   2.038  0.0879 -0.3508 -0.2790
11977SOL    HW137799   5.497   5.686   1.974  1.4039  1.3633  1.4733
11977SOL    HW237800   5.452   5.543   1.995  2.1588  0.1559 -3.7326
11978SOL     OW37801   1.200   6.769   6.314  0.3740  0.0392 -0.4288
11978SOL    HW137802   1.234   6.714   6.385 -0.1077 -1.5645 -1.3755
11978SOL    HW237803   1.125   6.814   6.353  0.3917 -0.4685  0.2187
11979SOL     OW37804   2.187   8.548   6.726  0.6220  0.1156  0.7097
11979SOL    HW137805   2.182   8.536   6.631 -0.5646 -0.4183  0.8205
11979SOL    HW237806   2.280   8.563   6.743  0.8361  0.3608 -0.5455
11980SOL     OW37807   0.141   0.086   8.478  0.3568 -0.3823 -0.2164
11980SOL    HW137808   0.169   0.007   8.431 -0.8823  0.3547 -2.3385
11980SOL    HW237809   0.161   0.068   8.569 -1.3878 -3.9171 -0.3487
11981SOL     OW37810   1.952   4.288   7.601 -0.2431  0.3742  0.2525
11981SOL    HW137811   2.006   4.336   7.663 -1.4624  2.7802 -0.3990
11981SOL    HW237812   1.864   4.323   7.614 -0.7393  0.1622 -2.0407
11982SOL     OW37813   2.987   2.786   0.143  0.3393  0.4866 -0.0904
11982SOL    HW137814   3.026   2.803   0.058 -0.6831 -0.6100 -0.7987
11982SOL    HW237815   2.942   2.702   0.133 -0.3791  0.6745  1.3234
11983SOL     OW37816   1.209   3.458   3.095  0.8234 -0.0426 -0.0074
11983SOL    HW137817   1.150   3.389   3.064  0.6493  0.4490 -0.7933
11983SOL    HW237818   1.157   3.538   3.091  0.7565  0.0361  1.7018
11984SOL     OW37819   1.724   3.392   8.127  0.7184 -0.0461 -0.0765
11984SOL    HW137820   1.797   3.355   8.078  1.9161  0.7361  1.0557
11984SOL    HW237821   1.746   3.485   8.136 -0.4378  0.2150  0.2559
11985SOL     OW37822   5.745   6.935   3.986 -0.1784  0.0527  0.3378
11985SOL    HW137823   5.738   6.986   3.906  0.0982  1.7362  1.3307
11985SOL    HW237824   5.800   6.861   3.963 -2.2993 -1.0181 -1.7151
11986SOL     OW37825   2.888   2.410   0.319 -0.2674 -0.2662 -0.1493
11986SOL    HW137826   2.961   2.353   0.295 -0.3016 -0.2446 -0.3031
11986SOL    HW237827   2.920   2.459   0.395 -0.1884 -0.3895 -0.1016
11987SOL     OW37828   5.289   2.210   2.315  0.6676 -0.3371  0.5803
11987SOL    HW137829   5.330   2.131   2.350  2.4357  0.6046  0.7859
11987SOL    HW237830   5.204   2.181   2.281  0.9792 -2.1711  1.2684
11988SOL     OW37831   1.362   3.686   1.784 -0.4376  0.2213 -0.2948
11988SOL    HW137832   1.435   3.736   1.820 -0.3278 -0.6138  0.7049
11988SOL    HW237833   1.286   3.717   1.833 -0.2366 -1.1582  0.9511
11989SOL     OW37834   7.479   7.151   1.979 -0.1165 -0.1258 -0.0741
11989SOL    HW137835   7.527   7.231   2.002  0.8090 -0.8594  0.6019
11989SOL    HW237836   7.429   7.130   2.058  0.6972 -0.9567  0.2338
11990SOL     OW37837   4.048   1.609   7.625  0.0485  0.1679  0.1454
11990SOL    HW137838   3.955   1.597   7.645 -0.5185  0.7855 -1.8861
11990SOL    HW237839   4.091   1.535   7.669 -1.1104  0.8572  2.6472
11991SOL     OW37840   2.298   4.637   0.581 -0.4419  0.1357 -0.3165
11991SOL    HW137841   2.268   4.547   0.565 -3.4202  0.9655 -0.1234
11991SOL    HW237842   2.391   4.629   0.599 -0.3370 -2.7520 -1.6210
11992SOL     OW37843   3.183   0.637   0.532  0.4478  0.1484  0.1155
11992SOL    HW137844   3.173   0.652   0.438 -2.5183  0.0473  0.3313
11992SOL    HW237845   3.170   0.724   0.571 -0.6438 -0.1947  0.5346
11993SOL     OW37846   0.156   4.168   1.256 -0.6735 -0.1275  0.4906
11993SOL    HW137847   0.166   4.095   1.194 -2.9162  0.1650 -0.3094
11993SOL    HW237848   0.062   4.174   1.271 -0.3473  1.1986  2.3110
11994SOL     OW37849   6.734   5.861   1.387 -0.5663  0.2515  0.1747
11994SOL    HW137850   6.685   5.805   1.327  1.5803 -1.3357 -0.2235
11994SOL    HW237851   6.677   5.937   1.401 -3.3908 -1.7619  0.3614
11995SOL     OW37852   8.681   3.747   3.028 -0.8442  0.0438 -0.4904
11995SOL    HW137853   8.619   3.677   3.006 -0.0412  0.0641 -3.0989
11995SOL    HW237854   8.633   3.802   3.090 -1.5444 -2.6799  1.5690
11996SOL     OW37855   6.549   7.123   5.585 -0.4911 -0.0529  0.1446
11996SOL    HW137856   6.576   7.046   5.635  0.7733 -0.4100 -1.0275
11996SOL    HW237857   6.507   7.088   5.507 -1.9174  0.5014  0.6228
11997SOL     OW37858   6.235   5.865   5.541  0.0318 -0.5968 -0.1333
11997SOL    HW137859   6.187   5.783   5.537  1.4526 -1.4045 -2.6693
11997SOL    HW237860   6.190   5.922   5.478  0.6399 -0.3937 -0.3964
11998SOL     OW37861   6.343   1.782   5.684 -0.2699  0.1824  0.0789
11998SOL    HW137862   6.371   1.831   5.762 -1.3589 -0.5118  0.9219
11998SOL    HW237863   6.392   1.700   5.689  0.5907  0.6368 -0.6491
11999SOL     OW37864   5.178   5.888   3.817  0.3921  0.8784 -0.4451
11999SOL    HW137865   5.165   5.941   3.738 -2.5581 -0.4184 -0.9777
11999SOL    HW237866   5.229   5.813   3.788  0.1337  0.8806 -0.9169
12000SOL     OW37867   7.616   4.966   7.000  0.3278  0.0153  0.4196
12000SOL    HW137868   7.655   5.045   6.963  1.0086  0.1433  1.3801
12000SOL    HW237869   7.640   4.968   7.092 -2.6783  0.5370  1.2919
12001SOL     OW37870   2.117   8.583   7.911  0.4566 -0.8383 -0.3147
12001SOL    HW137871   2.066   8.655   7.871 -2.1355 -1.2055  1.9618
12001SOL    HW237872   2.177   8.628   7.971  0.7071 -0.4960 -0.8099
12002SOL     OW37873   8.597   5.137   5.762  0.0984  1.0189 -0.1161
12002SOL    HW137874   8.596   5.095   5.676  0.3524  1.7659 -0.4917
12002SOL    HW237875   8.623   5.227   5.744 -0.6007  1.3855  0.6585
12003SOL     OW37876   3.170   6.472   3.056  0.0359  0.1386  0.2763
12003SOL    HW137877   3.194   6.523   2.978  0.6310 -0.5275  0.0056
12003SOL    HW237878   3.173   6.535   3.128  1.0470  0.4426 -0.0073
12004SOL     OW37879   0.297   4.478   5.548 -0.0808  0.0073  0.7075
12004SOL    HW137880   0.231   4.547   5.560 -0.3775 -0.0328 -0.6093
12004SOL    HW237881   0.257   4.417   5.486  1.2167 -0.0043 -0.1417
12005SOL     OW37882   4.967   7.654   5.448 -0.4460  0.2163  0.0302
12005SOL    HW137883   4.930   7.574   5.411  1.5653 -1.2430  1.0117
12005SOL    HW237884   5.046   7.671   5.397  0.0945  0.5564  0.9474
12006SOL     OW37885   2.301   6.486   1.590  0.0172 -0.2446  0.1105
12006SOL    HW137886   2.257   6.559   1.633  2.5218  0.4587  1.6889
12006SOL    HW237887   2.314   6.516   1.499 -1.8381 -0.1184 -0.1446
12007SOL     OW37888   1.099   3.208   7.223 -0.3126 -0.3922 -0.2659
12007SOL    HW137889   1.103   3.228   7.129  2.6136 -0.1711 -0.1783
12007SOL    HW237890   1.092   3.113   7.227  1.5660 -0.5844 -0.7641
12008SOL     OW37891   3.048   7.123   8.291  0.0289 -0.2137  0.5215
12008SOL    HW137892   3.121   7.176   8.258  0.8439 -2.0176 -0.6709
12008SOL    HW237893   2.979   7.134   8.226 -0.3507  0.4991  1.0226
12009SOL     OW37894   4.487   0.027   4.696  0.5245  0.5797 -0.0129
12009SOL    HW137895   4.503   0.085   4.621  1.0074  0.5447  0.0606
12009SOL    HW237896   4.574  -0.001   4.723  0.2504 -1.4242 -1.0009
12010SOL     OW37897   7.432   5.705   1.800 -0.1108  0.4037 -0.1681
12010SOL    HW137898   7.410   5.708   1.707  0.0671 -1.2627 -0.2784
12010SOL    HW237899   7.405   5.791   1.833  1.4459  1.7334 -2.0950
12011SOL     OW37900   2.789   0.884   8.818  0.2339  0.8021  0.0560
12011SOL    HW137901   2.715   0.939   8.793  0.5921  1.5900  0.6733
12011SOL    HW237902   2.796   0.820   8.748  0.2842  2.0216 -1.0883
12012SOL     OW37903   2.979   1.482   2.656 -0.1315  0.1862  0.3231
12012SOL    HW137904   2.907   1.529   2.613  0.4916  0.1777 -0.7541
12012SOL    HW237905   3.002   1.412   2.595  0.2001 -0.3578  1.0679
12013SOL     OW37906   5.659   2.651   0.790  0.4104 -0.2320  0.6331
12013SOL    HW137907   5.653   2.673   0.697  0.6474  0.8172  0.8523
12013SOL    HW237908   5.752   2.634   0.804  0.3025 -0.8823  0.5778
12014SOL     OW37909   2.395   4.530   1.781  0.0389  0.0690 -0.0779
12014SOL    HW137910   2.409   4.516   1.687 -0.0251 -1.0183  0.0618
12014SOL    HW237911   2.479   4.563   1.813 -0.2368  1.4527 -0.6770
12015SOL     OW37912   8.174   3.892   5.448  0.1067 -0.0753 -0.6385
12015SOL    HW137913   8.110   3.962   5.435  0.5491  0.2946 -0.8797
12015SOL    HW237914   8.149   3.824   5.386 -1.9890 -1.3634  1.4533
12016SOL     OW37915   2.673   4.042   2.452  0.1561 -0.0542  0.4006
12016SOL    HW137916   2.686   4.128   2.492  2.4441 -0.0136 -0.2996
12016SOL    HW237917   2.611   3.998   2.511  0.0601  1.5309  1.5697
12017SOL     OW37918   4.289   6.553   7.536  0.0100 -0.0190  0.7847
12017SOL    HW137919   4.297   6.581   7.627  0.0144  0.8950  0.5115
12017SOL    HW237920   4.378   6.527   7.511  0.5890  2.2695  0.2532
12018SOL     OW37921   3.286   6.078   8.688 -0.0498 -0.3086 -0.2276
12018SOL    HW137922   3.237   6.098   8.768  0.1700 -0.5060 -0.0451
12018SOL    HW237923   3.361   6.137   8.691 -0.5116  0.3192 -0.7358
12019SOL     OW37924   4.465   7.614   8.585  0.4230 -0.2441 -0.1196
12019SOL    HW137925   4.514   7.690   8.552 -0.2144 -0.0319 -0.6013
12019SOL    HW237926   4.483   7.545   8.521  0.2981 -0.2364 -0.1640
12020SOL     OW37927   7.661   4.321   0.505  0.3437  0.1146 -0.5570
12020SOL    HW137928   7.582   4.296   0.554 -0.3666  1.0459 -1.2025
12020SOL    HW237929   7.724   4.345   0.572  0.0155 -0.4239 -0.0387
12021SOL     OW37930   0.262   2.053   6.066  0.6786 -0.0983  0.1099
12021SOL    HW137931   0.310   1.970   6.065  0.3914 -0.2916 -1.8935
12021SOL    HW237932   0.330   2.120   6.058  0.8010 -0.2346  0.0032
12022SOL     OW37933   2.555   2.129   3.325 -0.1295  0.2985  0.2304
12022SOL    HW137934   2.606   2.208   3.302  2.2742 -1.4637 -0.9878
12022SOL    HW237935   2.556   2.127   3.420 -0.8397  2.0472  0.3287
12023SOL     OW37936   0.985   5.631   1.133  0.2106 -0.4908  0.2287
12023SOL    HW137937   0.934   5.661   1.208  0.3159  1.4404 -0.4121
12023SOL    HW237938   1.076   5.640   1.160  0.2654  0.8816 -0.3260
12024SOL     OW37939   6.775   8.658   4.911 -0.6306 -0.0868  0.3371
12024SOL    HW137940   6.851   8.610   4.943 -0.4822  0.4320  0.7769
12024SOL    HW237941   6.773   8.737   4.964 -0.6125  0.6082 -0.6804
12025SOL     OW37942   7.329   0.752   4.570 -0.2254 -0.2570 -0.0408
12025SOL    HW137943   7.296   0.663   4.576 -0.7200 -0.2922 -2.3963
12025SOL    HW237944   7.286   0.799   4.641 -1.0997 -1.5479  0.3088
12026SOL     OW37945   0.686   7.019   8.228  0.1833 -0.3724  0.3588
12026SOL    HW137946   0.659   6.928   8.210 -0.3591  0.0027 -0.8682
12026SOL    HW237947   0.679   7.062   8.143  2.3483  0.3554  0.4988
12027SOL     OW37948   3.907   4.862   8.121 -0.1299 -0.1295 -0.1800
12027SOL    HW137949   3.934   4.930   8.059  0.2960 -0.3726 -0.2634
12027SOL    HW237950   3.918   4.780   8.072  0.0976 -0.3148  0.1803
12028SOL     OW37951   7.010   5.421   7.965  0.1506 -0.2717  0.1939
12028SOL    HW137952   6.961   5.346   7.932 -1.1661 -0.0224  1.4808
12028SOL    HW237953   6.951   5.495   7.956  1.0102  0.4148  0.0040
12029SOL     OW37954   7.821   4.885   0.393  0.1236  0.0873 -0.1336
12029SOL    HW137955   7.746   4.827   0.409 -0.6596  0.9159 -0.7254
12029SOL    HW237956   7.882   4.865   0.464 -0.1795 -1.3658 -0.2482
12030SOL     OW37957   2.419   0.597   1.574 -0.0092 -0.2409  0.3634
12030SOL    HW137958   2.389   0.677   1.533  2.3120  0.5831  0.1547
12030SOL    HW237959   2.369   0.592   1.656 -1.5866  0.3286 -0.5173
12031SOL     OW37960   1.603   8.036   6.084 -0.0565 -0.6337  0.2865
12031SOL    HW137961   1.537   8.073   6.142  0.8767 -0.7123  1.4313
12031SOL    HW237962   1.682   8.088   6.100 -0.0200 -0.0248 -1.6464
12032SOL     OW37963   7.362   1.044   6.738 -0.0392  0.5351 -0.0688
12032SOL    HW137964   7.412   1.015   6.814  2.1229 -0.9436 -1.9122
12032SOL    HW237965   7.347   1.137   6.753  1.3008  0.5264  1.6380
12033SOL     OW37966   5.393   7.309   1.023  0.0681  0.3446  0.6957
12033SOL    HW137967   5.381   7.306   1.118 -1.6773 -0.6393  0.4937
12033SOL    HW237968   5.341   7.383   0.994  0.6543  0.6883  0.4936
12034SOL     OW37969   5.766   7.134   8.869  0.4630 -0.0288 -0.4930
12034SOL    HW137970   5.684   7.172   8.837 -0.3416 -1.2306  0.0665
12034SOL    HW237971   5.818   7.209   8.897  0.0638  0.8558 -1.9620
12035SOL     OW37972   3.606   2.849   2.234 -0.2647 -0.1611  0.1972
12035SOL    HW137973   3.609   2.761   2.272 -0.9648 -0.5449 -0.5941
12035SOL    HW237974   3.526   2.849   2.181  0.0024  0.7833 -0.2162
12036SOL     OW37975   7.066   5.066   0.158  0.2875 -0.5814 -0.1225
12036SOL    HW137976   7.004   5.139   0.152  1.5914  0.8653  2.3716
12036SOL    HW237977   7.014   4.989   0.137 -1.7448  0.8147 -0.5170
12037SOL     OW37978   3.041   1.815   0.265 -0.1264  0.4146  0.0723
12037SOL    HW137979   3.088   1.823   0.183 -0.4877  1.5074 -0.0433
12037SOL    HW237980   2.989   1.895   0.271  2.2028  1.9231  2.8318
12038SOL     OW37981   5.760   5.598   7.459 -0.6082 -0.0730 -0.2599
12038SOL    HW137982   5.727   5.508   7.451 -1.2824 -0.0210  1.5978
12038SOL    HW237983   5.719   5.644   7.386 -3.6877 -0.3225  1.1893
12039SOL     OW37984   4.965   1.835   4.176 -0.1596  0.2779 -0.2598
12039SOL    HW137985   4.902   1.839   4.104  2.3237 -1.5443 -2.7689
12039SOL    HW237986   4.982   1.741   4.188  0.8374  0.6340  1.4868
12040SOL     OW37987   5.868   7.819   0.652  0.2736 -0.0939  0.7909
12040SOL    HW137988   5.857   7.881   0.579  0.8996 -0.0966  0.6801
12040SOL    HW237989   5.839   7.867   0.729  0.7814  0.3559  0.7095
12041SOL     OW37990   4.987   5.368   5.812 -0.6263  0.4835 -0.1830
12041SOL    HW137991   4.945   5.358   5.726  1.0286 -1.1091 -0.8643
12041SOL    HW237992   4.934   5.315   5.871 -0.1443 -0.7790 -0.8503
12042SOL     OW37993   1.659   1.398   4.267  0.1298 -0.3590 -0.2078
12042SOL    HW137994   1.587   1.391   4.331  0.2609  0.4874  0.0534
12042SOL    HW237995   1.735   1.421   4.320  0.2690  0.2219 -0.6463
12043SOL     OW37996   6.369   7.859   3.656 -0.1503  0.4854  0.0666
12043SOL    HW137997   6.387   7.864   3.750  0.9446 -1.1127 -0.0063
12043SOL    HW237998   6.448   7.893   3.615  0.3740 -1.0249 -0.2513
12044SOL     OW37999   1.817   2.922   8.189 -0.3245  0.1273 -0.0249
12044SOL    HW138000   1.910   2.943   8.183 -0.7814  2.5512  0.2974
12044SOL    HW238001   1.785   2.928   8.099  0.0059 -1.9142 -0.3221
12045SOL     OW38002   7.428   1.694   6.156 -0.1150 -0.1709 -0.1034
12045SOL    HW138003   7.481   1.772   6.139  0.6872 -1.0044 -1.6872
12045SOL    HW238004   7.492   1.623   6.166 -0.8605 -0.8078  0.3165
12046SOL     OW38005   0.838   7.067   5.740  0.0903 -0.1509 -0.4679
12046SOL    HW138006   0.901   7.006   5.701  1.5632 -0.1931  1.7549
12046SOL    HW238007   0.888   7.148   5.752 -0.5252  0.1040  0.5063
12047SOL     OW38008   6.461   3.901   3.113  0.4146  0.2106  0.0942
12047SOL    HW138009   6.469   3.948   3.195  1.6376 -0.0286  0.1355
12047SOL    HW238010   6.541   3.923   3.065 -0.7486  1.1851 -1.4832
12048SOL     OW38011   5.916   1.320   4.670 -0.5297  0.2836  0.1918
12048SOL    HW138012   5.953   1.308   4.757  1.4907 -0.0020 -0.6583
12048SOL    HW238013   5.991   1.343   4.615 -1.3501 -1.7427 -1.9106
12049SOL     OW38014   6.768   3.979   0.481  0.5728  0.0514 -0.2606
12049SOL    HW138015   6.798   4.045   0.543  1.1687 -0.0362 -0.4527
12049SOL    HW238016   6.824   3.903   0.498 -0.6183 -0.6903  0.5016
12050SOL     OW38017   1.828   7.481   0.054 -0.1862  0.3090  0.5513
12050SOL    HW138018   1.793   7.400   0.018 -2.7584 -0.3989  4.1193
12050SOL    HW238019   1.912   7.456   0.093  1.0006  0.3858 -1.7673
12051SOL     OW38020   5.079   8.818   2.518 -0.3272  0.0987 -0.2362
12051SOL    HW138021   5.103   8.727   2.504  0.7567  0.2547  0.5529
12051SOL    HW238022   5.161   8.862   2.541 -0.9798  1.1053  0.2493
12052SOL     OW38023   5.636   0.850   3.248 -0.3721  0.2249 -0.0542
12052SOL    HW138024   5.590   0.828   3.167  0.0454 -1.2627  0.0897
12052SOL    HW238025   5.566   0.875   3.309 -1.0186 -1.8007  0.0970
12053SOL     OW38026   4.678   5.829   4.745  0.0870  1.0388  0.5943
12053SOL    HW138027   4.692   5.858   4.835  0.9527  1.2173  0.4044
12053SOL    HW238028   4.765   5.826   4.706  0.1101 -2.0135  0.6572
12054SOL     OW38029   0.183   7.264   8.761  0.2797 -0.1327 -0.0912
12054SOL    HW138030   0.181   7.213   8.842 -1.6022 -0.4935 -0.3207
12054SOL    HW238031   0.112   7.228   8.708 -0.0727  1.6783 -0.9333
12055SOL     OW38032   8.121   3.305   5.259 -0.7584 -0.7378 -0.0483
12055SOL    HW138033   8.035   3.339   5.236 -0.5782 -0.6946 -0.6788
12055SOL    HW238034   8.154   3.365   5.326 -1.1082 -0.6039  0.0063
12056SOL     OW38035   3.029   3.778   1.774  0.0321  0.7949  0.4148
12056SOL    HW138036   3.113   3.734   1.791 -0.0755  0.4895  0.1662
12056SOL    HW238037   3.035   3.806   1.683 -0.2209  0.5791  0.3295
12057SOL     OW38038   5.851   2.701   3.376 -0.1472 -0.2451  0.1902
12057SOL    HW138039   5.854   2.606   3.391  0.8857  0.0414  2.0392
12057SOL    HW238040   5.762   2.726   3.399 -0.0881 -0.6092  0.8530
12058SOL     OW38041   5.340   2.471   3.594 -0.0804  0.3010 -0.2039
12058SOL    HW138042   5.387   2.545   3.553  0.6225 -0.2435 -0.4020
12058SOL    HW238043   5.252   2.475   3.556  0.1838  0.5705 -0.8081
12059SOL     OW38044   0.830   1.615   2.344  0.1071  0.3890  0.0369
12059SOL    HW138045   0.863   1.609   2.254 -0.5850  0.8962 -0.2578
12059SOL    HW238046   0.852   1.704   2.371 -0.3365  0.4782  0.1076
12060SOL     OW38047   6.236   1.612   4.188 -0.7907 -0.4111  0.3612
12060SOL    HW138048   6.214   1.520   4.178 -1.5174 -0.2467  0.4093
12060SOL    HW238049   6.325   1.619   4.154 -0.4419 -1.2647  1.0618
12061SOL     OW38050   4.679   3.823   1.000 -0.1332 -0.2775  0.3808
12061SOL    HW138051   4.652   3.735   0.973 -1.3137  0.0702  0.3660
12061SOL    HW238052   4.703   3.866   0.918 -1.6615  0.0909  0.0934
12062SOL     OW38053   7.761   2.300   3.336  0.0663  0.6119 -0.5459
12062SOL    HW138054   7.851   2.266   3.338 -0.0161  0.3526 -0.9967
12062SOL    HW238055   7.712   2.241   3.392  0.3925  1.4265  0.6298
12063SOL     OW38056   6.315   4.266   1.965  0.1300  1.2384 -0.0336
12063SOL    HW138057   6.382   4.281   2.032  1.6260  1.4840 -1.5190
12063SOL    HW238058   6.364   4.238   1.888 -1.6303 -0.0222 -0.7576
12064SOL     OW38059   2.705   4.243   6.117  0.1212 -0.1694  0.3290
12064SOL    HW138060   2.760   4.280   6.186  0.1543 -0.1890  0.3135
12064SOL    HW238061   2.643   4.312   6.096 -1.8351 -1.1448  2.4499
12065SOL     OW38062   5.501   3.018   6.602  0.4238  0.2820 -0.0935
12065SOL    HW138063   5.488   2.987   6.513 -0.2848 -0.3096  0.2050
12065SOL    HW238064   5.489   2.940   6.656 -0.6317  0.9193  0.6244
12066SOL     OW38065   1.631   0.982   7.606 -0.4066  0.0999  0.2850
12066SOL    HW138066   1.663   0.930   7.532 -0.1047  1.0682 -0.2787
12066SOL    HW238067   1.545   1.014   7.578 -0.2987  0.4572  0.3605
12067SOL     OW38068   6.322   7.437   6.584  0.0726 -0.0302  1.1554
12067SOL    HW138069   6.397   7.385   6.615  0.7693  0.5723  0.5294
12067SOL    HW238070   6.266   7.372   6.540  1.6262 -0.1154 -0.8861
12068SOL     OW38071   3.348   3.608   0.249  0.2712 -0.4315 -0.2798
12068SOL    HW138072   3.307   3.538   0.198 -0.4043 -0.8147  0.7646
12068SOL    HW238073   3.318   3.594   0.339 -0.3567  1.5531 -0.1309
12069SOL     OW38074   4.347   4.288   5.954 -0.5567 -0.4520  0.2659
12069SOL    HW138075   4.422   4.239   5.918  1.7625  2.0476  1.3422
12069SOL    HW238076   4.351   4.271   6.048 -1.5041 -0.4333  0.3176
12070SOL     OW38077   1.218   5.679   4.229 -0.3665 -0.2706  0.2497
12070SOL    HW138078   1.231   5.773   4.217  0.2616 -0.5010 -1.0862
12070SOL    HW238079   1.128   5.671   4.260 -1.1417  0.6512 -1.6285
12071SOL     OW38080   6.946   8.907   8.061  0.2385  0.0457 -0.3017
12071SOL    HW138081   6.888   8.891   8.136 -0.0821 -1.4743 -0.8404
12071SOL    HW238082   7.024   8.945   8.100  0.4622 -1.5931  0.9646
12072SOL     OW38083   3.102   8.867   7.079 -0.6375 -0.0226 -0.3723
12072SOL    HW138084   3.194   8.843   7.076 -0.2639  1.2505  0.4519
12072SOL    HW238085   3.071   8.833   7.163  0.2507  3.3522  1.5060
12073SOL     OW38086   7.827   1.321   0.667  0.2804 -0.0709 -0.3808
12073SOL    HW138087   7.916   1.353   0.650 -0.5521  1.4389 -2.2010
12073SOL    HW238088   7.789   1.386   0.726 -0.7795  1.4133 -2.5668
12074SOL     OW38089   5.532   8.740   8.401 -0.0748  0.2179  0.6992
12074SOL    HW138090   5.459   8.711   8.346  0.0580  2.6723 -0.8792
12074SOL    HW238091   5.600   8.766   8.340  0.2844  2.5335  1.9690
12075SOL     OW38092   3.750   0.490   6.300 -0.8332 -0.3327 -0.0891
12075SOL    HW138093   3.823   0.445   6.257  0.1482  1.3509 -0.2557
12075SOL    HW238094   3.762   0.469   6.393 -1.0809 -1.3434 -0.2687
12076SOL     OW38095   1.180   1.773   5.857 -0.3368 -0.0186  0.0620
12076SOL    HW138096   1.181   1.868   5.845 -1.1036  0.0822  0.7281
12076SOL    HW238097   1.087   1.750   5.860 -0.2586 -1.2337 -3.2272
12077SOL     OW38098   4.376   2.498   2.577  0.6390  0.1499 -0.0154
12077SOL    HW138099   4.394   2.409   2.546 -2.1094 -0.4849 -0.0227
12077SOL    HW238100   4.385   2.492   2.672 -1.1971 -0.6220  0.1426
12078SOL     OW38101   6.819   5.867   1.713  0.4010 -0.0922  0.7465
12078SOL    HW138102   6.908   5.834   1.721  0.7493  1.0192  1.6335
12078SOL    HW238103   6.829   5.956   1.679 -0.5707 -1.1453 -2.6095
12079SOL     OW38104   8.048   0.941   5.828 -0.1671 -0.3088 -0.3703
12079SOL    HW138105   8.071   0.941   5.735 -0.6207  1.7698 -0.5417
12079SOL    HW238106   8.129   0.969   5.872 -0.7691  1.7308 -0.4710
12080SOL     OW38107   6.963   2.004   0.924  0.2865 -0.0998 -0.2314
12080SOL    HW138108   6.923   1.986   0.839  2.0156 -0.3858 -1.0263
12080SOL    HW238109   7.001   2.091   0.914  1.5260 -0.6226 -0.1742
12081SOL     OW38110   2.685   3.301   2.103  0.0548  0.2169  0.4560
12081SOL    HW138111   2.591   3.284   2.101 -0.1271  1.1522  0.8313
12081SOL    HW238112   2.722   3.239   2.040 -0.5820 -1.5359  1.7141
12082SOL     OW38113   1.055   5.036   6.908  0.2084  0.0568 -0.0699
12082SOL    HW138114   0.970   5.079   6.894  0.1971  0.3915  0.9754
12082SOL    HW238115   1.111   5.105   6.944  0.6504 -0.4148  0.1537
12083SOL     OW38116   7.727   6.363   4.227 -0.0700  0.6548  0.1503
12083SOL    HW138117   7.784   6.386   4.301  0.6898  0.0696 -0.2361
12083SOL    HW238118   7.671   6.440   4.215 -0.5118  0.5895  1.6049
12084SOL     OW38119   7.287   1.047   1.969  0.3628 -0.2679 -0.7849
12084SOL    HW138120   7.300   0.963   2.012  2.5543  0.1372 -0.5285
12084SOL    HW238121   7.215   1.033   1.908 -0.4902 -1.8158  0.5167
12085SOL     OW38122   0.364   1.619   4.335  0.2832  0.0046 -0.5219
12085SOL    HW138123   0.312   1.577   4.267 -0.0824  1.3196 -1.0826
12085SOL    HW238124   0.322   1.593   4.417 -0.5969  0.1612 -0.9150
12086SOL     OW38125   0.766   4.599   1.870 -0.0382 -0.1384 -0.1800
12086SOL    HW138126   0.696   4.625   1.810 -0.0704 -1.6579 -0.8284
12086SOL    HW238127   0.785   4.679   1.920 -1.2108  0.6876 -1.0007
12087SOL     OW38128   4.081   1.537   0.675  0.0009  0.1236  0.5403
12087SOL    HW138129   4.168   1.532   0.636  0.4696 -1.0459  1.6612
12087SOL    HW238130   4.095   1.512   0.767 -1.7060 -1.4074  0.4331
12088SOL     OW38131   7.597   7.225   8.971  1.2311 -0.0240  0.3400
12088SOL    HW138132   7.514   7.207   9.015  0.8692  1.1658  0.1706
12088SOL    HW238133   7.638   7.139   8.963  0.2327 -0.5741  0.8480
12089SOL     OW38134   3.082   3.424   4.999 -0.0177  0.1680  0.0406
12089SOL    HW138135   3.039   3.427   5.084  1.0979 -2.4412  0.7980
12089SOL    HW238136   3.175   3.432   5.019  0.2033  0.7140 -1.0956
12090SOL     OW38137   3.304   1.909   4.572  0.4356  0.5669 -0.4687
12090SOL    HW138138   3.354   1.834   4.543 -0.7296  0.1071 -1.3861
12090SOL    HW238139   3.350   1.985   4.534  1.3938  0.3033  0.1441
12091SOL     OW38140   1.298   3.453   3.664  0.3920 -0.0121  0.1749
12091SOL    HW138141   1.223   3.396   3.650  0.1296  0.2314  0.5781
12091SOL    HW238142   1.263   3.527   3.714  0.8120  0.3034  0.0084
12092SOL     OW38143   6.900   8.727   8.305  0.4500 -0.4533  0.2661
12092SOL    HW138144   6.833   8.683   8.357 -0.7289 -0.0872 -0.8640
12092SOL    HW238145   6.925   8.663   8.239  0.5311 -0.2776  0.1243
12093SOL     OW38146   3.780   8.123   3.705 -0.9757  0.0551 -0.4538
12093SOL    HW138147   3.752   8.214   3.695 -0.8155  0.2228  0.5145
12093SOL    HW238148   3.855   8.114   3.646 -0.6989  0.6908 -0.2105
12094SOL     OW38149   5.404   7.406   0.610  0.1157 -0.0969 -0.4185
12094SOL    HW138150   5.392   7.333   0.672  1.7742  0.6661  0.8835
12094SOL    HW238151   5.315   7.432   0.586 -0.6970  0.3646  2.6473
12095SOL     OW38152   2.582   1.881   5.611 -0.0404 -0.2434 -0.4417
12095SOL    HW138153   2.639   1.945   5.567 -0.5971 -1.1365 -2.5936
12095SOL    HW238154   2.624   1.866   5.695  1.5838  0.9237 -0.9860
12096SOL     OW38155   5.833   2.715   0.021  0.4754 -0.4597 -0.0020
12096SOL    HW138156   5.801   2.630  -0.010  2.3561 -1.6327  1.0956
12096SOL    HW238157   5.920   2.697   0.055  0.7113  1.8317  0.7646
12097SOL     OW38158   6.378   1.479   6.151 -0.0685 -0.1629 -0.1213
12097SOL    HW138159   6.451   1.527   6.112 -1.0709 -1.0829 -3.4213
12097SOL    HW238160   6.302   1.536   6.138 -0.4467 -0.4792  0.6101
12098SOL     OW38161   3.701   3.737   6.596 -0.5134 -0.0380 -0.4057
12098SOL    HW138162   3.686   3.662   6.538 -0.1463 -0.6293  0.2492
12098SOL    HW238163   3.781   3.716   6.644 -0.7064  0.5169  0.1906
12099SOL     OW38164   2.666   5.643   2.580 -0.4111  0.2679  0.3681
12099SOL    HW138165   2.652   5.699   2.504  1.9050 -1.5689 -1.6035
12099SOL    HW238166   2.762   5.639   2.590 -0.5075 -2.3848  1.0807
12100SOL     OW38167   0.123   8.824   6.210  0.1595  0.6038  0.0814
12100SOL    HW138168   0.153   8.746   6.164 -0.4725  1.1165 -1.2700
12100SOL    HW238169   0.033   8.804   6.236 -0.3554  1.2030 -1.1445
12101SOL     OW38170   4.630   0.246   7.572 -0.3278  0.0572 -0.1272
12101SOL    HW138171   4.571   0.172   7.585 -0.0851 -0.1605 -0.2796
12101SOL    HW238172   4.699   0.213   7.515  0.0462  0.2553  0.2040
12102SOL     OW38173   7.888   0.750   0.323 -0.2097 -0.6224 -0.8509
12102SOL    HW138174   7.940   0.809   0.269 -1.9928  0.2272 -1.7234
12102SOL    HW238175   7.914   0.662   0.294  0.6225 -0.2282 -1.3318
12103SOL     OW38176   7.266   2.365   7.489  0.0457 -0.0507 -0.5738
12103SOL    HW138177   7.289   2.308   7.416 -0.8659 -1.6739  0.3630
12103SOL    HW238178   7.205   2.429   7.451 -1.7418 -1.8727 -0.9474
12104SOL     OW38179   2.863   0.935   0.096 -0.0131 -0.1910 -0.3344
12104SOL    HW138180   2.841   0.934   0.003 -0.0946  0.5799 -0.3304
12104SOL    HW238181   2.930   0.868   0.106  1.0008  0.6580 -1.2041
12105SOL     OW38182   6.344   1.961   2.170  0.2661  0.2373  0.6426
12105SOL    HW138183   6.324   1.868   2.164 -0.3583  0.4633 -1.7340
12105SOL    HW238184   6.260   2.003   2.191  0.1084  0.4270 -0.3441
12106SOL     OW38185   0.995   2.259   7.325 -0.5890  0.5258  0.3868
12106SOL    HW138186   1.067   2.196   7.331 -0.6292  0.6058  2.8207
12106SOL    HW238187   0.935   2.220   7.262  0.6864 -0.4713 -0.2636
12107SOL     OW38188   7.215   4.481   3.545  0.0602 -0.3742 -0.2904
12107SOL    HW138189   7.235   4.575   3.546 -1.6763  0.0403  1.5528
12107SOL    HW238190   7.224   4.454   3.636 -2.1588 -1.3433 -0.3059
12108SOL     OW38191   4.047   6.611   3.808 -0.1770 -0.2915 -0.2199
12108SOL    HW138192   4.024   6.580   3.720 -0.1630 -0.7230 -0.0735
12108SOL    HW238193   4.016   6.701   3.810  0.9733  0.1536 -1.1243
12109SOL     OW38194   2.752   2.550   5.650 -0.1864 -0.0298 -0.1042
12109SOL    HW138195   2.722   2.602   5.576 -1.2447 -0.5216 -0.0440
12109SOL    HW238196   2.716   2.594   5.727 -0.5216 -0.4570 -0.0089
12110SOL     OW38197   0.771   8.793   7.015 -0.1457 -0.3508  0.1176
12110SOL    HW138198   0.704   8.764   6.952  1.0424  0.2110 -1.4698
12110SOL    HW238199   0.790   8.883   6.989 -0.2342  0.2129  1.8722
12111SOL     OW38200   6.570   6.648   3.348 -0.0152  0.4972  0.1920
12111SOL    HW138201   6.574   6.611   3.436  2.1000  0.5550  0.1689
12111SOL    HW238202   6.540   6.576   3.292  1.2406 -0.3601  0.5826
12112SOL     OW38203   5.568   0.961   8.228  0.3036  0.0069 -0.6272
12112SOL    HW138204   5.611   0.923   8.304  0.0306  1.6309  0.3775
12112SOL    HW238205   5.477   0.932   8.235  0.6263 -1.3019 -1.3527
12113SOL     OW38206   7.783   6.441   7.723 -0.0211  0.8031 -0.2450
12113SOL    HW138207   7.800   6.460   7.815 -1.7540 -0.5947  0.4103
12113SOL    HW238208   7.703   6.489   7.702 -0.5563 -0.1960 -0.5389
12114SOL     OW38209   4.597   2.407   2.992  0.2395  0.5464  0.4029
12114SOL    HW138210   4.592   2.335   3.056  1.1260  1.6409  1.7531
12114SOL    HW238211   4.506   2.434   2.979 -0.2253 -1.3795 -0.8466
12115SOL     OW38212   5.526   5.519   8.869 -0.5572  0.1872  0.2053
12115SOL    HW138213   5.491   5.547   8.954  1.2748 -0.3477  1.2166
12115SOL    HW238214   5.520   5.424   8.871  1.9487 -0.0356  0.9867
12116SOL     OW38215   6.298   4.820   7.437  0.1854  0.0633  0.0322
12116SOL    HW138216   6.218   4.868   7.415  0.7010  0.9845  0.1266
12116SOL    HW238217   6.267   4.739   7.478 -0.7008  0.3964  0.0350
12117SOL     OW38218   5.809   5.176   0.443 -0.0116 -0.3867 -0.0409
12117SOL    HW138219   5.889   5.183   0.390  0.9997 -1.6488  1.2127
12117SOL    HW238220   5.816   5.090   0.485 -2.1495 -0.5999 -0.0368
12118SOL     OW38221   3.729   2.284   5.337  0.2091 -0.4189 -0.4989
12118SOL    HW138222   3.819   2.294   5.304  0.8200  1.9738  1.5934
12118SOL    HW238223   3.694   2.373   5.339 -1.7576 -1.1575  0.0303
12119SOL     OW38224   8.371   1.936   4.138 -0.4989 -0.4040 -0.1832
12119SOL    HW138225   8.291   1.925   4.189  0.6671  0.0029  1.8435
12119SOL    HW238226   8.341   1.949   4.048 -2.6845 -0.3810  0.4959
12120SOL     OW38227   3.020   3.393   1.864 -0.2646 -0.9654  0.9555
12120SOL    HW138228   3.031   3.305   1.898  0.3504 -0.9078  0.9166
12120SOL    HW238229   3.093   3.405   1.803 -0.8312 -0.7434  0.2915
12121SOL     OW38230   8.394   0.467   5.400  0.3566 -0.6651  0.9326
12121SOL    HW138231   8.436   0.534   5.347 -3.6220  1.8076  0.4521
12121SOL    HW238232   8.431   0.478   5.488 -0.8411  3.0908  1.1417
12122SOL     OW38233   6.561   5.696   0.116 -0.2943 -0.4938 -0.0084
12122SOL    HW138234   6.644   5.735   0.144  0.6558 -2.3232 -0.1537
12122SOL    HW238235   6.515   5.768   0.074  1.5369  0.4144 -0.6012
12123SOL     OW38236   6.571   4.116   5.687  0.4987 -0.6301  0.2635
12123SOL    HW138237   6.557   4.210   5.688 -2.4183 -0.9753  1.1550
12123SOL    HW238238   6.484   4.078   5.699  1.5884 -3.4539  0.1381
12124SOL     OW38239   1.486   0.341   6.411  0.6366 -0.3193 -0.1456
12124SOL    HW138240   1.453   0.420   6.454  0.6709 -0.5098  0.2370
12124SOL    HW238241   1.449   0.269   6.462  0.1468 -0.5599 -0.8357
12125SOL     OW38242   7.348   2.856   3.095  0.0038 -0.5100  0.0307
12125SOL    HW138243   7.324   2.780   3.043  1.0539 -0.4437 -0.5688
12125SOL    HW238244   7.380   2.820   3.178 -0.3725 -0.6665  0.1129
12126SOL     OW38245   8.234   4.746   5.684  0.0844 -0.5868  0.1854
12126SOL    HW138246   8.315   4.729   5.636  1.4704  0.7458  1.9340
12126SOL    HW238247   8.182   4.800   5.624  0.5170 -1.3385 -0.9004
12127SOL     OW38248   1.499   6.632   3.181  0.3536  0.2003 -0.2694
12127SOL    HW138249   1.424   6.592   3.137 -0.3448  1.7098 -0.4901
12127SOL    HW238250   1.519   6.709   3.128  0.1372  1.5048  1.4899
12128SOL     OW38251   2.828   1.742   8.829 -0.4638 -0.9788  0.4759
12128SOL    HW138252   2.775   1.768   8.904  1.0825 -1.0618  1.6568
12128SOL    HW238253   2.837   1.821   8.777  0.4566 -0.2645  1.6760
12129SOL     OW38254   1.943   1.508   6.440 -0.4855 -0.1961  0.2912
12129SOL    HW138255   2.000   1.478   6.511  1.0602 -0.3131 -0.9303
12129SOL    HW238256   2.004   1.533   6.370 -1.9269  0.6198 -0.7217
12130SOL     OW38257   5.320   5.175   2.147 -0.0825  0.7505 -0.9565
12130SOL    HW138258   5.386   5.216   2.203  1.4778  0.3255 -2.3797
12130SOL    HW238259   5.327   5.081   2.167 -1.8754  0.8885  0.4922
12131SOL     OW38260   1.751   5.581   4.119  0.1618  0.0606  0.5576
12131SOL    HW138261   1.766   5.536   4.036  0.6549  0.2952  0.5107
12131SOL    HW238262   1.656   5.582   4.130 -0.1316  2.4219 -1.3544
12132SOL     OW38263   5.217   5.997   2.476  0.7487 -0.1366  0.3492
12132SOL    HW138264   5.215   5.960   2.388  0.7249  0.1487  0.2306
12132SOL    HW238265   5.308   5.988   2.504  0.2929 -2.5643  1.2890
12133SOL     OW38266   1.741   8.806   7.947 -0.1422  0.0927 -0.3012
12133SOL    HW138267   1.825   8.796   7.904 -0.0333 -0.5652  0.0477
12133SOL    HW238268   1.752   8.763   8.032 -1.5770 -2.3616 -1.2445
12134SOL     OW38269   3.330   3.715   5.021  0.3308  0.0164 -0.4116
12134SOL    HW138270   3.399   3.740   4.959  0.1237  0.3934 -0.4906
12134SOL    HW238271   3.349   3.765   5.100  1.0498 -1.0428  0.1196
12135SOL     OW38272   7.596   7.518   3.151  0.4976 -0.7905  0.8309
12135SOL    HW138273   7.673   7.465   3.170 -0.2656 -2.1057  0.4207
12135SOL    HW238274   7.537   7.458   3.105  0.4245  0.9859 -1.5602
12136SOL     OW38275   2.882   5.441   5.898  0.4823  0.3317  0.2209
12136SOL    HW138276   2.859   5.365   5.951 -0.3822  0.0478 -0.5318
12136SOL    HW238277   2.940   5.493   5.954  0.6179 -0.5864  0.9590
12137SOL     OW38278   1.529   6.835   0.815  0.4748 -0.0233 -0.2950
12137SOL    HW138279   1.561   6.845   0.905  1.0831 -1.3713 -0.3458
12137SOL    HW238280   1.598   6.788   0.769 -0.0223  0.2515 -1.3658
12138SOL     OW38281   5.674   7.901   1.883 -0.3082  0.2826  0.3910
12138SOL    HW138282   5.675   7.955   1.962 -3.1278  0.9977  0.0049
12138SOL    HW238283   5.668   7.811   1.916 -0.9919  0.5459  0.9930
12139SOL     OW38284   4.617   3.447   2.614  0.0262 -0.1326 -0.1142
12139SOL    HW138285   4.679   3.480   2.678 -0.1321 -0.3291  0.1406
12139SOL    HW238286   4.630   3.503   2.537 -1.3712  1.5895  0.8392
12140SOL     OW38287   4.808   3.497   3.506  0.1316 -0.2024 -0.3438
12140SOL    HW138288   4.762   3.414   3.518  1.1983 -1.0851 -1.9681
12140SOL    HW238289   4.891   3.472   3.465  1.1716  1.5290  0.5849
12141SOL     OW38290   7.714   7.170   8.316 -0.0205 -0.1204  0.3356
12141SOL    HW138291   7.720   7.076   8.302 -0.1046  0.0316 -0.8207
12141SOL    HW238292   7.786   7.207   8.266 -1.3480  0.5806 -1.1468
12142SOL     OW38293   3.867   2.972   7.215  0.5571  0.5547  0.3965
12142SOL    HW138294   3.949   3.008   7.248  1.1977 -1.4992  1.1747
12142SOL    HW238295   3.805   2.980   7.287  0.6081  0.4165  0.4562
12143SOL     OW38296   1.412   6.024   6.353  0.0788 -0.1349  0.2685
12143SOL    HW138297   1.450   6.008   6.440 -0.1476 -0.6040  0.2836
12143SOL    HW238298   1.320   6.041   6.370  0.3402  1.4593  0.2758
12144SOL     OW38299   1.461   0.871   8.358  0.3070  0.1427 -0.1802
12144SOL    HW138300   1.549   0.900   8.335  0.0368  0.2530 -1.1098
12144SOL    HW238301   1.436   0.926   8.432  0.6012  0.8709 -0.6112
12145SOL     OW38302   3.937   7.708   4.717  0.5532  0.0001 -0.4398
12145SOL    HW138303   3.934   7.774   4.787 -2.0048  0.4322 -0.8558
12145SOL    HW238304   4.026   7.714   4.683  0.7742  2.4036  0.3357
12146SOL     OW38305   3.425   1.681   0.098 -0.4812 -0.3375  0.4119
12146SOL    HW138306   3.453   1.770   0.075  1.4530 -0.6233  1.4179
12146SOL    HW238307   3.432   1.632   0.016 -0.0891  0.1167  0.1683
12147SOL     OW38308   5.227   1.298   5.356 -0.1258  0.0153 -0.0554
12147SOL    HW138309   5.210   1.238   5.429  0.5320  3.7795  3.5373
12147SOL    HW238310   5.320   1.286   5.336 -0.1669 -0.6179  0.1075
12148SOL     OW38311   6.508   7.715   8.980  0.1512  0.6507 -0.3288
12148SOL    HW138312   6.442   7.683   9.042  0.1778  2.3076  0.6198
12148SOL    HW238313   6.546   7.791   9.023  2.1376  0.2237 -1.2203
12149SOL     OW38314   0.058   8.461   4.714  0.3792 -0.7211 -0.0818
12149SOL    HW138315   0.018   8.498   4.636  0.0171 -0.5932  0.1590
12149SOL    HW238316   0.083   8.372   4.689  0.3443 -0.6506 -0.3659
12150SOL     OW38317   6.794   2.191   5.820 -0.7194 -0.3453 -0.4603
12150SOL    HW138318   6.701   2.195   5.844 -0.2978  0.1875  1.2271
12150SOL    HW238319   6.840   2.197   5.904  0.8833  1.5611 -1.3896
12151SOL     OW38320   0.545   6.399   7.055 -0.6515  0.0957 -0.4204
12151SOL    HW138321   0.536   6.477   7.001  0.1074  0.1845 -0.4304
12151SOL    HW238322   0.617   6.350   7.014 -0.5552 -0.1884  0.0820
12152SOL     OW38323   7.985   1.706   1.244  0.0746 -0.2317  0.0676
12152SOL    HW138324   7.974   1.630   1.186 -0.7526  0.9234 -1.3537
12152SOL    HW238325   7.991   1.780   1.185  2.2670  0.7116  1.3624
12153SOL     OW38326   1.659   0.690   5.702  0.4157 -0.9026 -0.0573
12153SOL    HW138327   1.680   0.731   5.618 -0.5066 -0.1229  0.0781
12153SOL    HW238328   1.744   0.671   5.741  0.8695  0.1249 -0.5033
12154SOL     OW38329   2.867   5.672   8.055  0.2308  1.1153 -0.0365
12154SOL    HW138330   2.777   5.693   8.030 -0.5386 -1.2004  0.5602
12154SOL    HW238331   2.920   5.698   7.979 -0.8654  2.7348 -0.3008
12155SOL     OW38332   7.616   2.764   8.534  0.0708  0.0773 -0.1781
12155SOL    HW138333   7.545   2.701   8.547 -2.0066  1.8505 -2.0789
12155SOL    HW238334   7.660   2.767   8.619 -1.7300 -1.5602  0.9224
12156SOL     OW38335   4.165   7.261   6.223 -0.4135 -0.3241 -0.1223
12156SOL    HW138336   4.196   7.180   6.262  0.1246 -0.2168 -0.3123
12156SOL    HW238337   4.184   7.328   6.289  0.0087 -0.2201 -0.3439
12157SOL     OW38338   2.320   5.518   4.042  0.1202 -1.1027  0.2258
12157SOL    HW138339   2.232   5.505   4.007  1.1448  1.7002 -4.0799
12157SOL    HW238340   2.373   5.449   4.001  0.5405 -0.5911 -0.1020
12158SOL     OW38341   7.169   8.360   5.266  0.0505  0.5631  0.1751
12158SOL    HW138342   7.201   8.431   5.210 -0.6333  0.5005 -0.2966
12158SOL    HW238343   7.170   8.398   5.355  2.2098  0.3100  0.3299
12159SOL     OW38344   8.422   1.619   1.194 -0.3403 -0.3187 -0.4044
12159SOL    HW138345   8.386   1.667   1.268  1.1765 -0.4288  0.4488
12159SOL    HW238346   8.355   1.555   1.171 -0.8089 -0.3232  0.9063
12160SOL     OW38347   3.442   7.376   7.554  0.4806 -0.1631 -0.4689
12160SOL    HW138348   3.534   7.381   7.528 -0.1785  0.6361 -2.8413
12160SOL    HW238349   3.393   7.404   7.477 -1.7156  1.3878  1.3311
12161SOL     OW38350   8.845   1.115   2.001  0.0045 -0.3559 -0.7061
12161SOL    HW138351   8.761   1.147   1.968 -0.6164 -1.4783 -0.2514
12161SOL    HW238352   8.908   1.183   1.975 -0.8891  0.0875 -1.8033
12162SOL     OW38353   4.662   5.843   0.021  0.1529 -0.2439 -0.0457
12162SOL    HW138354   4.646   5.937   0.026  1.6186  0.2705 -2.8777
12162SOL    HW238355   4.588   5.808  -0.028  0.1226 -0.3949  0.1076
12163SOL     OW38356   4.937   6.974   2.082 -0.1733 -0.3926  0.0717
12163SOL    HW138357   4.884   6.909   2.127 -0.2384 -0.8034 -0.5785
12163SOL    HW238358   5.007   6.924   2.041  1.3647  0.2430  1.7738
12164SOL     OW38359   8.434   6.099   2.917 -0.2164 -0.2995  1.5229
12164SOL    HW138360   8.472   6.015   2.943 -0.6664 -0.3591  2.0078
12164SOL    HW238361   8.361   6.076   2.860 -0.9426 -0.2916  2.4234
12165SOL     OW38362   5.159   2.889   4.880  0.3495 -0.2830  0.1513
12165SOL    HW138363   5.116   2.887   4.965 -0.0475  1.4071  0.0140
12165SOL    HW238364   5.252   2.877   4.899  0.2943  0.3805  0.8632
12166SOL     OW38365   0.013   4.543   8.428 -0.2635  0.3299  0.4923
12166SOL    HW138366  -0.071   4.501   8.442 -0.4437 -0.8365 -3.0628
12166SOL    HW238367   0.002   4.592   8.346  2.9031 -1.2862 -1.0928
12167SOL     OW38368   1.312   7.266   0.384 -0.7357 -0.4474  0.4500
12167SOL    HW138369   1.241   7.215   0.422 -0.0352 -1.1709  0.8246
12167SOL    HW238370   1.361   7.203   0.331 -0.6824  0.1638 -0.2468
12168SOL     OW38371   8.100   5.659   2.338 -0.7331 -0.1285 -0.0606
12168SOL    HW138372   8.010   5.691   2.353 -1.1594 -1.6666  0.9517
12168SOL    HW238373   8.104   5.577   2.387  0.6481 -1.0656 -1.6527
12169SOL     OW38374   2.872   3.832   0.261  0.1439 -0.2891 -0.4060
12169SOL    HW138375   2.908   3.787   0.185  0.5583  2.9093 -2.2842
12169SOL    HW238376   2.778   3.813   0.259  0.0781  0.1332 -2.0275
12170SOL     OW38377   5.281   3.901   6.669 -0.1135 -0.3873 -0.7002
12170SOL    HW138378   5.209   3.948   6.626 -0.8873 -0.2508  0.7007
12170SOL    HW238379   5.338   3.875   6.597 -1.0395  0.3862 -1.7544
12171SOL     OW38380   4.991   3.803   8.245 -0.0487 -0.3049 -0.6194
12171SOL    HW138381   4.948   3.888   8.253  0.8159  0.2266 -1.3950
12171SOL    HW238382   4.993   3.769   8.335  0.1971  0.8084 -0.1902
12172SOL     OW38383   8.601   2.241   2.132 -0.5380  0.9657  0.5607
12172SOL    HW138384   8.586   2.323   2.178 -1.4834  0.7623  0.6493
12172SOL    HW238385   8.621   2.266   2.042 -1.6148  1.2845  0.3919
12173SOL     OW38386   5.005   6.108   5.256  0.2477  0.5715  0.3371
12173SOL    HW138387   5.001   6.116   5.352 -1.1488  2.9491  0.1661
12173SOL    HW238388   4.922   6.145   5.226  0.5998 -0.2675 -1.8201
12174SOL     OW38389   4.032   5.365   4.078  0.3573  0.0897 -0.1542
12174SOL    HW138390   4.061   5.323   3.998 -0.0491 -0.9633  0.2340
12174SOL    HW238391   4.105   5.355   4.139 -0.5263 -2.0612  0.6417
12175SOL     OW38392   6.625   4.784   4.597  0.2027  0.6374  0.0529
12175SOL    HW138393   6.654   4.874   4.612 -0.0964  0.3955  2.5860
12175SOL    HW238394   6.702   4.730   4.617 -0.2456  0.2464  0.7624
12176SOL     OW38395   3.351   1.288   2.848 -0.1365  0.3856 -0.1187
12176SOL    HW138396   3.325   1.208   2.893 -1.2133  1.7233  1.8076
12176SOL    HW238397   3.388   1.259   2.765  1.0077 -2.2023  1.1819
12177SOL     OW38398   4.780   6.131   6.145  0.0290 -0.7802 -0.1027
12177SOL    HW138399   4.692   6.166   6.157  1.5239  2.8970  1.6686
12177SOL    HW238400   4.797   6.140   6.051 -0.2709  2.1260  0.0206
12178SOL     OW38401   2.616   3.552   1.162  0.7877 -0.2934  0.2597
12178SOL    HW138402   2.634   3.458   1.158  0.5698 -0.3427  0.3955
12178SOL    HW238403   2.600   3.577   1.071 -3.4839 -1.2721  0.4957
12179SOL     OW38404   1.971   1.112   0.960  0.3985  0.3688  0.6967
12179SOL    HW138405   1.921   1.034   0.938 -1.3478  1.4038  0.7951
12179SOL    HW238406   1.968   1.165   0.880  1.1303  0.5738  0.7948
12180SOL     OW38407   6.309   7.079   7.287 -0.2901  0.2881 -0.3629
12180SOL    HW138408   6.308   7.143   7.358 -0.0185 -0.6199  0.4831
12180SOL    HW238409   6.374   7.015   7.314 -2.3513 -1.7394  0.0769
12181SOL     OW38410   5.441   8.973   7.928 -0.5820 -0.0938  0.3207
12181SOL    HW138411   5.380   8.924   7.983 -0.3446 -2.0417 -1.0490
12181SOL    HW238412   5.473   8.908   7.865 -0.6080  1.9472 -1.9133
12182SOL     OW38413   2.216   8.019   5.284 -0.1203 -0.4207  0.0809
12182SOL    HW138414   2.129   8.055   5.295  0.4553  1.5143 -1.1921
12182SOL    HW238415   2.261   8.035   5.367 -0.3602  0.3997  0.0534
12183SOL     OW38416   0.663   6.329   2.807  0.6366 -0.0634 -0.3695
12183SOL    HW138417   0.610   6.341   2.727  1.7068 -0.9212 -1.2415
12183SOL    HW238418   0.612   6.268   2.860 -0.3340  0.9079 -0.1254
12184SOL     OW38419   1.525   6.503   8.497  0.1908 -0.2180 -0.9855
12184SOL    HW138420   1.454   6.528   8.439 -0.5585 -0.0063 -0.0076
12184SOL    HW238421   1.603   6.502   8.441 -0.8771 -2.6818 -2.6222
12185SOL     OW38422   0.586   6.292   3.826 -0.4810 -0.1846 -0.0245
12185SOL    HW138423   0.524   6.219   3.836 -1.1398  0.2830 -0.5803
12185SOL    HW238424   0.629   6.299   3.911  0.0670 -1.6353 -0.1523
12186SOL     OW38425   3.398   6.143   0.970  0.3998 -0.1147  0.0868
12186SOL    HW138426   3.388   6.084   1.044  1.1811 -0.3246  0.0372
12186SOL    HW238427   3.453   6.214   1.004  0.6442 -0.1410 -0.2490
12187SOL     OW38428   3.163   0.618   7.316  0.0528  0.3145  0.1495
12187SOL    HW138429   3.221   0.556   7.361  1.7006  1.3929 -0.3720
12187SOL    HW238430   3.084   0.567   7.296  1.0955 -1.4473  0.2572
12188SOL     OW38431   2.011   2.887   3.247  0.1423  0.7466 -0.0856
12188SOL    HW138432   1.961   2.934   3.180 -0.4631 -0.4612 -0.5157
12188SOL    HW238433   2.003   2.795   3.222  0.9080  0.3762  0.9881
12189SOL     OW38434   2.800   1.337   8.263  0.5812 -0.8510 -0.2647
12189SOL    HW138435   2.715   1.380   8.262  0.8356 -0.3500 -0.3237
12189SOL    HW238436   2.815   1.312   8.172  0.2071 -1.5269 -0.1505
12190SOL     OW38437   1.778   1.509   2.308  0.6234 -0.6905  0.1080
12190SOL    HW138438   1.809   1.595   2.278 -0.4336 -1.1569 -2.6143
12190SOL    HW238439   1.849   1.449   2.287 -0.5796 -1.2208 -2.9829
12191SOL     OW38440   0.150   0.914   6.804 -0.7959 -0.2419  0.2600
12191SOL    HW138441   0.120   0.997   6.841 -0.6617 -0.0548 -0.0468
12191SOL    HW238442   0.082   0.850   6.829 -0.7425 -0.1030  0.7569
12192SOL     OW38443   7.072   1.209   3.633  0.0298 -0.0573  0.3352
12192SOL    HW138444   7.005   1.272   3.659  0.3289 -0.1753  1.4446
12192SOL    HW238445   7.148   1.232   3.686  1.4046  1.0193 -1.9450
12193SOL     OW38446   0.273   7.041   4.452 -0.1880 -0.1742 -0.2723
12193SOL    HW138447   0.323   7.114   4.415 -0.6934 -0.4152 -1.4654
12193SOL    HW238448   0.197   7.032   4.396 -0.8631 -0.7300  0.6927
12194SOL     OW38449   0.406   4.671   6.937 -0.2851  0.3304 -0.5254
12194SOL    HW138450   0.467   4.690   6.866 -0.2662 -0.7302 -0.8146
12194SOL    HW238451   0.327   4.720   6.914 -0.5076 -0.4919 -1.6416
12195SOL     OW38452   4.034   3.784   6.596  0.1845 -0.1387  0.5511
12195SOL    HW138453   4.006   3.724   6.526 -1.0749  0.8112  0.1990
12195SOL    HW238454   4.004   3.742   6.676 -5.2973  2.1272  0.0975
12196SOL     OW38455   1.018   8.042   4.256 -0.4424  0.1997 -0.1541
12196SOL    HW138456   1.082   8.010   4.320  0.4239 -0.1112 -1.1540
12196SOL    HW238457   0.971   7.963   4.228 -1.7379  0.5034  1.0397
12197SOL     OW38458   1.064   5.326   1.129  0.1615  0.2115  0.4607
12197SOL    HW138459   1.039   5.414   1.100  1.1387  0.7453  1.2069
12197SOL    HW238460   1.088   5.280   1.048 -1.3942  0.2554 -0.0675
12198SOL     OW38461   6.816   6.944   4.241 -0.0051  0.5551 -0.3516
12198SOL    HW138462   6.858   6.969   4.323  3.3523 -3.6520 -0.4530
12198SOL    HW238463   6.880   6.966   4.174 -0.4439 -0.6930 -1.2165
12199SOL     OW38464   4.525   1.359   3.690 -0.5938  0.0965 -0.3255
12199SOL    HW138465   4.610   1.403   3.686 -0.0491 -0.7310  1.1296
12199SOL    HW238466   4.503   1.342   3.598  0.3646  1.1397 -0.7768
12200SOL     OW38467   5.739   1.504   7.024 -0.3491 -0.4585 -0.2656
12200SOL    HW138468   5.693   1.434   7.070  0.7878 -1.0506  0.0006
12200SOL    HW238469   5.829   1.500   7.057 -0.2080  0.9923 -0.4076
12201SOL     OW38470   6.228   4.537   0.063 -0.1063  0.8038  0.4308
12201SOL    HW138471   6.240   4.596   0.137 -4.8912  1.8198  0.7154
12201SOL    HW238472   6.194   4.456   0.102 -0.1884  0.3758 -0.4850
12202SOL     OW38473   1.432   5.772   5.297  0.7656  0.2666 -0.5102
12202SOL    HW138474   1.448   5.839   5.231  0.2562  0.4219 -0.4814
12202SOL    HW238475   1.369   5.713   5.256 -0.9630  1.3494  0.4688
12203SOL     OW38476   7.494   2.308   0.513 -0.3518  0.2519  0.0931
12203SOL    HW138477   7.430   2.361   0.466 -1.0527  0.1314  0.8815
12203SOL    HW238478   7.499   2.348   0.600 -0.4724 -0.6270  0.5168
12204SOL     OW38479   3.516   4.585   8.501 -0.4577  0.7411  0.4267
12204SOL    HW138480   3.585   4.524   8.527 -0.4992  0.7554  0.5719
12204SOL    HW238481   3.521   4.587   8.405 -1.0775 -0.2020  0.3631
12205SOL     OW38482   8.560   5.760   5.848 -0.2787 -0.5247 -0.0801
12205SOL    HW138483   8.592   5.692   5.908  2.0026  1.3343  0.9798
12205SOL    HW238484   8.465   5.759   5.859 -0.0694 -1.3004  2.4313
12206SOL     OW38485   3.040   5.103   3.824 -0.2859  0.2195 -0.1485
12206SOL    HW138486   3.058   5.197   3.824  0.7733  0.0867  2.1401
12206SOL    HW238487   2.952   5.095   3.860  0.3251  0.2932  1.4362
12207SOL     OW38488   8.793   0.434   3.307  0.2423 -0.2736  0.6824
12207SOL    HW138489   8.882   0.435   3.343  0.0870  0.4463  1.0783
12207SOL    HW238490   8.781   0.521   3.270 -0.0995 -0.5545  0.1178
12208SOL     OW38491   8.590   6.858   3.696  0.2081  0.2141 -0.2675
12208SOL    HW138492   8.504   6.829   3.667  1.0978 -0.8777 -1.9834
12208SOL    HW238493   8.612   6.932   3.638  0.8352 -0.1645 -0.5233
12209SOL     OW38494   4.246   4.029   4.535  0.5183  0.5066 -0.6156
12209SOL    HW138495   4.296   4.008   4.456 -0.6996  0.2980 -1.3470
12209SOL    HW238496   4.166   3.978   4.528  0.5601  0.1605  0.9709
12210SOL     OW38497   8.042   8.991   2.082 -0.0899 -0.3355 -0.0582
12210SOL    HW138498   8.119   9.039   2.111 -1.3300  2.1946 -0.6414
12210SOL    HW238499   7.977   9.006   2.152 -1.8411  2.5722 -2.0550
12211SOL     OW38500   1.231   2.918   0.788  0.6543  0.3062  0.2158
12211SOL    HW138501   1.182   2.965   0.720  0.0033  1.5832  1.5374
12211SOL    HW238502   1.279   2.986   0.835  0.5096 -0.4599  1.5254
12212SOL     OW38503   3.025   2.369   1.582  0.1823 -0.0233  0.3364
12212SOL    HW138504   3.041   2.462   1.566 -1.7051  0.5162  1.2030
12212SOL    HW238505   3.085   2.347   1.653 -1.6546  1.5268  2.5488
12213SOL     OW38506   0.225   8.010   5.345 -0.2803  0.3165 -0.0504
12213SOL    HW138507   0.184   7.998   5.259 -2.5861 -0.4899  1.0646
12213SOL    HW238508   0.310   7.967   5.338 -0.0945  0.9560 -2.1409
12214SOL     OW38509   7.791   7.373   4.351  0.4640 -0.1491  0.6644
12214SOL    HW138510   7.871   7.334   4.315  1.3779 -0.2565  2.6834
12214SOL    HW238511   7.780   7.454   4.300  0.4781 -1.2822 -1.2415
12215SOL     OW38512   3.730   8.825   8.587 -0.1205  0.9996 -0.3393
12215SOL    HW138513   3.694   8.763   8.649 -1.3881  2.2861  0.2671
12215SOL    HW238514   3.786   8.882   8.640 -0.3892  1.4682 -0.5536
12216SOL     OW38515   8.871   0.716   3.251  0.0916 -0.7611  0.3623
12216SOL    HW138516   8.888   0.807   3.275  0.7724 -1.0898  1.1764
12216SOL    HW238517   8.958   0.676   3.243 -0.2083 -1.5978  1.0778
12217SOL     OW38518   0.075   7.792   4.500  0.5573  0.6369  0.1167
12217SOL    HW138519   0.138   7.751   4.559  0.5366  2.3358  1.3816
12217SOL    HW238520   0.087   7.886   4.513 -1.7543  1.0251 -0.1066
12218SOL     OW38521   3.133   7.383   8.218  0.5742  0.1729 -0.0435
12218SOL    HW138522   3.038   7.387   8.219  0.3659 -2.7198  0.0595
12218SOL    HW238523   3.161   7.454   8.275 -1.4803  1.4409 -0.5359
12219SOL     OW38524   7.589   4.129   6.646 -0.1507 -0.2696 -0.0280
12219SOL    HW138525   7.671   4.160   6.607 -0.4877 -0.3445 -0.8181
12219SOL    HW238526   7.528   4.125   6.573 -0.5891 -1.1710  0.3708
12220SOL     OW38527   6.640   1.829   2.682  0.0196 -0.0491 -0.4711
12220SOL    HW138528   6.712   1.767   2.693  1.2387  0.4495 -4.1732
12220SOL    HW238529   6.578   1.807   2.751  3.9510  0.0067  3.5230
12221SOL     OW38530   4.647   7.312   6.681 -0.0011  0.2689 -0.3661
12221SOL    HW138531   4.579   7.359   6.632 -2.0054 -1.6135  0.4234
12221SOL    HW238532   4.654   7.359   6.764 -0.2384  0.5561 -0.5056
12222SOL     OW38533   2.015   1.261   8.335  0.2823  0.3591 -0.1602
12222SOL    HW138534   1.964   1.328   8.289 -0.2785 -0.7806 -1.2506
12222SOL    HW238535   1.988   1.268   8.426 -0.4870  0.9598 -0.4302
12223SOL     OW38536   7.327   5.392   4.016 -0.3333  0.0585 -0.2139
12223SOL    HW138537   7.396   5.458   4.031 -1.8243  1.8509 -0.9367
12223SOL    HW238538   7.346   5.356   3.930 -0.3018  0.5491 -0.4126
12224SOL     OW38539   5.955   2.681   6.268 -0.0539  0.5386 -0.0333
12224SOL    HW138540   5.995   2.621   6.332  0.2234  0.3480 -0.3766
12224SOL    HW238541   5.862   2.678   6.287  0.1498  1.5021  1.2172
12225SOL     OW38542   1.363   8.843   1.238 -0.3601 -0.3689  0.3511
12225SOL    HW138543   1.420   8.777   1.198 -0.6057 -1.7653  2.1805
12225SOL    HW238544   1.388   8.845   1.330 -2.7210 -0.5285  1.0838
12226SOL     OW38545   7.885   3.276   5.822 -0.2681  0.6504  0.7955
12226SOL    HW138546   7.830   3.299   5.747  0.6714 -1.1347 -0.5174
12226SOL    HW238547   7.851   3.330   5.894 -2.3153  1.1726 -0.4683
12227SOL     OW38548   0.615   2.200   8.008 -0.1007  0.7613 -0.7280
12227SOL    HW138549   0.639   2.255   7.933  0.4221  3.1874  1.0939
12227SOL    HW238550   0.694   2.197   8.062 -1.3112  1.7593  1.2211
12228SOL     OW38551   2.095   1.350   5.640  0.2019 -0.4569 -0.0199
12228SOL    HW138552   2.055   1.402   5.710  1.8810 -0.9483  1.3745
12228SOL    HW238553   2.067   1.393   5.559 -2.3423 -0.2525  0.8752
12229SOL     OW38554   8.043   4.601   0.346  0.3232  0.1120  0.6871
12229SOL    HW138555   8.076   4.626   0.432 -0.5450  0.4641  0.9298
12229SOL    HW238556   8.039   4.683   0.297  1.7229 -0.2172 -0.0281
12230SOL     OW38557   0.080   2.120   0.657  0.5531  0.2933  0.6408
12230SOL    HW138558   0.040   2.146   0.574 -0.5690 -0.2309  0.9925
12230SOL    HW238559   0.080   2.199   0.710  0.4505  0.4246  0.4472
12231SOL     OW38560   0.522   5.990   0.105  0.0801  0.4922 -0.0920
12231SOL    HW138561   0.478   6.012   0.023 -0.6417  0.0715  0.1715
12231SOL    HW238562   0.592   5.929   0.078 -1.8064 -1.7963 -0.1581
12232SOL     OW38563   2.234   0.381   3.893  0.5489 -0.2091  0.0590
12232SOL    HW138564   2.193   0.408   3.810  1.2502  0.6465 -0.0336
12232SOL    HW238565   2.230   0.286   3.892 -1.4141 -0.1590  0.0657
12233SOL     OW38566   6.460   5.365   2.588 -0.0524 -0.3902  0.5840
12233SOL    HW138567   6.428   5.399   2.505  0.0442  1.0691  1.1017
12233SOL    HW238568   6.395   5.300   2.615 -0.4285 -0.3968 -0.2992
12234SOL     OW38569   4.451   4.971   1.380 -0.0248 -0.3056 -0.0275
12234SOL    HW138570   4.485   4.882   1.386  0.2692 -0.4412 -2.5028
12234SOL    HW238571   4.363   4.960   1.342 -0.2828  0.4207  0.3397
12235SOL     OW38572   6.327   6.893   6.867 -0.2401 -0.8409  0.1961
12235SOL    HW138573   6.350   6.976   6.826 -1.3140 -0.5141  0.2365
12235SOL    HW238574   6.406   6.868   6.916  0.1950 -0.0141 -0.0672
12236SOL     OW38575   0.570   6.156   2.134 -0.2232 -0.0842 -0.0437
12236SOL    HW138576   0.523   6.210   2.197  0.3875  1.3029 -0.7323
12236SOL    HW238577   0.572   6.208   2.053  2.5466  0.0115 -0.0258
12237SOL     OW38578   1.718   5.231   8.846  0.1636  0.2332 -0.1878
12237SOL    HW138579   1.659   5.291   8.800 -0.0494 -0.9578 -1.5216
12237SOL    HW238580   1.664   5.194   8.916  0.1693  1.2190  0.3685
12238SOL     OW38581   3.696   6.691   0.070  0.3388  0.4766  0.6641
12238SOL    HW138582   3.603   6.673   0.081 -0.0901  2.9683  1.7901
12238SOL    HW238583   3.739   6.634   0.134 -0.2296 -1.6267 -0.7304
12239SOL     OW38584   5.429   8.411   3.405 -0.4554  0.2553 -0.0653
12239SOL    HW138585   5.521   8.406   3.381 -0.1555  2.5813  0.3958
12239SOL    HW238586   5.429   8.407   3.501 -0.8228  0.4001 -0.0558
12240SOL     OW38587   5.136   0.858   6.043 -0.8506  0.0895 -0.3701
12240SOL    HW138588   5.116   0.951   6.057  1.4326  0.5379  0.2857
12240SOL    HW238589   5.060   0.812   6.079 -1.7643  1.6744 -0.1630
12241SOL     OW38590   4.045   3.244   4.737 -0.0173 -0.3909  0.4250
12241SOL    HW138591   3.980   3.303   4.699 -0.4060 -0.5177  0.8827
12241SOL    HW238592   4.124   3.260   4.686 -1.2153 -2.6023 -2.3781
12242SOL     OW38593   0.100   3.204   4.983 -0.0023  0.6948 -0.8832
12242SOL    HW138594   0.058   3.209   4.897 -0.5522  0.9835 -0.6015
12242SOL    HW238595   0.130   3.113   4.990  0.9999  0.9308 -1.8203
12243SOL     OW38596   5.551   8.189   1.082 -0.5306 -0.4125 -0.3182
12243SOL    HW138597   5.577   8.192   1.174 -0.1572  1.9086 -0.4472
12243SOL    HW238598   5.632   8.164   1.036 -0.4673 -0.6139 -0.0999
12244SOL     OW38599   8.500   3.517   6.581 -0.2792 -0.3633  0.2520
12244SOL    HW138600   8.455   3.451   6.634 -0.8456 -0.0685  0.1396
12244SOL    HW238601   8.565   3.467   6.531 -0.7099 -0.8371  0.1579
12245SOL     OW38602   2.217   1.636   6.701  0.1582  0.0464 -0.2249
12245SOL    HW138603   2.217   1.697   6.628  0.2589  0.6670  0.2919
12245SOL    HW238604   2.221   1.549   6.660  0.3376  0.3944 -0.9455
12246SOL     OW38605   7.196   3.863   2.329 -0.1019 -0.1401 -0.2348
12246SOL    HW138606   7.184   3.882   2.422  1.8659 -0.7592  0.1783
12246SOL    HW238607   7.153   3.936   2.284 -2.3006 -0.5301  1.0952
12247SOL     OW38608   1.537   1.640   7.849 -0.2306  0.0551 -0.4881
12247SOL    HW138609   1.615   1.585   7.846 -1.1471 -1.3633  0.5074
12247SOL    HW238610   1.520   1.652   7.943 -2.3553 -1.4287 -0.5972
12248SOL     OW38611   7.164   6.023   5.921 -0.2459  0.3661 -0.1467
12248SOL    HW138612   7.202   5.944   5.959 -0.4355  1.2048  1.9222
12248SOL    HW238613   7.070   6.003   5.915  0.0338 -0.5073 -2.1665
12249SOL     OW38614   7.569   1.317   5.002 -0.1669  0.2280  0.7461
12249SOL    HW138615   7.650   1.358   4.973  0.7476 -0.8185  1.7151
12249SOL    HW238616   7.563   1.236   4.950  0.1392 -0.3712  1.6198
12250SOL     OW38617   7.267   2.837   5.964  0.4643  0.5199 -0.6036
12250SOL    HW138618   7.211   2.761   5.948 -2.3902  2.1964  0.5298
12250SOL    HW238619   7.231   2.905   5.907 -1.5614  2.8730  3.0718
12251SOL     OW38620   4.151   5.893   3.738 -0.1019  0.5804 -0.7593
12251SOL    HW138621   4.182   5.958   3.802 -2.7176  1.6191 -0.4160
12251SOL    HW238622   4.163   5.936   3.653  0.6077  0.4127 -0.7530
12252SOL     OW38623   1.580   6.027   5.562 -0.1077 -0.1620 -0.0931
12252SOL    HW138624   1.523   5.972   5.616  0.5656 -1.1420 -0.3654
12252SOL    HW238625   1.577   6.113   5.606 -0.4931 -0.6271  0.8329
12253SOL     OW38626   0.190   2.546   7.960 -0.3870 -0.0326 -0.1369
12253SOL    HW138627   0.195   2.542   8.056 -0.2552 -0.0042 -0.1428
12253SOL    HW238628   0.142   2.628   7.943 -0.6322 -0.1653 -0.0898
12254SOL     OW38629   1.170   5.122   1.644 -0.3839 -0.5712 -0.3458
12254SOL    HW138630   1.265   5.131   1.635 -0.3764  0.9372  0.8124
12254SOL    HW238631   1.134   5.184   1.581 -0.5297  0.3046  0.5611
12255SOL     OW38632   8.987   6.500   8.007 -0.0049 -0.3603  0.1195
12255SOL    HW138633   8.917   6.435   7.998 -1.0517  0.7168  0.1778
12255SOL    HW238634   9.048   6.479   7.937 -0.9534 -0.6771 -0.6369
12256SOL     OW38635   1.975   1.950   5.732  0.0168 -0.4405 -0.2295
12256SOL    HW138636   1.933   2.033   5.752 -2.9611 -1.7168 -0.5606
12256SOL    HW238637   1.975   1.902   5.815  0.1515 -0.7242 -0.3913
12257SOL     OW38638   4.964   8.279   2.195  0.3122  0.0215 -0.2028
12257SOL    HW138639   4.938   8.230   2.117 -0.4672 -0.6982  0.4866
12257SOL    HW238640   4.892   8.266   2.256  1.1242  0.1773  0.8064
12258SOL     OW38641   1.671   1.296   2.111 -0.5430 -0.5346  0.4195
12258SOL    HW138642   1.650   1.283   2.203  1.2331  0.1828  0.9617
12258SOL    HW238643   1.654   1.389   2.096 -0.4585 -0.5656  0.1204
12259SOL     OW38644   0.858   4.126   0.963  0.5582 -0.0076 -0.0612
12259SOL    HW138645   0.830   4.138   1.054 -1.8656  0.4099 -0.7903
12259SOL    HW238646   0.864   4.031   0.952  1.1959 -0.0511  0.6085
12260SOL     OW38647   8.264   3.470   1.932 -0.2314 -0.0401  0.3046
12260SOL    HW138648   8.341   3.451   1.878  1.0355 -0.3144  2.0897
12260SOL    HW238649   8.277   3.561   1.961 -0.8999  0.1118  0.1423
12261SOL     OW38650   0.575   2.538   4.558  0.7064  0.1936 -0.0022
12261SOL    HW138651   0.555   2.452   4.522  1.2287  0.7456 -1.6684
12261SOL    HW238652   0.668   2.552   4.539  0.5519  1.2619 -0.0811
12262SOL     OW38653   1.237   5.288   0.409  0.1189  0.4272 -0.5082
12262SOL    HW138654   1.165   5.341   0.442 -0.0174 -0.2217  0.2746
12262SOL    HW238655   1.259   5.327   0.324 -1.5965  0.2276 -1.0796
12263SOL     OW38656   3.518   2.154   1.154  0.0908  0.6004  0.2338
12263SOL    HW138657   3.572   2.222   1.195  0.8045 -0.4179  1.0602
12263SOL    HW238658   3.582   2.093   1.117 -0.5339  0.2074 -0.2081
12264SOL     OW38659   4.051   2.509   3.174  0.0421  0.7564  0.2989
12264SOL    HW138660   4.015   2.562   3.103 -0.8826 -1.4887 -1.0285
12264SOL    HW238661   3.978   2.455   3.203  0.8828  0.3209  1.7531
12265SOL     OW38662   1.648   5.197   4.142  0.0312  0.5884 -0.3003
12265SOL    HW138663   1.710   5.133   4.109  0.1477  0.3511  0.3587
12265SOL    HW238664   1.567   5.179   4.095 -0.5736 -1.4923  1.3836
12266SOL     OW38665   4.889   5.960   4.131 -0.6736  0.3753  0.5738
12266SOL    HW138666   4.822   6.014   4.172 -0.4494  1.4092 -0.3401
12266SOL    HW238667   4.967   5.974   4.185 -1.2716 -1.1957  1.9093
12267SOL     OW38668   2.514   8.564   7.409  0.4927  0.1924  0.3208
12267SOL    HW138669   2.486   8.605   7.491 -1.1353 -0.5774  0.2007
12267SOL    HW238670   2.478   8.475   7.414  0.8907 -0.0619 -0.9648
12268SOL     OW38671   4.483   1.499   7.699  0.2540  0.1487  0.0460
12268SOL    HW138672   4.572   1.500   7.732  0.5638  0.4776 -0.7643
12268SOL    HW238673   4.435   1.559   7.757  0.1872 -1.1972  1.4294
12269SOL     OW38674   6.551   0.342   3.467  0.1623 -0.0136 -0.3300
12269SOL    HW138675   6.636   0.383   3.452  0.8448 -0.3663  2.1415
12269SOL    HW238676   6.570   0.249   3.471  0.1978  0.0395  2.8157
12270SOL     OW38677   5.693   5.360   8.519 -0.1329 -0.0315  0.1019
12270SOL    HW138678   5.618   5.306   8.546 -0.9649  0.8941 -0.3401
12270SOL    HW238679   5.762   5.296   8.499 -1.3523 -0.9978 -1.2073
12271SOL     OW38680   8.170   0.436   3.405 -0.1382  0.0950  0.1303
12271SOL    HW138681   8.131   0.444   3.318 -1.3586  0.6276  0.7100
12271SOL    HW238682   8.111   0.483   3.463 -1.3481 -3.1910  1.8568
12272SOL     OW38683   2.073   4.323   1.555  0.4304 -0.5324 -0.0952
12272SOL    HW138684   2.099   4.300   1.466  1.5061 -0.5913  0.2238
12272SOL    HW238685   2.127   4.268   1.611  0.2866  0.0285  0.6153
12273SOL     OW38686   6.780   0.929   5.136 -0.0435 -0.0411  0.0265
12273SOL    HW138687   6.770   0.876   5.057 -0.1928  0.3755 -0.2348
12273SOL    HW238688   6.874   0.932   5.151  0.0620  0.6928 -0.6975
12274SOL     OW38689   0.454   7.393   5.764 -0.1624 -0.0858 -0.0735
12274SOL    HW138690   0.472   7.419   5.855  1.0420 -1.3008  0.0680
12274SOL    HW238691   0.441   7.476   5.718  0.9329  0.6354  0.8583
12275SOL     OW38692   8.695   4.077   8.902 -0.2657  0.1672 -0.1468
12275SOL    HW138693   8.788   4.100   8.897 -0.8918  2.8897 -1.1801
12275SOL    HW238694   8.690   3.989   8.866  1.7202  0.7189 -1.9836
12276SOL     OW38695   5.675   0.103   8.616  0.1833  0.1677  0.1450
12276SOL    HW138696   5.679   0.053   8.535 -1.0589 -0.7326  0.6056
12276SOL    HW238697   5.695   0.039   8.685  0.6735  0.7945  0.5992
12277SOL     OW38698   7.806   2.964   4.919 -0.0257 -0.0243  0.1994
12277SOL    HW138699   7.868   3.036   4.904 -1.2934  0.8218 -1.2531
12277SOL    HW238700   7.759   2.956   4.836 -4.1748  1.6408  2.1606
12278SOL     OW38701   1.714   3.918   3.732 -0.1231 -0.0995 -0.0116
12278SOL    HW138702   1.798   3.885   3.764 -0.3849  0.7189  1.6215
12278SOL    HW238703   1.700   3.999   3.782 -2.5043 -0.9164  0.7662
12279SOL     OW38704   4.256   6.266   1.667 -0.2942  0.2972  0.2661
12279SOL    HW138705   4.177   6.275   1.721  0.7429 -1.0985  2.1898
12279SOL    HW238706   4.307   6.199   1.713  1.5848  0.4910 -1.4355
12280SOL     OW38707   7.252   3.954   7.312 -0.0405 -0.0868 -0.4743
12280SOL    HW138708   7.222   3.876   7.358  2.8143 -0.3105  1.2221
12280SOL    HW238709   7.220   4.027   7.365 -1.7678 -0.0692 -1.4632
12281SOL     OW38710   2.844   7.075   4.823  0.2789  0.0201  0.4432
12281SOL    HW138711   2.887   7.042   4.903  1.2350  1.3016  0.5000
12281SOL    HW238712   2.912   7.070   4.756  0.4015  1.6088  0.4071
12282SOL     OW38713   1.478   8.294   1.268  0.3993  0.1497  0.3703
12282SOL    HW138714   1.537   8.270   1.196 -1.1151 -1.6234 -0.3703
12282SOL    HW238715   1.531   8.349   1.325  1.9284  0.8872 -1.6473
12283SOL     OW38716   3.947   2.423   0.873 -0.5420 -0.1173 -0.7619
12283SOL    HW138717   3.999   2.415   0.792  0.2216 -0.3628 -0.2586
12283SOL    HW238718   3.974   2.348   0.926 -2.5321 -1.1294 -1.0937
12284SOL     OW38719   3.542   1.925   5.606  0.1390  0.6372  0.4322
12284SOL    HW138720   3.558   1.963   5.520  0.7367  0.0042  0.2528
12284SOL    HW238721   3.619   1.948   5.657 -0.0022  0.6095  0.6602
12285SOL     OW38722   7.770   1.942   0.738 -0.5612  0.3761 -0.6474
12285SOL    HW138723   7.733   2.000   0.672 -2.1922  0.1298  0.0146
12285SOL    HW238724   7.863   1.964   0.739 -0.7577  1.4054 -1.9730
12286SOL     OW38725   8.740   8.011   4.335  0.7026 -0.2317  0.3854
12286SOL    HW138726   8.733   8.006   4.431 -3.0080  0.2616  0.2659
12286SOL    HW238727   8.725   8.103   4.314 -1.1355 -0.7338 -0.7276
12287SOL     OW38728   0.958   5.419   4.066  0.2974  0.1917  0.5554
12287SOL    HW138729   0.968   5.351   4.132 -0.3017 -0.5519 -0.1004
12287SOL    HW238730   0.864   5.423   4.049  0.4826 -0.0351 -0.6515
12288SOL     OW38731   2.358   8.979   7.745 -0.0680 -0.1261 -0.0957
12288SOL    HW138732   2.389   9.069   7.759 -1.6707  0.5748 -0.8524
12288SOL    HW238733   2.273   8.976   7.788  0.4291 -1.6349  0.8480
12289SOL     OW38734   0.426   0.510   7.499 -0.2081  0.1776 -0.0674
12289SOL    HW138735   0.447   0.589   7.548  0.0131 -0.3423  0.6938
12289SOL    HW238736   0.383   0.542   7.419 -0.4353  1.0414  0.3876
12290SOL     OW38737   7.703   0.272   6.315 -0.1466 -0.4674 -0.4182
12290SOL    HW138738   7.771   0.225   6.267 -0.0460 -0.3437 -0.3963
12290SOL    HW238739   7.715   0.364   6.290  0.9983 -0.1470  1.1449
12291SOL     OW38740   5.346   4.024   7.123 -0.3267  0.1532  0.4124
12291SOL    HW138741   5.422   4.076   7.148 -0.4579  1.0508 -0.9785
12291SOL    HW238742   5.331   4.045   7.031 -1.5673 -0.8803  0.3508
12292SOL     OW38743   6.670   4.919   8.093  0.2045  0.4426  0.4191
12292SOL    HW138744   6.582   4.902   8.127 -1.1009  0.8539 -2.3977
12292SOL    HW238745   6.728   4.865   8.147 -2.0789 -1.7985  0.8246
12293SOL     OW38746   5.081   8.415   6.279  0.4512 -0.5315  0.7857
12293SOL    HW138747   5.110   8.489   6.226  0.4599 -1.8135 -1.0810
12293SOL    HW238748   5.043   8.456   6.357  0.7608  1.4190 -0.0184
12294SOL     OW38749   8.723   0.640   2.749  0.0227 -0.1434  0.2826
12294SOL    HW138750   8.693   0.730   2.762 -1.2973 -0.6375  0.8641
12294SOL    HW238751   8.648   0.596   2.709  0.8287 -0.8702 -0.4520
12295SOL     OW38752   5.096   3.549   3.151  0.2473 -0.1043  0.4186
12295SOL    HW138753   5.026   3.559   3.215 -0.2556 -1.3092  0.0911
12295SOL    HW238754   5.088   3.625   3.094 -0.0289  0.3845  1.1020
12296SOL     OW38755   1.079   3.220   5.355 -0.2462 -0.0067 -0.5391
12296SOL    HW138756   0.994   3.256   5.333 -0.5739  1.4544  2.5721
12296SOL    HW238757   1.142   3.283   5.321 -0.5550  0.3653 -0.4274
12297SOL     OW38758   0.388   5.194   5.957 -0.3501 -0.1423 -0.1103
12297SOL    HW138759   0.479   5.168   5.972 -0.0277  1.3772  0.7109
12297SOL    HW238760   0.372   5.262   6.021 -2.3643 -0.9894  0.3379
12298SOL     OW38761   5.954   7.413   0.839  0.1821  0.0812 -0.5859
12298SOL    HW138762   5.910   7.436   0.921  0.2532  1.5099 -0.9252
12298SOL    HW238763   5.886   7.369   0.788 -0.6376  1.5201 -0.7704
12299SOL     OW38764   3.192   2.283   1.747 -0.5587  0.5748 -0.7057
12299SOL    HW138765   3.284   2.306   1.762 -0.7959  1.2027 -0.1306
12299SOL    HW238766   3.186   2.191   1.769 -0.3045  0.8155  0.4388
12300SOL     OW38767   7.079   0.884   2.980  0.1035  0.4196 -0.5145
12300SOL    HW138768   7.012   0.946   3.011  0.7369  0.9378 -0.1668
12300SOL    HW238769   7.098   0.830   3.056  1.0171  1.1179 -0.2319
12301SOL     OW38770   8.286   6.511   3.641  0.6284 -0.4527 -0.2057
12301SOL    HW138771   8.357   6.488   3.581  0.9456 -3.2369  1.0741
12301SOL    HW238772   8.207   6.506   3.589  1.2008  1.9280 -1.4627
12302SOL     OW38773   5.061   4.636   8.179  0.0308 -0.1003 -0.0999
12302SOL    HW138774   5.118   4.577   8.228  1.5066  1.0324 -0.3621
12302SOL    HW238775   5.038   4.588   8.100 -0.5003 -1.0800  0.6245
12303SOL     OW38776   3.209   6.564   7.470 -0.1936  0.1518 -0.4645
12303SOL    HW138777   3.184   6.472   7.483  0.1280  0.0215 -0.7296
12303SOL    HW238778   3.170   6.610   7.543 -0.0188 -0.2635 -0.1052
12304SOL     OW38779   2.938   5.120   1.692 -0.7985 -0.2514  0.2955
12304SOL    HW138780   2.861   5.094   1.742 -1.0770  0.8429  0.4645
12304SOL    HW238781   2.912   5.110   1.600 -1.0694 -0.0921  0.3548
12305SOL     OW38782   7.986   7.223   8.253  0.3920 -0.0656  0.0632
12305SOL    HW138783   8.051   7.259   8.313  0.8976  1.1175 -1.1324
12305SOL    HW238784   8.023   7.140   8.224  0.2073 -0.5800  1.2476
12306SOL     OW38785   7.090   6.044   3.523  0.6565 -0.1735  0.5505
12306SOL    HW138786   7.114   6.115   3.582 -0.1183 -0.9358  1.8093
12306SOL    HW238787   7.059   6.088   3.444  1.6353  0.8590  0.7100
12307SOL     OW38788   3.353   5.494   5.442 -0.0029  0.4125  0.3408
12307SOL    HW138789   3.386   5.404   5.447  2.2889  1.0734 -1.4271
12307SOL    HW238790   3.381   5.534   5.524  1.8603  0.3637 -0.2350
12308SOL     OW38791   7.668   8.076   1.538  0.5430 -0.6287  0.1829
12308SOL    HW138792   7.738   8.142   1.542 -0.6361  0.6203  0.9645
12308SOL    HW238793   7.623   8.095   1.456  0.2177 -0.4619  0.3980
12309SOL     OW38794   3.192   7.217   3.332 -0.7618  0.4187  0.3189
12309SOL    HW138795   3.278   7.249   3.305 -0.1805 -1.9694 -0.8811
12309SOL    HW238796   3.204   7.192   3.424  0.1190 -0.7659 -0.0993
12310SOL     OW38797   8.991   8.274   0.074 -0.1368 -0.5119  0.1473
12310SOL    HW138798   9.044   8.220   0.016 -0.4158 -1.4197  0.7147
12310SOL    HW238799   8.901   8.245   0.059 -0.2428 -0.5446  0.8082
12311SOL     OW38800   1.519   1.955   7.471  0.1405 -0.0610 -0.0130
12311SOL    HW138801   1.515   1.923   7.562  0.9677 -0.3189 -0.0565
12311SOL    HW238802   1.532   2.049   7.480  0.0034 -0.0556  0.1385
12312SOL     OW38803   8.587   0.092   5.537  0.0866  0.0555 -0.2467
12312SOL    HW138804   8.546   0.104   5.451  0.8674  0.1975 -0.6180
12312SOL    HW238805   8.680   0.081   5.517  0.1393 -1.0088  0.5102
12313SOL     OW38806   7.187   2.629   2.262 -0.7260 -0.4335  0.4430
12313SOL    HW138807   7.111   2.686   2.251  1.5300  2.4759 -1.6077
12313SOL    HW238808   7.251   2.682   2.308  1.7263 -0.9031 -2.1278
12314SOL     OW38809   8.292   0.256   2.810 -0.0359 -0.0907  0.5437
12314SOL    HW138810   8.311   0.335   2.758  0.3716 -0.3902  0.2339
12314SOL    HW238811   8.308   0.283   2.901  2.6842 -0.5022  0.2924
12315SOL     OW38812   2.736   2.221   8.004  0.0707 -0.4445  0.2729
12315SOL    HW138813   2.742   2.290   8.070  0.9042 -0.5468  0.3111
12315SOL    HW238814   2.814   2.233   7.950 -0.7747 -0.1518 -0.9135
12316SOL     OW38815   6.114   7.687   7.424 -0.1507 -0.4884 -0.1905
12316SOL    HW138816   6.199   7.707   7.463 -0.1301  0.0887 -0.5189
12316SOL    HW238817   6.125   7.703   7.330 -0.1890 -1.9097 -0.4568
12317SOL     OW38818   8.221   8.019   2.366 -0.1623  0.0537  0.2674
12317SOL    HW138819   8.297   7.968   2.338  0.6641  1.7362 -0.6857
12317SOL    HW238820   8.223   8.013   2.461  0.7828 -0.4697  0.2349
12318SOL     OW38821   7.785   0.424   1.371 -0.2896  0.3792 -0.2892
12318SOL    HW138822   7.844   0.395   1.440  0.0559  0.8699 -0.3699
12318SOL    HW238823   7.789   0.520   1.375 -1.4137  0.4295 -0.0146
12319SOL     OW38824   5.873   2.571   4.303 -0.4722 -0.2125  0.4241
12319SOL    HW138825   5.942   2.588   4.367 -0.5238 -1.8180  0.9331
12319SOL    HW238826   5.917   2.520   4.234 -0.8164  0.0480  0.0054
12320SOL     OW38827   7.731   5.194   8.958 -0.0458 -0.4045 -0.2417
12320SOL    HW138828   7.821   5.221   8.980  0.3013 -1.1668 -0.6895
12320SOL    HW238829   7.688   5.181   9.042  0.7417 -1.5751  0.0060
12321SOL     OW38830   2.060   5.924   2.177  0.0509  0.1383  0.4836
12321SOL    HW138831   1.997   5.980   2.132 -0.7617 -0.7463  0.4871
12321SOL    HW238832   2.023   5.911   2.264  0.1623 -0.4983  0.4461
12322SOL     OW38833   6.314   8.002   4.329  0.1071  0.0492 -0.3786
12322SOL    HW138834   6.246   7.974   4.391  2.6063 -0.0946  2.5058
12322SOL    HW238835   6.314   7.935   4.261 -2.3393 -0.1191 -0.3005
12323SOL     OW38836   0.060   0.945   3.511 -0.1359 -0.2714  0.0483
12323SOL    HW138837   0.027   0.927   3.598 -1.6232  0.6378 -0.2983
12323SOL    HW238838  -0.009   0.914   3.452  0.0087  0.8335 -0.7285
12324SOL     OW38839   1.669   5.488   8.108 -0.6228  0.2637 -0.8960
12324SOL    HW138840   1.659   5.398   8.140 -2.3669  0.9148  0.5471
12324SOL    HW238841   1.603   5.498   8.040 -1.5459  0.9059  0.0670
12325SOL     OW38842   3.617   0.096   8.170  0.5019 -0.0152 -0.2684
12325SOL    HW138843   3.682   0.054   8.113 -0.7726 -0.3657 -1.5087
12325SOL    HW238844   3.571   0.157   8.113  0.1441  0.6950  0.7524
12326SOL     OW38845   7.046   5.241   2.600  0.2359 -0.0418  0.1128
12326SOL    HW138846   7.084   5.157   2.626  0.0443  0.0854  0.8435
12326SOL    HW238847   6.952   5.224   2.595  0.1720  0.1906  0.5175
12327SOL     OW38848   1.060   0.659   8.308  0.5542  0.3700  0.0923
12327SOL    HW138849   1.089   0.749   8.299 -0.1019  0.4223 -2.2187
12327SOL    HW238850   1.127   0.608   8.262  2.0775 -0.6461  3.1837
12328SOL     OW38851   2.821   7.765   4.220  0.3162 -0.0667  0.0178
12328SOL    HW138852   2.912   7.775   4.248  0.5580 -2.2565  0.2567
12328SOL    HW238853   2.820   7.681   4.173 -1.4892  0.1269 -0.3650
12329SOL     OW38854   5.331   0.510   0.057 -0.6349 -0.1410  0.8550
12329SOL    HW138855   5.390   0.477   0.124  0.1266  0.5784  0.5475
12329SOL    HW238856   5.279   0.577   0.102 -0.8758 -0.4085  0.9870
12330SOL     OW38857   2.200   0.102   8.528 -0.0402  0.5739  0.3417
12330SOL    HW138858   2.157   0.016   8.534  0.3062  0.4655  1.7329
12330SOL    HW238859   2.162   0.152   8.600 -1.2650  2.0938 -1.2981
12331SOL     OW38860   1.795   1.715   3.549  0.2167 -0.1844  0.4229
12331SOL    HW138861   1.824   1.757   3.630  0.7832  0.2163  0.0204
12331SOL    HW238862   1.701   1.732   3.546  0.3353  0.5620  0.5669
12332SOL     OW38863   4.815   6.640   1.143 -0.6753  0.7263  0.9477
12332SOL    HW138864   4.838   6.732   1.151  1.7660  0.1082  1.9627
12332SOL    HW238865   4.858   6.598   1.217  1.9732 -1.8392 -1.7667
12333SOL     OW38866   0.147   0.845   4.917 -0.2542  0.0632 -0.4377
12333SOL    HW138867   0.079   0.789   4.955 -0.6149  1.5095  1.1809
12333SOL    HW238868   0.208   0.783   4.876 -1.7488 -1.3603 -0.6155
12334SOL     OW38869   5.878   2.141   1.716 -0.0994 -0.2101 -0.6682
12334SOL    HW138870   5.839   2.116   1.800 -0.3720 -0.5868 -0.9022
12334SOL    HW238871   5.896   2.057   1.672 -1.4980  0.0004 -1.6890
12335SOL     OW38872   8.035   5.037   4.418  0.0545 -0.2263 -0.5593
12335SOL    HW138873   7.984   5.023   4.338  0.7008 -0.4228 -0.9433
12335SOL    HW238874   8.126   5.027   4.390  0.2503 -1.3775  0.4079
12336SOL     OW38875   6.337   5.899   2.774  0.1672 -0.2395  0.2597
12336SOL    HW138876   6.284   5.822   2.754  0.2884  0.0211 -1.1422
12336SOL    HW238877   6.423   5.880   2.738  0.5306  0.0948  0.9142
12337SOL     OW38878   4.056   4.913   7.384 -0.7572 -0.2982 -0.0065
12337SOL    HW138879   4.057   5.007   7.403  1.7995 -0.3227  0.3801
12337SOL    HW238880   4.045   4.907   7.289 -0.1232  0.4454 -0.1363
12338SOL     OW38881   6.217   8.514   0.306  0.1496 -0.4963 -0.7191
12338SOL    HW138882   6.130   8.507   0.345  1.9566 -0.6155  3.9002
12338SOL    HW238883   6.264   8.437   0.338  2.9740  1.4400  0.1394
12339SOL     OW38884   7.334   0.735   6.406 -0.2672  0.1439 -0.2536
12339SOL    HW138885   7.429   0.733   6.416 -0.2578 -0.2306 -0.4042
12339SOL    HW238886   7.318   0.805   6.342 -0.1084  0.3343 -0.0872
12340SOL     OW38887   2.972   8.467   2.997  0.1584 -0.4054 -0.7451
12340SOL    HW138888   2.972   8.410   2.919  3.1552 -2.1087  0.3283
12340SOL    HW238889   3.010   8.549   2.966  1.2261 -1.0292 -1.1605
12341SOL     OW38890   5.546   2.029   7.843 -0.2486  0.3575 -0.2348
12341SOL    HW138891   5.585   2.041   7.930 -0.0850 -0.4633 -0.1844
12341SOL    HW238892   5.561   2.112   7.798  1.0432  0.2642 -0.0040
12342SOL     OW38893   5.745   3.489   4.351 -0.6102  0.3541 -0.6332
12342SOL    HW138894   5.702   3.428   4.290 -0.8180  1.2201 -1.3771
12342SOL    HW238895   5.741   3.574   4.306  0.4426  0.7553  0.0088
12343SOL     OW38896   8.957   3.861   1.924  0.4307  1.0995  0.2527
12343SOL    HW138897   9.005   3.794   1.971  0.4362  0.3811 -0.7566
12343SOL    HW238898   8.875   3.818   1.897 -0.6523  2.1824  1.6143
12344SOL     OW38899   1.309   2.951   2.203  0.5360 -0.5403 -0.5892
12344SOL    HW138900   1.300   2.870   2.253  2.0500 -0.8037 -0.6958
12344SOL    HW238901   1.399   2.949   2.170  0.5692  1.1448 -0.6778
12345SOL     OW38902   1.360   6.051   4.807 -0.7689  0.5337  0.0899
12345SOL    HW138903   1.332   6.017   4.722  1.4952  1.9843 -1.3386
12345SOL    HW238904   1.298   6.122   4.826 -2.4799 -1.0326  0.6899
12346SOL     OW38905   7.653   5.408   5.871 -0.0548 -0.3057 -0.3399
12346SOL    HW138906   7.661   5.503   5.876  0.8002 -0.4436  1.2088
12346SOL    HW238907   7.591   5.394   5.798 -0.0670  1.4044 -0.7087
12347SOL     OW38908   2.041   3.325   4.073 -0.6377  0.2706  0.5967
12347SOL    HW138909   2.008   3.252   4.126 -0.8907  0.0834  0.1865
12347SOL    HW238910   2.031   3.295   3.982 -0.3442  0.6459  0.4396
12348SOL     OW38911   2.184   4.101   0.917  1.0003 -0.2067 -0.5044
12348SOL    HW138912   2.204   4.036   0.984  1.5008 -0.2684 -0.7129
12348SOL    HW238913   2.221   4.183   0.951  1.0148 -0.1818 -0.5811
12349SOL     OW38914   5.270   1.277   3.354 -0.1732 -0.0842  0.0985
12349SOL    HW138915   5.305   1.188   3.345 -0.1386  0.0997 -1.9204
12349SOL    HW238916   5.211   1.287   3.280 -2.3595  0.6448  1.8202
12350SOL     OW38917   7.226   0.554   4.812  0.3974  0.2916 -0.1961
12350SOL    HW138918   7.205   0.492   4.882  0.6627 -0.1347 -0.4863
12350SOL    HW238919   7.261   0.499   4.742 -0.3821  0.6516 -0.8735
12351SOL     OW38920   3.062   0.136   2.823 -0.1534 -0.2552  0.8288
12351SOL    HW138921   2.981   0.085   2.829 -0.3076  0.0268  1.2046
12351SOL    HW238922   3.130   0.071   2.805 -0.7006 -0.2889 -1.3244
12352SOL     OW38923   7.909   6.484   6.835 -0.3344 -0.5295  0.2228
12352SOL    HW138924   7.944   6.542   6.768  0.1379  1.9249  2.4596
12352SOL    HW238925   7.985   6.432   6.864 -0.2551 -0.6566 -0.2087
12353SOL     OW38926   5.394   5.052   8.296  0.5419 -0.2794  0.0221
12353SOL    HW138927   5.374   5.113   8.225 -1.0221 -0.4773  0.2614
12353SOL    HW238928   5.483   5.075   8.323 -0.7979  3.7715  1.8826
12354SOL     OW38929   7.597   5.714   8.729 -0.2629  0.3100  0.2124
12354SOL    HW138930   7.615   5.655   8.801 -1.2086 -1.2891 -0.8154
12354SOL    HW238931   7.515   5.758   8.753 -1.5126 -1.4631 -0.5664
12355SOL     OW38932   4.134   2.780   0.883 -0.1483  0.6279  0.0744
12355SOL    HW138933   4.065   2.791   0.817 -1.1686 -1.4213  0.7300
12355SOL    HW238934   4.091   2.798   0.966  0.0732 -0.6798  0.4901
12356SOL     OW38935   3.233   6.370   0.513 -0.1936  0.6533  0.8584
12356SOL    HW138936   3.318   6.351   0.473 -0.1549  2.0527  0.2246
12356SOL    HW238937   3.170   6.333   0.452 -0.0634 -0.6167  1.4562
12357SOL     OW38938   6.303   6.528   0.172 -0.0120  0.5637  0.0758
12357SOL    HW138939   6.277   6.437   0.158  2.2037  0.0240 -1.1318
12357SOL    HW238940   6.245   6.579   0.115 -1.1812 -0.0890  0.6557
12358SOL     OW38941   3.413   4.932   2.405  0.1963  0.2659 -0.1759
12358SOL    HW138942   3.489   4.952   2.350  0.6863 -0.0722  0.3675
12358SOL    HW238943   3.419   4.838   2.422 -1.2157 -0.0754 -1.4055
12359SOL     OW38944   1.947   4.632   4.803 -0.0663 -0.2194  0.0952
12359SOL    HW138945   2.022   4.657   4.858  0.1565 -0.2823 -0.1746
12359SOL    HW238946   1.923   4.545   4.834  0.0671 -0.2609  0.0844
12360SOL     OW38947   0.076   2.071   5.413  0.1482 -0.0827 -0.0299
12360SOL    HW138948   0.083   1.978   5.389 -2.3661 -1.0041  2.2780
12360SOL    HW238949  -0.015   2.081   5.443  0.4446  3.0700  0.1388
12361SOL     OW38950   4.290   8.665   6.397 -0.4678 -0.4944 -0.0184
12361SOL    HW138951   4.305   8.644   6.489 -0.7954  0.2582  0.2171
12361SOL    HW238952   4.203   8.629   6.379 -0.1902 -1.0947 -0.1852
12362SOL     OW38953   7.050   5.065   3.807 -0.4280  0.3239  0.4017
12362SOL    HW138954   6.957   5.086   3.814 -0.2134  0.9202  2.1675
12362SOL    HW238955   7.080   5.114   3.730 -1.2654  1.4405  0.7523
12363SOL     OW38956   4.151   4.282   5.742  0.5124 -1.0287  0.1065
12363SOL    HW138957   4.161   4.292   5.836 -1.3165 -2.0100  0.4598
12363SOL    HW238958   4.225   4.228   5.715  2.1857  0.8719  0.5816
12364SOL     OW38959   1.721   6.031   8.282  0.2407  0.1993  0.1998
12364SOL    HW138960   1.683   5.983   8.355  1.4028 -0.6614  0.2717
12364SOL    HW238961   1.649   6.045   8.221 -0.4041 -0.4408  0.8110
12365SOL     OW38962   8.772   3.301   7.804 -0.0508  0.1909 -0.0163
12365SOL    HW138963   8.835   3.321   7.873 -1.1985 -0.4564  1.2921
12365SOL    HW238964   8.784   3.370   7.739  1.9127  0.1191  0.2291
12366SOL     OW38965   0.637   5.603   2.877  0.1318 -0.0682 -0.0987
12366SOL    HW138966   0.685   5.673   2.922  1.9508 -0.7275 -0.9196
12366SOL    HW238967   0.604   5.547   2.947  2.5167 -0.8258  0.5057
12367SOL     OW38968   1.032   4.334   2.616  0.1664 -0.9426  0.0367
12367SOL    HW138969   1.102   4.269   2.622 -0.2718 -1.5414 -0.9417
12367SOL    HW238970   1.058   4.404   2.676 -0.1327 -2.7260  2.3802
12368SOL     OW38971   6.965   5.828   8.576 -0.7716 -0.5869  0.3870
12368SOL    HW138972   7.048   5.870   8.552  0.5010 -3.0955  0.1119
12368SOL    HW238973   6.982   5.788   8.661 -0.8926 -3.0045 -0.6345
12369SOL     OW38974   0.652   2.201   4.627  0.2796  0.0648  0.3333
12369SOL    HW138975   0.646   2.134   4.695  2.6589 -0.8966 -0.3170
12369SOL    HW238976   0.710   2.268   4.663 -0.5695  0.8643  0.2478
12370SOL     OW38977   7.215   8.711   7.110  0.0705  0.1642  0.4068
12370SOL    HW138978   7.215   8.795   7.064 -1.6892  0.3973  0.7678
12370SOL    HW238979   7.290   8.717   7.170  1.6344  0.3526 -1.4671
12371SOL     OW38980   0.270   3.036   5.811 -0.2260 -0.1146  0.3636
12371SOL    HW138981   0.318   3.004   5.734  0.9687 -1.5260  1.6361
12371SOL    HW238982   0.329   3.019   5.884 -1.9174 -0.1109  1.7787
12372SOL     OW38983   2.539   3.817   4.666 -0.9427  0.1914 -0.2756
12372SOL    HW138984   2.577   3.876   4.601 -0.1081  2.2258  1.9147
12372SOL    HW238985   2.518   3.874   4.740 -0.3381 -2.2193  1.8733
12373SOL     OW38986   3.448   1.355   3.664  0.2468 -0.1952 -0.0147
12373SOL    HW138987   3.436   1.430   3.605 -3.0572  0.3437  1.1346
12373SOL    HW238988   3.507   1.387   3.732  1.0851  0.4106 -0.9872
12374SOL     OW38989   6.138   5.374   3.767  0.2459  0.0635  0.1791
12374SOL    HW138990   6.108   5.465   3.766 -2.2810 -0.6670 -1.4567
12374SOL    HW238991   6.180   5.362   3.682  0.8468 -0.2360  0.5108
12375SOL     OW38992   4.159   1.997   1.947  0.3526  0.0486  0.2949
12375SOL    HW138993   4.236   2.039   1.908  0.9982  0.1478  1.6085
12375SOL    HW238994   4.187   1.907   1.965 -0.2737 -0.2946 -0.3985
12376SOL     OW38995   4.262   7.398   5.875  0.3308 -0.1922 -0.0225
12376SOL    HW138996   4.258   7.492   5.892  0.6421 -0.0381 -0.7227
12376SOL    HW238997   4.173   7.374   5.849  0.1674 -0.1670  0.5093
12377SOL     OW38998   2.115   3.232   8.912 -0.0841 -0.5406 -0.2033
12377SOL    HW138999   2.194   3.281   8.935 -0.3600 -0.6059  0.9445
12377SOL    HW239000   2.100   3.253   8.820 -1.0233  2.7373  0.5785
12378SOL     OW39001   5.534   0.654   6.385 -0.2644  0.4592  0.5410
12378SOL    HW139002   5.552   0.721   6.319  0.2180  0.7006  0.9142
12378SOL    HW239003   5.593   0.581   6.363 -0.5365  0.2970  0.3461
12379SOL     OW39004   7.835   0.748   3.744 -0.0521  0.2834 -0.5738
12379SOL    HW139005   7.855   0.841   3.728  2.2575 -0.3529 -1.8102
12379SOL    HW239006   7.816   0.744   3.838  0.3737  1.9164 -0.3870
12380SOL     OW39007   4.675   4.290   5.363 -0.3002  0.1145  0.4896
12380SOL    HW139008   4.733   4.332   5.301 -1.2249  0.8985  0.1309
12380SOL    HW239009   4.728   4.221   5.403  0.4979  0.0249 -0.6854
12381SOL     OW39010   4.073   1.288   0.145 -0.7591  0.2750 -0.0636
12381SOL    HW139011   4.079   1.194   0.164 -1.1866 -0.0596 -1.4443
12381SOL    HW239012   4.030   1.292   0.059 -0.7555  1.7406 -0.0206
12382SOL     OW39013   2.241   7.091   6.389  0.3851  0.3697 -0.3851
12382SOL    HW139014   2.293   7.020   6.352 -0.5709 -1.6660  1.8443
12382SOL    HW239015   2.179   7.114   6.321  1.5365 -0.0445 -1.6084
12383SOL     OW39016   2.519   5.545   8.415  0.2233 -0.2406 -0.0259
12383SOL    HW139017   2.477   5.599   8.348  1.6995  1.5193  0.3994
12383SOL    HW239018   2.541   5.464   8.370 -2.8388 -0.9753 -0.4706
12384SOL     OW39019   3.850   7.051   4.378 -0.4234 -0.1816  0.0165
12384SOL    HW139020   3.892   6.997   4.445 -0.3619  1.6044  1.4781
12384SOL    HW239021   3.912   7.122   4.361 -0.0600 -1.0223 -2.6093
12385SOL     OW39022   6.136   3.688   6.977  0.6406  0.0532 -0.4510
12385SOL    HW139023   6.074   3.655   7.041  0.2216  1.8693  0.1195
12385SOL    HW239024   6.222   3.674   7.017  0.4370  0.2327  0.0522
12386SOL     OW39025   2.363   3.259   0.704 -0.3519  0.0011  0.2695
12386SOL    HW139026   2.445   3.228   0.665  0.4844 -0.5151  2.2987
12386SOL    HW239027   2.346   3.343   0.661  0.8946 -0.1918 -0.6515
12387SOL     OW39028   2.975   2.805   2.325  0.3634 -0.2841  0.5925
12387SOL    HW139029   2.908   2.774   2.264 -0.9785  0.0944  1.8266
12387SOL    HW239030   3.019   2.876   2.277 -0.6158 -0.0322  0.0242
12388SOL     OW39031   7.407   5.009   3.606  0.2028 -0.2966 -0.4141
12388SOL    HW139032   7.501   5.004   3.587  0.2178  0.6692 -0.6256
12388SOL    HW239033   7.397   5.089   3.658 -0.6564  0.2560 -1.3903
12389SOL     OW39034   4.043   5.552   0.455  0.3361  0.0703 -0.4739
12389SOL    HW139035   3.969   5.610   0.474  0.7662  0.9869 -1.4737
12389SOL    HW239036   4.058   5.505   0.536 -2.2700 -1.2324 -0.6459
12390SOL     OW39037   6.213   7.318   5.136  0.1830 -0.4225  0.2146
12390SOL    HW139038   6.198   7.323   5.041 -2.4179  0.0868  0.5805
12390SOL    HW239039   6.286   7.378   5.151 -0.3581  0.7088 -1.3034
12391SOL     OW39040   3.046   1.574   1.994 -0.2651  0.4519  0.3314
12391SOL    HW139041   3.112   1.504   1.996 -1.4716 -0.7493 -0.7426
12391SOL    HW239042   2.998   1.563   2.076 -1.1815 -0.7289 -0.3414
12392SOL     OW39043   6.393   3.314   7.069  0.1019  0.0357 -0.2300
12392SOL    HW139044   6.483   3.290   7.089  0.5634  1.8030 -0.0894
12392SOL    HW239045   6.357   3.345   7.153 -0.5458 -0.3357 -0.3579
12393SOL     OW39046   3.992   0.784   8.231 -0.0657 -0.1675  0.4320
12393SOL    HW139047   4.068   0.779   8.289  0.9462 -0.5433 -0.8641
12393SOL    HW239048   4.014   0.727   8.158 -1.2875  0.3002 -0.3387
12394SOL     OW39049   1.652   4.434   1.616  0.0341  0.3981 -0.0910
12394SOL    HW139050   1.670   4.494   1.688 -0.7556 -0.0282  0.4851
12394SOL    HW239051   1.728   4.376   1.614 -0.8484 -0.9720  1.8684
12395SOL     OW39052   0.990   4.028   6.705  0.3858 -0.1366 -0.2472
12395SOL    HW139053   0.943   4.100   6.747  0.0440  0.9361 -2.3593
12395SOL    HW239054   0.933   4.000   6.634  1.5657 -0.9098 -0.9247
12396SOL     OW39055   4.098   8.893   8.095 -0.5649 -0.0183  0.0642
12396SOL    HW139056   4.032   8.828   8.118 -0.3649 -0.3066 -0.1709
12396SOL    HW239057   4.078   8.916   8.004 -2.1978  2.1065  0.8659
12397SOL     OW39058   4.898   5.122   0.159  0.1434  0.0840  0.0684
12397SOL    HW139059   4.882   5.044   0.106 -1.2998 -0.5831  1.3856
12397SOL    HW239060   4.814   5.138   0.204  0.9129  1.3708  1.1333
12398SOL     OW39061   4.833   0.088   5.433  0.1733  0.2052  0.2450
12398SOL    HW139062   4.747   0.098   5.392 -0.6048 -1.5240  1.3251
12398SOL    HW239063   4.894   0.085   5.359 -0.9261 -0.4981 -0.6791
12399SOL     OW39064   4.340   6.992   4.877 -0.1023 -0.0058 -0.2499
12399SOL    HW139065   4.410   6.940   4.916  1.8638  0.4916 -2.9011
12399SOL    HW239066   4.260   6.958   4.918  1.3081 -3.1793  0.1701
12400SOL     OW39067   6.986   8.899   5.251 -0.1503 -0.4985  0.4698
12400SOL    HW139068   7.022   8.868   5.169  0.0057  0.8649  0.0042
12400SOL    HW239069   6.981   8.821   5.306  1.0617 -1.1697 -0.3407
12401SOL     OW39070   8.608   2.643   6.422 -0.3009  0.0898 -0.3655
12401SOL    HW139071   8.556   2.712   6.382 -0.7100  0.7322  1.1912
12401SOL    HW239072   8.684   2.689   6.458 -0.5996 -0.2397  0.7204
12402SOL     OW39073   2.622   6.934   1.430  0.5613  0.1961 -0.3044
12402SOL    HW139074   2.588   7.020   1.404  1.5815  0.7751  0.1908
12402SOL    HW239075   2.615   6.881   1.351  3.6109  1.9187 -1.9144
12403SOL     OW39076   8.297   5.164   1.121 -0.3354  0.0731  0.2950
12403SOL    HW139077   8.223   5.216   1.091 -0.8541 -0.3448  0.8390
12403SOL    HW239078   8.300   5.178   1.215  0.1616 -0.0570  0.3020
12404SOL     OW39079   7.222   5.968   5.475  0.1116  0.1674  0.1255
12404SOL    HW139080   7.155   6.028   5.441  0.8634 -0.6289 -3.1565
12404SOL    HW239081   7.177   5.885   5.485  0.2114  0.0459 -0.4108
12405SOL     OW39082   6.825   8.136   0.013  0.0223 -0.1136 -0.2303
12405SOL    HW139083   6.827   8.176   0.100 -2.8999 -0.6321  0.1871
12405SOL    HW239084   6.837   8.042   0.030  1.4894 -0.0028 -0.6218
12406SOL     OW39085   3.180   3.594   8.505  0.4195  0.2535 -0.0569
12406SOL    HW139086   3.270   3.605   8.537 -0.0915 -0.7443  1.8468
12406SOL    HW239087   3.177   3.504   8.474  0.1984  0.4494 -0.6238
12407SOL     OW39088   3.060   1.257   5.782  0.0372  0.1815 -0.1615
12407SOL    HW139089   3.114   1.289   5.710 -0.9666  1.9600 -0.1863
12407SOL    HW239090   3.038   1.167   5.758  1.8631 -0.1396 -0.7684
12408SOL     OW39091   8.707   0.958   2.782 -0.0879  0.2005 -0.1674
12408SOL    HW139092   8.681   1.043   2.747  2.4136  1.2302  0.2037
12408SOL    HW239093   8.662   0.952   2.866 -0.3394  1.1631 -0.2220
12409SOL     OW39094   6.467   4.594   5.039 -0.4438  0.3657  0.1112
12409SOL    HW139095   6.410   4.645   4.982 -0.4761  0.1068 -0.0949
12409SOL    HW239096   6.410   4.563   5.109 -0.2058  1.4576  0.7993
12410SOL     OW39097   5.182   3.848   2.763  0.6552  0.0771  0.6115
12410SOL    HW139098   5.259   3.872   2.814  0.2612  1.0289  0.7841
12410SOL    HW239099   5.213   3.784   2.700  1.1877 -1.0300  1.9620
12411SOL     OW39100   0.569   3.664   0.272  0.2580 -0.1919 -0.3969
12411SOL    HW139101   0.546   3.592   0.214  0.5481 -0.0480 -0.6900
12411SOL    HW239102   0.651   3.636   0.313  0.8791  0.3860 -1.2307
12412SOL     OW39103   6.779   0.165   2.378  0.6704  0.0514 -0.2755
12412SOL    HW139104   6.690   0.138   2.358  0.4947 -0.1392  0.7114
12412SOL    HW239105   6.776   0.261   2.377  0.4689  0.0452 -0.2785
12413SOL     OW39106   8.989   7.256   6.195  0.1002  0.1498 -0.1998
12413SOL    HW139107   9.045   7.231   6.268  0.9065  2.7271  0.1309
12413SOL    HW239108   8.999   7.184   6.132  0.9794 -1.1300  1.3212
12414SOL     OW39109   7.225   2.903   0.875 -0.1043  0.2773  0.3194
12414SOL    HW139110   7.306   2.954   0.870  0.0155  0.0264 -0.4831
12414SOL    HW239111   7.188   2.925   0.960  0.3907  1.0305  0.3512
12415SOL     OW39112   4.103   5.019   1.597 -0.6273 -0.2989  0.4552
12415SOL    HW139113   4.134   4.949   1.653 -1.6231 -0.5572  0.6996
12415SOL    HW239114   4.170   5.087   1.603 -0.1060 -0.8549  0.9353
12416SOL     OW39115   0.453   5.609   6.977 -0.2674 -0.9896  0.4699
12416SOL    HW139116   0.420   5.697   6.963  1.0070 -0.7058 -1.1234
12416SOL    HW239117   0.472   5.605   7.070 -0.0608  0.5304  0.5189
12417SOL     OW39118   8.585   1.435   5.483  0.6651 -0.3341 -0.7571
12417SOL    HW139119   8.504   1.483   5.467  1.0481  0.5819 -0.0541
12417SOL    HW239120   8.596   1.438   5.578  0.2627 -2.5816 -0.5912
12418SOL     OW39121   8.600   5.152   8.477 -0.3193 -0.1873 -0.3513
12418SOL    HW139122   8.533   5.213   8.447 -0.6290  0.4371  1.4382
12418SOL    HW239123   8.564   5.066   8.457 -1.4454  0.1514  0.0929
12419SOL     OW39124   4.801   2.709   4.796 -0.3899  0.0397 -0.1630
12419SOL    HW139125   4.792   2.724   4.890  0.9142  0.7830 -0.1291
12419SOL    HW239126   4.713   2.718   4.761 -1.0139 -0.9800  1.0795
12420SOL     OW39127   1.036   6.644   1.124 -0.0625 -0.1209 -0.2879
12420SOL    HW139128   0.977   6.584   1.169 -1.6684  2.7454  1.7278
12420SOL    HW239129   1.114   6.647   1.180  0.1803 -0.5515 -0.5924
12421SOL     OW39130   8.011   2.965   0.100 -0.7166  0.0782 -0.0463
12421SOL    HW139131   7.935   2.912   0.075 -1.5390  1.2696 -0.1533
12421SOL    HW239132   8.017   3.032   0.032 -1.8160  2.2011  1.8363
12422SOL     OW39133   1.189   8.093   1.837  0.0217  0.4374  0.0869
12422SOL    HW139134   1.180   8.150   1.761  0.7444  1.2929  0.6159
12422SOL    HW239135   1.279   8.060   1.832 -0.0229  0.2638  0.4059
12423SOL     OW39136   0.394   3.415   1.416  0.1746 -0.5681  0.1301
12423SOL    HW139137   0.368   3.401   1.325  2.1700 -1.5445 -0.3433
12423SOL    HW239138   0.326   3.472   1.452  0.3789  1.5344 -2.5273
12424SOL     OW39139   8.315   4.119   3.036 -1.2118 -0.3314 -0.0924
12424SOL    HW139140   8.375   4.177   2.989 -0.5226  0.0721  1.2470
12424SOL    HW239141   8.264   4.076   2.967 -0.6598  0.7034 -1.1736
12425SOL     OW39142   5.753   2.722   7.588 -0.6531  0.3409  0.1171
12425SOL    HW139143   5.702   2.685   7.516 -2.8957  1.7006  0.9090
12425SOL    HW239144   5.718   2.680   7.666  1.3431 -0.6670  0.5308
12426SOL     OW39145   3.137   6.318   0.985  0.0234 -0.0157  0.2756
12426SOL    HW139146   3.167   6.312   1.076 -1.3003 -0.0130  0.7266
12426SOL    HW239147   3.218   6.317   0.934  0.7680 -0.7595  1.4091
12427SOL     OW39148   4.228   6.153   3.861  0.0335  0.3052  0.1626
12427SOL    HW139149   4.170   6.217   3.820 -0.4721 -0.8809 -1.0738
12427SOL    HW239150   4.314   6.195   3.861  0.1731  0.2226 -2.6502
12428SOL     OW39151   4.056   5.207   0.036  0.1687  0.7672  0.6617
12428SOL    HW139152   3.988   5.216  -0.031 -0.7275 -0.8400  1.3035
12428SOL    HW239153   4.052   5.289   0.085  0.0874  1.5106 -0.5371
12429SOL     OW39154   8.348   5.472   5.739  0.0953  0.6313 -0.0320
12429SOL    HW139155   8.443   5.485   5.746  0.0920  0.2514  0.8466
12429SOL    HW239156   8.325   5.425   5.818 -0.5207 -1.1383 -1.2095
12430SOL     OW39157   3.202   4.195   6.864 -0.0785 -0.7333  0.6250
12430SOL    HW139158   3.213   4.103   6.839  0.7231 -0.7091  0.8663
12430SOL    HW239159   3.109   4.213   6.847 -0.5854 -1.9598  1.8533
12431SOL     OW39160   6.335   7.717   5.698  0.4289  0.0844  0.0732
12431SOL    HW139161   6.394   7.793   5.704 -1.2043  1.4053  0.3168
12431SOL    HW239162   6.281   7.734   5.621 -0.3364 -0.5434  0.4523
12432SOL     OW39163   6.616   2.714   8.313  0.0376  0.1906 -0.2581
12432SOL    HW139164   6.549   2.655   8.347  0.3197 -0.1698 -0.3151
12432SOL    HW239165   6.609   2.704   8.218  0.8251 -0.6045 -0.2477
12433SOL     OW39166   0.366   2.500   2.503  0.4664 -0.1000 -0.7610
12433SOL    HW139167   0.389   2.478   2.593  0.6970  0.1061 -0.7672
12433SOL    HW239168   0.314   2.426   2.472  0.3695 -0.1612 -0.4521
12434SOL     OW39169   0.825   4.985   2.700 -0.5405  0.4947  0.0998
12434SOL    HW139170   0.732   4.995   2.719 -0.4233 -0.7206  1.4607
12434SOL    HW239171   0.828   4.946   2.612 -1.2745  1.1787 -0.2430
12435SOL     OW39172   1.395   5.699   6.360 -0.1166  0.3804  0.2021
12435SOL    HW139173   1.348   5.684   6.277  0.7268  2.7308 -0.7994
12435SOL    HW239174   1.327   5.730   6.420 -0.4627  0.2743 -0.1294
12436SOL     OW39175   0.130   4.784   8.983 -0.4370 -0.5661  0.2389
12436SOL    HW139176   0.175   4.782   9.068 -1.2851  0.3332  0.7331
12436SOL    HW239177   0.130   4.877   8.960 -1.1719 -0.6848 -0.2264
12437SOL     OW39178   4.973   2.528   3.186 -0.1289 -0.2436 -0.0443
12437SOL    HW139179   4.878   2.530   3.176  0.0215 -1.8053 -2.7415
12437SOL    HW239180   4.996   2.617   3.214 -2.4454 -0.2804  2.4051
12438SOL     OW39181   6.137   2.005   7.335 -0.6402  0.6526 -0.2883
12438SOL    HW139182   6.180   1.940   7.280  2.7445  1.1781  1.4223
12438SOL    HW239183   6.114   1.957   7.415 -1.7991  0.7458 -0.5526
12439SOL     OW39184   6.704   8.007   1.992  0.0505  0.0844 -0.3100
12439SOL    HW139185   6.703   7.998   2.087 -1.2928 -1.4030 -0.4189
12439SOL    HW239186   6.612   7.996   1.966  0.7285 -2.5525 -1.9777
12440SOL     OW39187   7.394   5.650   1.528 -0.1333 -0.0507  0.7039
12440SOL    HW139188   7.417   5.671   1.437 -0.2722 -0.0664  0.6643
12440SOL    HW239189   7.315   5.703   1.545 -0.1759 -0.1378  0.7768
12441SOL     OW39190   2.966   0.113   6.172 -0.4216 -0.0711 -0.0559
12441SOL    HW139191   3.002   0.164   6.245 -0.1403 -0.6954  0.2511
12441SOL    HW239192   2.906   0.173   6.128 -0.6945  0.2736  0.7685
12442SOL     OW39193   5.675   2.970   1.636 -0.3222  0.0449  0.3911
12442SOL    HW139194   5.683   2.889   1.585 -0.9836  0.2449 -0.0483
12442SOL    HW239195   5.587   2.965   1.673 -0.4620  0.6802  0.1501
12443SOL     OW39196   7.648   6.031   7.026 -0.2005 -0.0400  0.1978
12443SOL    HW139197   7.666   6.055   7.117 -1.6928 -0.3205  0.6012
12443SOL    HW239198   7.596   6.104   6.992  2.1620  1.1069 -1.1457
12444SOL     OW39199   3.409   3.085   5.184  0.3775  0.0258 -0.2725
12444SOL    HW139200   3.377   3.109   5.097 -4.0678  0.3735  1.1789
12444SOL    HW239201   3.438   2.994   5.174 -2.6401 -0.9341 -1.7513
12445SOL     OW39202   5.838   0.441   5.323  0.0221 -0.1186  0.0933
12445SOL    HW139203   5.905   0.381   5.292 -0.3880 -0.7763  0.4669
12445SOL    HW239204   5.886   0.521   5.345  0.3946  0.2291 -1.7781
12446SOL     OW39205   3.101   2.402   0.047  0.0304 -0.2359  0.1165
12446SOL    HW139206   3.168   2.348   0.003 -0.9173  0.3859 -2.2240
12446SOL    HW239207   3.147   2.484   0.068 -0.3167  0.9508 -3.1855
12447SOL     OW39208   3.105   7.469   3.168 -0.0757  0.4196 -0.0547
12447SOL    HW139209   3.105   7.399   3.234 -0.3032  2.5590  2.3725
12447SOL    HW239210   3.191   7.461   3.125 -0.6367 -2.1526 -0.8638
12448SOL     OW39211   8.983   2.759   1.264 -0.3397 -0.1973  0.0739
12448SOL    HW139212   8.978   2.796   1.352 -2.3560 -0.6496  0.1998
12448SOL    HW239213   8.915   2.691   1.262  1.6177 -2.2416 -0.9158
12449SOL     OW39214   1.642   6.767   8.335  0.7382  0.4441  0.5894
12449SOL    HW139215   1.556   6.727   8.325  1.4039 -0.9186 -0.0092
12449SOL    HW239216   1.696   6.697   8.371  1.7041  1.1559  0.5654
12450SOL     OW39217   8.776   1.315   5.118 -0.0895 -0.1952  0.0892
12450SOL    HW139218   8.800   1.299   5.027 -1.3930 -3.6725  0.2027
12450SOL    HW239219   8.856   1.298   5.168  1.0338  3.1017 -0.3375
12451SOL     OW39220   6.629   5.403   7.229  0.1441 -0.2829 -0.9051
12451SOL    HW139221   6.711   5.429   7.271  0.8824 -0.3844 -2.2429
12451SOL    HW239222   6.648   5.318   7.189 -1.0916 -1.0787  0.0833
12452SOL     OW39223   6.149   0.985   5.736 -0.1279  0.2143 -0.5279
12452SOL    HW139224   6.071   1.021   5.696  0.5968  0.7569 -1.4751
12452SOL    HW239225   6.182   0.920   5.673 -0.6774 -1.1896  0.5621
12453SOL     OW39226   3.494   2.570   2.689 -0.3002 -0.7753  0.2384
12453SOL    HW139227   3.492   2.494   2.631  2.0970 -0.3080 -0.6062
12453SOL    HW239228   3.548   2.541   2.763 -1.1172 -0.5278  0.9381
12454SOL     OW39229   7.293   1.296   6.118 -0.3950 -0.0239 -0.1052
12454SOL    HW139230   7.214   1.322   6.166 -0.0281  0.6855  0.1354
12454SOL    HW239231   7.362   1.297   6.184  0.3060  1.9317 -0.8084
12455SOL     OW39232   3.360   0.964   0.571  0.5126 -0.0883  0.0590
12455SOL    HW139233   3.383   0.909   0.646  3.0303  0.2878 -0.3535
12455SOL    HW239234   3.414   1.043   0.581 -0.8035  0.9821 -0.9495
12456SOL     OW39235   3.032   1.955   6.382  0.0695  0.6369 -0.3852
12456SOL    HW139236   2.948   1.969   6.339 -0.2240  0.9108  0.2585
12456SOL    HW239237   3.012   1.960   6.476  0.5545 -0.7200 -0.1932
12457SOL     OW39238   6.793   7.592   8.550 -0.0707 -0.0202  0.1022
12457SOL    HW139239   6.701   7.578   8.525 -0.3085  2.0871 -0.4509
12457SOL    HW239240   6.806   7.686   8.537  1.8458 -0.0771  1.3175
12458SOL     OW39241   4.117   2.248   4.261  0.2593 -0.4095 -0.2615
12458SOL    HW139242   4.073   2.221   4.181 -1.7660 -2.3671  1.4172
12458SOL    HW239243   4.095   2.182   4.326  2.1801  0.8498  1.8639
12459SOL     OW39244   4.156   7.114   5.994  0.9114 -0.2158 -0.1697
12459SOL    HW139245   4.139   7.176   6.065  2.7485 -1.1457  1.1953
12459SOL    HW239246   4.245   7.136   5.964  0.3680 -0.1803 -1.8645
12460SOL     OW39247   1.143   8.676   8.938  0.6224 -0.9366  0.1190
12460SOL    HW139248   1.057   8.635   8.933  1.0784 -1.8712 -0.2775
12460SOL    HW239249   1.149   8.730   8.860  0.0179 -0.0810  0.6445
12461SOL     OW39250   4.048   7.485   7.373 -0.3568  0.1644  0.5341
12461SOL    HW139251   3.982   7.464   7.308 -0.2117  1.1351  0.0523
12461SOL    HW239252   4.001   7.479   7.457  0.3514 -4.9941  0.8550
12462SOL     OW39253   4.901   4.514   3.669 -0.1187 -0.2840 -0.1871
12462SOL    HW139254   4.817   4.494   3.713  0.4821 -1.0858  0.6410
12462SOL    HW239255   4.964   4.520   3.741  0.6147 -0.1023 -0.8386
12463SOL     OW39256   6.440   6.243   0.798 -0.1828  0.5730 -0.1271
12463SOL    HW139257   6.456   6.227   0.705 -0.9786  1.3684 -0.4177
12463SOL    HW239258   6.395   6.328   0.800  0.9397  1.1663  1.0811
12464SOL     OW39259   8.431   6.220   3.954  0.2670 -0.4649  0.2328
12464SOL    HW139260   8.372   6.239   4.027 -0.7789  1.3754 -1.0423
12464SOL    HW239261   8.428   6.124   3.946 -1.9116 -0.4934  0.7329
12465SOL     OW39262   4.130   5.453   5.149 -0.3384  0.0344 -0.2310
12465SOL    HW139263   4.140   5.358   5.148 -0.5344 -0.0209  1.1877
12465SOL    HW239264   4.054   5.470   5.093 -1.2083 -0.7929  0.6540
12466SOL     OW39265   4.923   5.441   0.967  0.1049 -0.5213  0.0494
12466SOL    HW139266   4.865   5.380   0.921 -0.7929  0.8587 -0.7323
12466SOL    HW239267   4.910   5.423   1.060 -0.3988 -1.2807 -0.1643
12467SOL     OW39268   6.844   3.800   8.648  0.4645  0.1817 -0.5280
12467SOL    HW139269   6.881   3.734   8.707 -1.5942 -2.0264 -1.5419
12467SOL    HW239270   6.775   3.842   8.699  0.4706  0.1720 -0.5118
12468SOL     OW39271   1.378   4.882   1.454 -0.1733  0.2097  0.1894
12468SOL    HW139272   1.423   4.806   1.417 -1.0496 -0.4457  0.4324
12468SOL    HW239273   1.395   4.953   1.391 -0.5697 -0.5592 -0.8155
12469SOL     OW39274   0.757   7.092   6.586 -0.0612 -0.0922 -0.0548
12469SOL    HW139275   0.683   7.149   6.563  0.1824 -0.5273 -2.1201
12469SOL    HW239276   0.821   7.150   6.627 -1.4868  0.3010  1.7502
12470SOL     OW39277   4.847   8.426   4.076 -0.1743  0.9899  0.0034
12470SOL    HW139278   4.895   8.483   4.136  0.0169  1.8167 -0.9111
12470SOL    HW239279   4.892   8.435   3.993 -1.0457  0.6430 -0.5241
12471SOL     OW39280   8.202   6.163   6.902 -0.1037  0.0615 -0.0123
12471SOL    HW139281   8.274   6.110   6.866 -0.1553 -0.7405  0.9972
12471SOL    HW239282   8.234   6.253   6.898 -0.0349 -0.0032 -1.8407
12472SOL     OW39283   5.992   4.213   4.961 -0.3905 -0.2217 -0.8133
12472SOL    HW139284   5.967   4.213   4.869 -2.6393 -1.9266 -0.2733
12472SOL    HW239285   6.067   4.153   4.965  0.9984  1.3480 -1.7506
12473SOL     OW39286   7.886   2.799   6.621  0.4098  0.1327  0.0324
12473SOL    HW139287   7.962   2.855   6.609  0.2190  0.0457 -1.8965
12473SOL    HW239288   7.810   2.856   6.605  0.1211 -0.1332  0.4213
12474SOL     OW39289   0.336   7.079   5.270  0.0607  0.4445 -0.2570
12474SOL    HW139290   0.278   7.007   5.294  0.9189 -0.0860  0.2983
12474SOL    HW239291   0.302   7.112   5.188 -1.0838  0.2140  0.1138
12475SOL     OW39292   8.474   8.370   2.475 -0.1333 -0.0476  0.2576
12475SOL    HW139293   8.400   8.408   2.427  0.9428  1.1417 -0.5451
12475SOL    HW239294   8.434   8.311   2.539 -1.7294 -0.0074 -0.6405
12476SOL     OW39295   7.943   3.303   8.146  0.4980 -0.3619  0.1106
12476SOL    HW139296   7.899   3.229   8.103 -0.0385  0.5657 -0.9753
12476SOL    HW239297   7.941   3.373   8.081 -2.2530  1.8120  2.3102
12477SOL     OW39298   5.675   8.699   4.579 -0.2582 -0.3783 -0.6687
12477SOL    HW139299   5.635   8.618   4.613  0.6042  0.3224  2.2734
12477SOL    HW239300   5.731   8.730   4.650  1.4259  1.4961 -2.6717
12478SOL     OW39301   3.220   1.994   1.810 -0.7045 -0.2125 -0.0641
12478SOL    HW139302   3.279   1.923   1.834 -0.3607  0.6758  1.9256
12478SOL    HW239303   3.208   1.985   1.715  3.0299 -0.1252 -0.6663
12479SOL     OW39304   6.973   1.836   0.385  0.2358  0.0994  0.0588
12479SOL    HW139305   6.986   1.775   0.313 -0.2312  1.2599 -1.0498
12479SOL    HW239306   6.880   1.831   0.405 -0.3252  2.1591 -1.6965
12480SOL     OW39307   6.388   3.316   4.781  0.1505  0.0120  0.2743
12480SOL    HW139308   6.328   3.381   4.816  1.3812  0.5235  1.5097
12480SOL    HW239309   6.459   3.310   4.846  1.6034 -0.3410 -1.2605
12481SOL     OW39310   4.756   0.129   1.170  0.1969 -0.0585 -0.2787
12481SOL    HW139311   4.819   0.060   1.186  0.4504 -0.0378 -1.1472
12481SOL    HW239312   4.730   0.118   1.079  0.0789  0.8516 -0.3689
12482SOL     OW39313   2.732   8.013   5.773 -0.1551  0.4001  0.3122
12482SOL    HW139314   2.791   8.046   5.841  2.0021 -0.6359 -0.9522
12482SOL    HW239315   2.730   8.082   5.706 -0.2794  0.3709  0.2847
12483SOL     OW39316   6.211   2.866   7.488 -0.4583 -0.3278  0.0029
12483SOL    HW139317   6.261   2.890   7.410 -1.2210  0.6702 -0.1872
12483SOL    HW239318   6.273   2.875   7.560 -0.1715  0.2197 -0.3110
12484SOL     OW39319   1.169   6.494   2.301  0.1526 -0.3678  0.4918
12484SOL    HW139320   1.093   6.473   2.246 -0.6505  0.8304  1.0874
12484SOL    HW239321   1.243   6.456   2.255 -0.5013  0.4780 -1.3860
12485SOL     OW39322   3.512   0.241   0.557  0.2242  0.0318  0.3367
12485SOL    HW139323   3.421   0.272   0.557  0.3091  0.3165  1.2647
12485SOL    HW239324   3.511   0.165   0.499 -0.3502  0.7448 -0.6204
12486SOL     OW39325   5.232   6.591   7.704  0.0743 -0.2327  0.0450
12486SOL    HW139326   5.262   6.586   7.795 -0.2584  0.4700  0.1982
12486SOL    HW239327   5.174   6.667   7.702 -0.7039 -0.8278 -0.5300
12487SOL     OW39328   7.654   2.253   8.549  0.5199 -0.2018  0.0756
12487SOL    HW139329   7.663   2.210   8.464 -0.4723  0.7836 -0.5663
12487SOL    HW239330   7.744   2.273   8.576  0.8508 -0.5582 -0.7326
12488SOL     OW39331   6.968   2.893   1.618  0.5023  0.1569  0.1251
12488SOL    HW139332   6.957   2.950   1.694 -1.0631 -0.0818  0.0956
12488SOL    HW239333   6.907   2.928   1.553 -0.9002 -1.8427  0.2900
12489SOL     OW39334   0.182   4.974   4.487 -0.0497 -0.3885 -0.0276
12489SOL    HW139335   0.109   5.025   4.452 -0.0063  0.2233  0.7617
12489SOL    HW239336   0.219   5.028   4.556  0.8446 -0.9126 -0.0792
12490SOL     OW39337   1.363   1.829   0.158 -0.3055 -0.9496  0.4673
12490SOL    HW139338   1.433   1.878   0.116 -0.0132 -1.8167 -0.0805
12490SOL    HW239339   1.283   1.869   0.124 -0.0723 -1.1945 -0.3962
12491SOL     OW39340   2.829   1.687   1.401  0.7187 -0.3931 -0.4849
12491SOL    HW139341   2.815   1.728   1.316  1.4494 -0.1676 -0.5013
12491SOL    HW239342   2.918   1.713   1.426 -0.3469  1.6063  1.4910
12492SOL     OW39343   1.957   1.213   3.933 -0.2339  0.4870  0.2517
12492SOL    HW139344   1.957   1.166   4.016 -0.7749  0.8301  0.4519
12492SOL    HW239345   2.037   1.184   3.889  0.0956  0.3569  0.9225
12493SOL     OW39346   5.139   7.232   4.823  0.9271 -0.2076  0.2952
12493SOL    HW139347   5.102   7.180   4.893  2.3161 -0.7248  0.6667
12493SOL    HW239348   5.223   7.263   4.857  1.4810 -0.2014 -1.0041
12494SOL     OW39349   6.737   0.786   4.924 -0.1766 -0.7190  0.2801
12494SOL    HW139350   6.660   0.733   4.905 -1.3023  1.0298 -0.2954
12494SOL    HW239351   6.803   0.756   4.861 -0.7294 -1.5281  0.0709
12495SOL     OW39352   4.676   8.077   4.629 -0.2068 -0.3247  0.0827
12495SOL    HW139353   4.599   8.067   4.572 -1.5309 -0.3791  1.8131
12495SOL    HW239354   4.749   8.047   4.575 -1.5188 -1.1959 -1.2991
12496SOL     OW39355   8.708   7.546   8.650  0.1686 -0.1824 -0.0131
12496SOL    HW139356   8.712   7.475   8.714 -0.0111 -0.3132 -0.1466
12496SOL    HW239357   8.719   7.502   8.565  1.0962  0.0672 -0.0301
12497SOL     OW39358   6.831   2.205   7.000  0.2170  0.5198  0.0807
12497SOL    HW139359   6.906   2.154   7.030  0.2968  1.1114  0.9363
12497SOL    HW239360   6.864   2.252   6.923  0.2939 -0.3108 -0.3966
12498SOL     OW39361   6.048   1.344   5.857 -0.1711 -0.0257 -0.2014
12498SOL    HW139362   6.000   1.290   5.794  0.2031 -0.7034  0.0842
12498SOL    HW239363   6.082   1.417   5.805 -0.8905  0.0658 -0.5455
12499SOL     OW39364   2.798   5.732   3.037 -0.5311 -0.1975  0.6235
12499SOL    HW139365   2.712   5.769   3.055  0.1136  2.4402 -1.2465
12499SOL    HW239366   2.858   5.807   3.041  1.4346 -1.6605  0.1727
12500SOL     OW39367   4.993   4.142   6.349 -0.2354 -0.6402  0.4924
12500SOL    HW139368   5.054   4.167   6.417 -0.4072 -0.1499  0.4717
12500SOL    HW239369   5.041   4.156   6.267 -1.1083  2.0866  0.3246
12501SOL     OW39370   3.345   5.572   5.188  0.7372  0.2775  0.5480
12501SOL    HW139371   3.353   5.562   5.282  0.8341  0.1928  0.5316
12501SOL    HW239372   3.436   5.580   5.157  0.9127 -2.1753  0.1991
12502SOL     OW39373   4.555   3.253   6.843 -0.3401  0.2903 -0.2008
12502SOL    HW139374   4.578   3.339   6.807  1.0623 -0.3539 -0.9615
12502SOL    HW239375   4.517   3.206   6.769  0.9647 -0.4671 -0.4176
12503SOL     OW39376   5.411   3.719   8.827  0.5727  0.0603  0.3865
12503SOL    HW139377   5.375   3.706   8.739 -0.2347  0.3390  0.6642
12503SOL    HW239378   5.334   3.727   8.883  1.0530  1.1118  0.9354
12504SOL     OW39379   3.731   8.093   5.358  0.0647 -0.0639 -0.6943
12504SOL    HW139380   3.653   8.148   5.366  0.5544  0.5089  0.3918
12504SOL    HW239381   3.728   8.036   5.435  1.7986  1.4380  0.5699
12505SOL     OW39382   3.269   7.917   7.419 -1.4083  0.6246  0.4979
12505SOL    HW139383   3.339   7.981   7.433 -0.2053 -0.1978 -1.3555
12505SOL    HW239384   3.247   7.886   7.506  2.5263 -1.1118  1.0583
12506SOL     OW39385   1.992   5.647   7.654 -0.4526 -0.1096 -0.6526
12506SOL    HW139386   1.970   5.739   7.635 -4.7619 -0.9858 -1.1139
12506SOL    HW239387   2.049   5.651   7.730 -0.7325  2.9609 -0.4602
12507SOL     OW39388   1.895   5.127   3.406  0.2037 -0.8799  0.3429
12507SOL    HW139389   1.950   5.096   3.333  1.5969  1.4098  0.3175
12507SOL    HW239390   1.815   5.158   3.364  1.6509  2.0129 -0.6016
12508SOL     OW39391   4.584   1.654   6.238  0.0803 -0.3457 -0.0962
12508SOL    HW139392   4.620   1.660   6.149  2.7773  1.2752  1.0028
12508SOL    HW239393   4.603   1.564   6.265 -0.9764 -0.9296 -1.1712
12509SOL     OW39394   3.214   7.087   7.935  0.4028  0.1461  0.1712
12509SOL    HW139395   3.276   7.159   7.947 -0.4298  0.6988  1.3735
12509SOL    HW239396   3.139   7.127   7.891 -0.6816  0.4062  2.1509
12510SOL     OW39397   8.575   8.371   4.629  0.1591 -0.4946 -0.5796
12510SOL    HW139398   8.615   8.302   4.683 -1.2142 -1.0866 -0.2848
12510SOL    HW239399   8.607   8.453   4.667  0.2459 -0.9366  0.3142
12511SOL     OW39400   6.148   5.649   0.289 -0.2162 -0.4822 -0.4085
12511SOL    HW139401   6.101   5.593   0.350  1.0211 -0.2404  0.8217
12511SOL    HW239402   6.080   5.705   0.250 -1.1932 -1.5103 -0.2275
12512SOL     OW39403   2.908   1.897   2.792 -0.1626  0.0840 -0.6644
12512SOL    HW139404   2.892   1.990   2.809 -1.1410 -0.7271  4.4925
12512SOL    HW239405   3.003   1.890   2.785  0.0311  1.3159  0.3901
12513SOL     OW39406   0.169   8.521   8.321  0.3751 -0.4202  0.2707
12513SOL    HW139407   0.137   8.547   8.234  0.6937 -0.8583  0.0202
12513SOL    HW239408   0.121   8.577   8.382 -1.4721 -1.6117 -0.0257
12514SOL     OW39409   2.852   1.585   5.717 -0.2123 -0.5392  0.0165
12514SOL    HW139410   2.774   1.566   5.665  0.1439 -0.9319 -0.3802
12514SOL    HW239411   2.877   1.501   5.755  0.6975 -0.6539 -0.8042
12515SOL     OW39412   6.934   1.150   8.535 -0.3737  0.2838  0.3225
12515SOL    HW139413   6.925   1.141   8.630 -1.2738  0.7317  0.2920
12515SOL    HW239414   6.975   1.236   8.524 -0.2893  0.2409  0.2996
12516SOL     OW39415   2.880   6.528   5.546  0.2646  0.0146 -0.4820
12516SOL    HW139416   2.883   6.622   5.528 -0.7208  0.0750 -0.4251
12516SOL    HW239417   2.968   6.506   5.575  0.0740  1.2996  1.2654
12517SOL     OW39418   0.336   8.710   3.604  0.2530  0.8421 -0.6873
12517SOL    HW139419   0.389   8.653   3.661 -1.1020  0.4064  0.1874
12517SOL    HW239420   0.377   8.796   3.612  0.2119  0.7488  0.8252
12518SOL     OW39421   8.906   5.717   1.077 -0.0804  0.3089  0.0988
12518SOL    HW139422   8.893   5.641   1.134  1.1255 -0.4752 -0.6323
12518SOL    HW239423   8.977   5.766   1.118  1.1718 -0.5532 -0.9921
12519SOL     OW39424   3.640   2.255   4.849  0.5586  0.1278 -0.4708
12519SOL    HW139425   3.723   2.217   4.822 -0.3083 -0.8591 -1.9060
12519SOL    HW239426   3.658   2.295   4.934  2.4892 -0.0260 -0.7647
12520SOL     OW39427   7.602   3.866   6.755 -0.0091  0.0304 -0.2283
12520SOL    HW139428   7.643   3.909   6.830  0.8438 -1.0140 -0.0639
12520SOL    HW239429   7.572   3.938   6.699 -1.1064  0.8329  1.3286
12521SOL     OW39430   4.893   1.660   3.719  0.1331 -0.5389 -0.6220
12521SOL    HW139431   4.857   1.747   3.703  0.6099 -0.7843 -3.7345
12521SOL    HW239432   4.979   1.676   3.757 -1.0954  0.1480  2.1538
12522SOL     OW39433   4.997   4.149   2.048  0.1970  0.0152 -0.0879
12522SOL    HW139434   5.006   4.228   2.101  5.0809 -0.9557  1.0592
12522SOL    HW239435   4.972   4.181   1.962 -1.0910  2.4115  1.0693
12523SOL     OW39436   7.132   3.349   7.541 -0.3225  0.3175  0.2971
12523SOL    HW139437   7.198   3.346   7.472  0.2457 -2.1308  0.8674
12523SOL    HW239438   7.068   3.414   7.511  0.8790  0.6882 -1.5899
12524SOL     OW39439   3.581   8.119   4.577  0.3656  0.0722  0.0989
12524SOL    HW139440   3.656   8.062   4.594  0.6377  0.5052  0.3591
12524SOL    HW239441   3.543   8.085   4.496  0.9657 -0.0143 -0.1443
12525SOL     OW39442   7.996   7.339   5.924 -0.5848 -0.6276  0.4631
12525SOL    HW139443   7.938   7.331   5.848 -2.0472 -1.2478  1.6088
12525SOL    HW239444   7.997   7.433   5.943  0.8555 -0.2783 -1.0754
12526SOL     OW39445   4.731   5.534   6.515 -0.6593 -0.0669  0.2286
12526SOL    HW139446   4.670   5.606   6.528 -0.4830  0.1115  0.0754
12526SOL    HW239447   4.816   5.569   6.542 -0.7592 -0.5962  1.3071
12527SOL     OW39448   7.027   0.088   2.066  0.0966  0.3309  0.5512
12527SOL    HW139449   7.022   0.168   2.120  2.2280  0.4521  0.6558
12527SOL    HW239450   7.109   0.098   2.017 -0.0866 -1.3721 -0.1478
12528SOL     OW39451   3.614   3.620   7.508 -0.1513  0.9304  0.0127
12528SOL    HW139452   3.679   3.629   7.439  0.7252  0.7034  0.7872
12528SOL    HW239453   3.665   3.608   7.588 -1.1122  2.2807  0.8793
12529SOL     OW39454   7.874   1.263   6.228 -0.3130  0.0639  0.3199
12529SOL    HW139455   7.882   1.173   6.259  0.2970  0.0775  0.2061
12529SOL    HW239456   7.813   1.258   6.155 -0.8105 -0.1518  0.7410
12530SOL     OW39457   8.640   6.793   2.474  0.0905  0.2216  0.1458
12530SOL    HW139458   8.641   6.848   2.396  0.5590  0.1734  0.1157
12530SOL    HW239459   8.645   6.855   2.547  0.2376  0.2341  0.1237
12531SOL     OW39460   2.467   0.556   1.005 -0.1531  0.0131  0.3717
12531SOL    HW139461   2.441   0.466   0.985  0.5809 -0.4348  1.3588
12531SOL    HW239462   2.485   0.595   0.920 -0.3958 -0.7950 -0.0623
12532SOL     OW39463   5.686   7.096   4.739  0.2513 -0.5825 -0.0512
12532SOL    HW139464   5.728   7.031   4.682  0.2172 -1.4241  0.8621
12532SOL    HW239465   5.619   7.047   4.787  0.0566  0.1811  0.4772
12533SOL     OW39466   0.680   3.175   1.054 -0.2542  0.1652  0.2427
12533SOL    HW139467   0.626   3.097   1.069 -0.1370 -0.2117 -1.1565
12533SOL    HW239468   0.635   3.245   1.101 -0.4279 -0.7062  1.4389
12534SOL     OW39469   5.735   8.994   3.629  0.3156 -0.6561 -0.0915
12534SOL    HW139470   5.735   9.022   3.538 -0.2132  0.8658  0.3487
12534SOL    HW239471   5.673   9.053   3.673 -0.2852 -2.0789  1.0443
12535SOL     OW39472   8.870   5.067   3.056 -0.0054 -0.2155  0.2689
12535SOL    HW139473   8.794   5.109   3.095  0.5275  0.8036  0.2229
12535SOL    HW239474   8.837   5.033   2.972 -0.5187 -0.1950  0.4545
12536SOL     OW39475   7.561   0.221   7.168  0.4810 -0.2366  0.0371
12536SOL    HW139476   7.594   0.293   7.115  0.4731  0.0895  0.4754
12536SOL    HW239477   7.474   0.250   7.196  1.5002  0.7630  2.4379
12537SOL     OW39478   0.212   4.675   8.745  0.7809 -0.3148  0.5728
12537SOL    HW139479   0.162   4.715   8.674  1.5034  0.0817  0.2785
12537SOL    HW239480   0.166   4.701   8.824  1.2192  1.0978  0.3874
12538SOL     OW39481   7.271   0.101   2.235  0.1846 -0.2430 -0.1054
12538SOL    HW139482   7.189   0.072   2.276  0.3850 -0.7569 -0.0544
12538SOL    HW239483   7.255   0.192   2.210 -0.8105 -0.6770 -1.1316
12539SOL     OW39484   2.347   7.414   6.394  0.5977  0.7586 -0.3067
12539SOL    HW139485   2.352   7.368   6.310 -2.1307 -1.1846  0.4704
12539SOL    HW239486   2.410   7.369   6.450 -0.5316 -0.6931 -0.1676
12540SOL     OW39487   3.408   1.935   1.256  0.3060 -0.4522 -0.7868
12540SOL    HW139488   3.326   1.930   1.207 -1.0191  1.2449  1.1169
12540SOL    HW239489   3.448   2.017   1.229 -1.4269  1.5501  2.2255
12541SOL     OW39490   6.686   5.778   8.505 -0.4786  0.1284 -0.7242
12541SOL    HW139491   6.667   5.762   8.598 -0.5502 -1.2039 -0.9480
12541SOL    HW239492   6.780   5.795   8.503 -0.7115  1.5942 -0.2466
12542SOL     OW39493   6.110   1.643   5.787  0.1940  0.0489 -0.1071
12542SOL    HW139494   6.097   1.696   5.865  3.3801 -0.3291  0.8062
12542SOL    HW239495   6.195   1.671   5.753 -0.3592 -0.9465 -2.5471
12543SOL     OW39496   3.796   5.320   4.870 -0.9503  0.3188  0.5823
12543SOL    HW139497   3.726   5.263   4.902 -0.0165 -1.1665  0.0521
12543SOL    HW239498   3.770   5.342   4.781 -2.1739  2.2096  1.3388
12544SOL     OW39499   8.285   7.936   7.406  1.1214  0.5106  0.2273
12544SOL    HW139500   8.307   7.867   7.343  1.3262  0.6508  0.1419
12544SOL    HW239501   8.367   7.950   7.454  0.6108 -0.5402  1.4480
12545SOL     OW39502   7.497   3.689   1.257  0.0668 -0.0423  0.8663
12545SOL    HW139503   7.536   3.777   1.251  1.6560 -0.7895 -0.6687
12545SOL    HW239504   7.477   3.678   1.350 -0.3544  2.0033  1.0749
12546SOL     OW39505   0.219   7.060   1.532  0.2170  0.1714 -0.4238
12546SOL    HW139506   0.183   7.052   1.621 -0.0554 -1.3839 -0.6376
12546SOL    HW239507   0.143   7.050   1.475  0.3918  1.1805 -0.8495
12547SOL     OW39508   6.038   1.914   3.711  0.1781  0.1751  0.0826
12547SOL    HW139509   6.013   1.832   3.667  0.0291  0.6464 -0.7264
12547SOL    HW239510   5.994   1.910   3.796  1.3175 -1.2365  0.6544
12548SOL     OW39511   6.479   8.329   1.934 -0.1086 -0.7619  0.1269
12548SOL    HW139512   6.513   8.414   1.961  2.2070 -2.0879  1.7297
12548SOL    HW239513   6.435   8.346   1.851 -1.0314  2.2271  1.1071
12549SOL     OW39514   8.888   3.213   6.501 -0.0827 -0.2048  0.5366
12549SOL    HW139515   8.873   3.119   6.503 -1.0043 -0.0675  0.4544
12549SOL    HW239516   8.976   3.224   6.537 -0.4651 -1.0088  1.8086
12550SOL     OW39517   4.345   3.045   2.868  0.2080 -0.2830  0.0762
12550SOL    HW139518   4.425   3.039   2.815  1.4597  1.0460  1.6816
12550SOL    HW239519   4.377   3.063   2.956 -1.8451 -1.3594  1.0963
12551SOL     OW39520   2.225   1.149   5.761 -0.3813 -0.5960  0.7525
12551SOL    HW139521   2.163   1.216   5.732 -0.0703 -0.0894  1.2316
12551SOL    HW239522   2.309   1.195   5.767 -0.2852 -0.8778  1.6803
12552SOL     OW39523   2.610   2.680   5.844  0.7796  0.3223  0.4229
12552SOL    HW139524   2.681   2.720   5.893  0.5074  0.5576  0.6328
12552SOL    HW239525   2.544   2.749   5.838  0.2056 -0.1601  0.9895
12553SOL     OW39526   8.942   8.814   5.439 -0.0552 -0.1750  0.6936
12553SOL    HW139527   9.004   8.744   5.421 -1.6766 -1.1736 -1.4189
12553SOL    HW239528   8.944   8.869   5.361 -1.0250  0.3727  1.0404
12554SOL     OW39529   3.727   7.001   8.424 -0.1023 -0.2499 -0.7005
12554SOL    HW139530   3.781   7.073   8.390  0.4037  0.2074  0.9683
12554SOL    HW239531   3.683   6.965   8.347  0.7361  0.9308 -1.7665
12555SOL     OW39532   4.398   3.696   3.621 -0.1352 -0.3398 -0.0977
12555SOL    HW139533   4.490   3.718   3.633 -0.2306 -0.1698  0.3369
12555SOL    HW239534   4.352   3.779   3.630 -0.3288 -0.4215 -0.3338
12556SOL     OW39535   1.592   1.450   1.316  0.3556 -0.2759  0.4162
12556SOL    HW139536   1.609   1.374   1.260 -0.6592  0.2205 -0.6000
12556SOL    HW239537   1.679   1.489   1.331  0.6152 -0.2786 -1.0084
12557SOL     OW39538   4.683   1.086   6.735 -0.4680  0.0115  0.0908
12557SOL    HW139539   4.694   1.029   6.659  0.4310 -0.4628  0.5576
12557SOL    HW239540   4.597   1.064   6.770 -0.9859  0.3950 -0.9146
12558SOL     OW39541   5.019   2.632   8.733 -0.0815  0.1105 -0.0689
12558SOL    HW139542   5.088   2.591   8.784  0.1092  1.5542  0.8928
12558SOL    HW239543   4.945   2.637   8.794 -0.5625 -0.0841 -0.6278
12559SOL     OW39544   6.070   0.744   2.030 -0.2977 -0.3665 -0.1767
12559SOL    HW139545   6.162   0.753   2.055  0.1303 -0.8697 -1.4962
12559SOL    HW239546   6.043   0.833   2.007 -0.5648  0.0247  1.5025
12560SOL     OW39547   8.908   4.409   8.859  0.3354 -0.6328  0.4628
12560SOL    HW139548   8.866   4.346   8.918  0.2250  0.2656  1.3769
12560SOL    HW239549   8.989   4.434   8.904  0.5155 -0.3284 -0.0197
12561SOL     OW39550   1.529   0.307   4.273 -0.3534  0.0395 -0.3178
12561SOL    HW139551   1.449   0.356   4.255 -1.0133  0.0777  2.3437
12561SOL    HW239552   1.506   0.216   4.254 -0.6986  0.1788 -0.5604
12562SOL     OW39553   1.529   4.612   5.714 -0.0967 -0.5360  0.4667
12562SOL    HW139554   1.455   4.597   5.773 -0.5023 -0.8849 -0.1225
12562SOL    HW239555   1.501   4.684   5.658  0.2930 -0.1976  0.7012
12563SOL     OW39556   2.250   7.274   7.884 -0.4239  0.1141 -0.2581
12563SOL    HW139557   2.294   7.329   7.819  0.4700 -0.0820  0.1549
12563SOL    HW239558   2.167   7.318   7.902 -0.9464 -0.1169 -1.9272
12564SOL     OW39559   4.708   3.946   5.784  0.5353 -0.3320  0.8142
12564SOL    HW139560   4.770   3.927   5.714  0.4218 -1.7439  1.0789
12564SOL    HW239561   4.628   3.901   5.759  0.1606  0.0330  1.3289
12565SOL     OW39562   4.697   4.881   1.163  0.5252  0.1266  0.3691
12565SOL    HW139563   4.729   4.882   1.253  2.7823 -0.0492 -0.3620
12565SOL    HW239564   4.677   4.789   1.145 -2.0304  0.4226  1.3018
12566SOL     OW39565   7.240   0.295   4.367  0.1029 -0.0363  0.2890
12566SOL    HW139566   7.279   0.242   4.297  0.4411  0.8907 -0.2335
12566SOL    HW239567   7.156   0.324   4.331  1.0882  1.9971 -0.5052
12567SOL     OW39568   1.647   8.652   8.591 -0.0616  0.1280 -0.1103
12567SOL    HW139569   1.573   8.606   8.630 -0.5785  1.9716  1.1828
12567SOL    HW239570   1.715   8.652   8.659  0.3437  0.2959 -0.5061
12568SOL     OW39571   2.648   3.190   3.878 -0.1182  0.4583 -0.1387
12568SOL    HW139572   2.697   3.145   3.947 -1.8330 -2.3746 -0.6084
12568SOL    HW239573   2.713   3.209   3.810  0.9322 -0.1119  0.6887
12569SOL     OW39574   2.779   6.228   3.531 -0.0901  0.1355 -0.4095
12569SOL    HW139575   2.777   6.196   3.621 -3.0908  0.7231 -0.1753
12569SOL    HW239576   2.786   6.323   3.539  0.7226  0.1183 -0.8452
12570SOL     OW39577   7.387   3.494   4.061  0.3443 -0.2075 -0.3792
12570SOL    HW139578   7.398   3.468   3.969  2.1519 -2.8788  0.4600
12570SOL    HW239579   7.307   3.448   4.089 -0.5308  1.0651 -0.7114
12571SOL     OW39580   4.963   8.997   7.393  0.0972  0.0157 -0.2464
12571SOL    HW139581   4.931   8.972   7.306  0.0176 -0.7074 -0.0137
12571SOL    HW239582   4.972   8.915   7.440  3.4640 -0.0023 -0.6588
12572SOL     OW39583   7.334   4.252   4.471  0.2576 -0.0150 -0.1231
12572SOL    HW139584   7.337   4.161   4.440 -0.7282 -0.4895  1.0803
12572SOL    HW239585   7.367   4.303   4.397  1.6742 -1.4086 -0.5158
12573SOL     OW39586   8.283   7.560   1.208  0.3487  0.6284 -0.2376
12573SOL    HW139587   8.365   7.608   1.197 -0.0861  1.1919 -1.1161
12573SOL    HW239588   8.269   7.517   1.124 -0.8454  1.4791 -0.4987
12574SOL     OW39589   4.968   0.292   2.441  0.0212  0.0871 -0.1630
12574SOL    HW139590   4.952   0.198   2.431  0.0462  0.0767 -0.1039
12574SOL    HW239591   4.979   0.324   2.352  1.0319 -0.1404 -0.1257
12575SOL     OW39592   0.751   7.838   4.459  0.7813  0.1195 -0.2911
12575SOL    HW139593   0.808   7.820   4.384  1.0598 -0.0539 -0.0413
12575SOL    HW239594   0.812   7.855   4.531  0.5366 -1.5248  0.3449
12576SOL     OW39595   0.490   0.016   1.378 -0.6276  0.2021 -0.3522
12576SOL    HW139596   0.499  -0.039   1.300  0.0657 -0.0383 -0.1168
12576SOL    HW239597   0.397   0.038   1.382 -0.5462  0.8710 -1.6872
12577SOL     OW39598   2.039   6.904   3.634 -0.0990 -0.6033  0.7866
12577SOL    HW139599   2.125   6.863   3.630 -1.3341 -3.3512 -0.9870
12577SOL    HW239600   1.987   6.856   3.570 -2.4015  2.3775  0.1879
12578SOL     OW39601   1.132   5.040   0.440 -0.5252  0.5360  0.6170
12578SOL    HW139602   1.159   5.124   0.402  1.7156 -0.3761 -0.0017
12578SOL    HW239603   1.064   5.008   0.380 -0.4828  1.3187  0.1302
12579SOL     OW39604   3.011   0.656   8.373  0.2023  0.2089 -0.4504
12579SOL    HW139605   3.016   0.736   8.426 -1.8242 -0.6446  1.1874
12579SOL    HW239606   3.061   0.591   8.424  0.5767  0.0418 -1.0180
12580SOL     OW39607   5.096   4.562   2.256 -0.2831  0.3182  0.1430
12580SOL    HW139608   5.166   4.583   2.319  0.8777 -1.6560 -0.3867
12580SOL    HW239609   5.106   4.627   2.187  0.9851  0.1689  0.1527
12581SOL     OW39610   5.970   0.411   3.321 -0.4859  0.0267  0.0869
12581SOL    HW139611   5.924   0.467   3.258 -1.5789  0.0780  0.8820
12581SOL    HW239612   6.046   0.378   3.274 -1.4840 -0.2630 -1.3861
12582SOL     OW39613   0.560   6.570   8.612  0.2846  0.0307  0.4332
12582SOL    HW139614   0.590   6.577   8.702 -0.9933  1.9034  0.7845
12582SOL    HW239615   0.597   6.647   8.568  1.3287 -1.1394 -0.8085
12583SOL     OW39616   2.654   4.581   8.303  0.1424 -0.7617 -0.2364
12583SOL    HW139617   2.597   4.575   8.380  1.3461 -1.3573  0.6551
12583SOL    HW239618   2.685   4.491   8.290  1.1993 -0.3821 -0.4247
12584SOL     OW39619   2.118   1.783   2.842 -0.3026 -0.6480  0.0937
12584SOL    HW139620   2.107   1.877   2.859 -3.1525 -0.3349 -2.5751
12584SOL    HW239621   2.161   1.779   2.757 -0.9492 -1.7495 -0.1928
12585SOL     OW39622   2.299   4.159   5.060  0.0287  0.0428  0.2870
12585SOL    HW139623   2.332   4.233   5.110 -1.0129  0.3356  0.5764
12585SOL    HW239624   2.282   4.091   5.125  1.8532 -0.8181 -0.0759
12586SOL     OW39625   1.918   0.571   5.335  0.2868  0.4888 -0.3061
12586SOL    HW139626   1.838   0.521   5.346 -0.2578  1.1600 -1.0839
12586SOL    HW239627   1.892   0.662   5.349  1.0627  0.6576  0.1276
12587SOL     OW39628   6.584   1.314   5.873 -0.0511 -0.0778 -0.1786
12587SOL    HW139629   6.597   1.279   5.961  0.1265 -1.5945 -0.7820
12587SOL    HW239630   6.539   1.244   5.825 -1.2059  1.1624 -0.9921
12588SOL     OW39631   4.008   2.188   3.435  0.2934 -0.5522  0.6866
12588SOL    HW139632   3.980   2.152   3.519 -0.7569 -0.1271  0.5357
12588SOL    HW239633   4.019   2.282   3.452 -2.9915  0.1420 -0.3283
12589SOL     OW39634   3.805   8.114   3.994  0.4784 -0.2952  0.5410
12589SOL    HW139635   3.781   8.091   3.904  2.6868 -0.6354 -0.0036
12589SOL    HW239636   3.794   8.209   3.998 -0.5832 -0.3893  0.2460
12590SOL     OW39637   7.800   2.470   7.268 -0.1722  0.0762 -0.5412
12590SOL    HW139638   7.840   2.433   7.189 -0.6760 -0.1976 -0.6720
12590SOL    HW239639   7.719   2.512   7.237 -0.2248  0.2203 -0.2143
12591SOL     OW39640   6.650   7.819   8.477  0.2641 -0.2055 -0.2268
12591SOL    HW139641   6.562   7.809   8.441 -0.2902  2.6501  0.1197
12591SOL    HW239642   6.637   7.853   8.565  1.7320 -1.9265  0.7214
12592SOL     OW39643   4.967   5.162   0.662 -0.2897  0.4542  0.4068
12592SOL    HW139644   4.988   5.108   0.738  3.3118 -1.1509 -1.4738
12592SOL    HW239645   5.011   5.245   0.679 -0.3503  0.4627  0.5219
12593SOL     OW39646   0.852   3.942   8.319  0.4161  0.6475  0.2313
12593SOL    HW139647   0.798   4.021   8.310  0.3786  0.6804  0.6904
12593SOL    HW239648   0.800   3.885   8.375  0.0667 -0.0571 -0.7881
12594SOL     OW39649   0.859   6.725   8.345  0.1800  0.4873  0.1326
12594SOL    HW139650   0.781   6.675   8.370  0.3111  0.8589  1.3372
12594SOL    HW239651   0.894   6.759   8.427  1.2396  0.8909 -0.4578
12595SOL     OW39652   6.154   8.505   2.488  0.0242  0.6047  0.2356
12595SOL    HW139653   6.137   8.431   2.547  0.9429  0.0528 -0.1621
12595SOL    HW239654   6.230   8.477   2.437 -1.0210  0.8708 -1.5634
12596SOL     OW39655   8.430   3.122   0.113 -0.0861  0.3451  0.3915
12596SOL    HW139656   8.493   3.107   0.043 -0.2724 -0.7916  0.4547
12596SOL    HW239657   8.365   3.053   0.102 -1.9733  2.1215 -0.3687
12597SOL     OW39658   1.770   1.528   1.800  0.2906  0.2031  0.2759
12597SOL    HW139659   1.742   1.468   1.731  2.1608  0.0734 -0.4350
12597SOL    HW239660   1.705   1.517   1.869 -0.6641 -0.9621 -0.7529
12598SOL     OW39661   2.709   0.180   5.133  0.4346  0.0436 -0.2483
12598SOL    HW139662   2.790   0.205   5.177 -0.4622  0.5111  1.2324
12598SOL    HW239663   2.680   0.259   5.088  0.3159  0.1658  0.0369
12599SOL     OW39664   3.380   4.028   5.957  0.5204  0.0232  0.1958
12599SOL    HW139665   3.354   4.105   5.905  0.6131  1.4936  2.1958
12599SOL    HW239666   3.441   4.063   6.022  1.5299 -2.0024  0.4201
12600SOL     OW39667   4.527   0.019   7.088  0.1450  0.1909  0.1727
12600SOL    HW139668   4.523  -0.033   7.169 -0.2625  0.9175  0.6269
12600SOL    HW239669   4.591  -0.027   7.034 -0.5834 -1.1079  0.3431
12601SOL     OW39670   0.481   2.964   1.105 -0.3306 -0.6367 -0.4614
12601SOL    HW139671   0.500   2.899   1.172 -2.5341  0.4686  1.3652
12601SOL    HW239672   0.425   2.918   1.042 -0.9443 -0.8340  0.2209
12602SOL     OW39673   8.089   1.413   7.904 -0.1257  0.9642 -0.1155
12602SOL    HW139674   8.051   1.467   7.835 -0.8568  0.3809 -0.1725
12602SOL    HW239675   8.159   1.364   7.860 -0.5766  0.6074 -0.4450
12603SOL     OW39676   2.307   0.325   1.689 -0.6108  0.0708  0.1904
12603SOL    HW139677   2.312   0.417   1.713  1.6464  0.3223 -0.9962
12603SOL    HW239678   2.244   0.322   1.617 -0.4618  0.7517  0.0274
12604SOL     OW39679   2.529   3.166   0.372  0.0039  0.2882  0.0890
12604SOL    HW139680   2.609   3.171   0.320  1.1802 -0.0559  1.8017
12604SOL    HW239681   2.492   3.081   0.351  0.8718 -0.1699  0.3858
12605SOL     OW39682   4.190   7.610   0.597  0.4331  0.2195 -0.0838
12605SOL    HW139683   4.130   7.547   0.636  0.4580  0.2311 -0.0269
12605SOL    HW239684   4.205   7.675   0.666 -0.7654  1.1101 -0.6264
12606SOL     OW39685   8.947   5.567   0.825 -0.3724  0.2984  0.3727
12606SOL    HW139686   8.931   5.599   0.914 -0.8427  0.6219  0.1771
12606SOL    HW239687   8.916   5.638   0.768 -1.2300 -0.4087 -0.0711
12607SOL     OW39688   3.633   6.844   7.837 -0.4601  0.1436  0.8502
12607SOL    HW139689   3.547   6.810   7.813 -0.2089 -0.7167  1.1332
12607SOL    HW239690   3.635   6.933   7.801 -1.6663  0.3631  1.2889
12608SOL     OW39691   7.594   1.447   7.897  0.2150 -0.2501 -0.2997
12608SOL    HW139692   7.605   1.510   7.825 -2.3083 -0.4460 -0.9363
12608SOL    HW239693   7.640   1.368   7.866 -0.1002 -0.0465 -1.3433
12609SOL     OW39694   5.460   1.689   4.147  0.0579 -0.3050  0.5307
12609SOL    HW139695   5.481   1.620   4.085 -0.4214  0.3111 -0.3393
12609SOL    HW239696   5.545   1.724   4.174  0.3015  1.6874 -2.3924
12610SOL     OW39697   1.393   1.447   7.054 -0.4720 -0.7275  0.3899
12610SOL    HW139698   1.336   1.519   7.025 -2.7006 -1.7725  1.8666
12610SOL    HW239699   1.398   1.389   6.978  0.2277  0.2681 -0.3637
12611SOL     OW39700   0.054   4.802   1.139 -0.5354 -0.3897 -0.1711
12611SOL    HW139701   0.104   4.803   1.220  1.9201  0.3576 -1.5948
12611SOL    HW239702   0.040   4.894   1.118 -1.2170 -0.5777 -0.5818
12612SOL     OW39703   1.429   3.206   5.252  0.3055 -0.2658 -0.6321
12612SOL    HW139704   1.369   3.216   5.178  1.1664  1.6545 -1.1233
12612SOL    HW239705   1.514   3.190   5.211  0.7756  0.7396 -0.0653
12613SOL     OW39706   4.216   5.309   1.364  0.0147 -0.0952 -0.1687
12613SOL    HW139707   4.205   5.361   1.285  2.9546  3.0499  1.2126
12613SOL    HW239708   4.281   5.243   1.340 -1.9981 -1.7715 -1.3056
12614SOL     OW39709   0.568   7.198   6.038  0.2366  0.1191  0.0311
12614SOL    HW139710   0.578   7.130   5.971 -1.3203  0.1942 -0.3018
12614SOL    HW239711   0.635   7.262   6.016  1.5464 -1.1402  0.1774
12615SOL     OW39712   2.594   3.461   6.094 -0.6335 -0.2021  0.5856
12615SOL    HW139713   2.529   3.402   6.133 -0.2929 -1.0521 -0.0918
12615SOL    HW239714   2.663   3.402   6.061  0.3615  0.6600  1.0693
12616SOL     OW39715   5.715   4.243   4.393 -0.2990  0.3792 -0.0578
12616SOL    HW139716   5.624   4.216   4.378 -0.7360  1.2395  0.9675
12616SOL    HW239717   5.760   4.161   4.412 -0.4007 -0.3396 -2.5258
12617SOL     OW39718   1.685   3.604   6.784  0.0035 -0.6330  0.5832
12617SOL    HW139719   1.733   3.567   6.857 -0.9784  0.2863  1.7540
12617SOL    HW239720   1.603   3.554   6.780 -0.2683 -0.2032  0.6032
12618SOL     OW39721   4.763   7.041   6.588 -0.0054 -0.2855 -0.2599
12618SOL    HW139722   4.734   7.131   6.603 -1.5830 -0.7239 -0.4171
12618SOL    HW239723   4.682   6.989   6.593  0.5283 -1.4237 -2.2481
12619SOL     OW39724   3.383   0.474   7.548  0.3336 -0.6800  0.0828
12619SOL    HW139725   3.336   0.466   7.631 -2.2507 -0.8482 -1.2909
12619SOL    HW239726   3.389   0.384   7.516 -1.0632 -0.3974 -1.0745
12620SOL     OW39727   4.939   0.860   8.797 -0.5085 -0.1453 -0.5707
12620SOL    HW139728   5.023   0.899   8.772 -0.4588 -0.4920 -0.9602
12620SOL    HW239729   4.952   0.766   8.786 -0.3532 -0.3536  1.1753
12621SOL     OW39730   3.942   2.812   4.311  0.1739 -0.1928 -0.3901
12621SOL    HW139731   4.012   2.878   4.310 -1.6596  1.8810 -0.3943
12621SOL    HW239732   3.941   2.776   4.223  2.0254 -1.2203 -0.0451
12622SOL     OW39733   3.665   8.466   6.814  0.0194  0.3185 -0.1656
12622SOL    HW139734   3.721   8.516   6.755 -1.2409 -0.3037 -1.9815
12622SOL    HW239735   3.576   8.497   6.795 -0.4466 -0.0073  1.3363
12623SOL     OW39736   3.023   2.328   3.851 -0.0932 -1.1164  0.4148
12623SOL    HW139737   3.064   2.242   3.845  0.8120 -0.6235 -0.8990
12623SOL    HW239738   3.010   2.355   3.760  4.2035  2.2194  0.4459
12624SOL     OW39739   6.516   6.790   5.971  0.0467  0.8766  0.0783
12624SOL    HW139740   6.509   6.875   6.014  0.7771  1.1308 -0.2971
12624SOL    HW239741   6.566   6.736   6.031  0.4086  1.0036 -0.1047
12625SOL     OW39742   3.153   3.553   0.973  1.0714  0.3282  0.2268
12625SOL    HW139743   3.176   3.645   0.966 -0.0953  0.6477  0.3470
12625SOL    HW239744   3.213   3.517   1.038  1.7828  0.9121 -0.1063
12626SOL     OW39745   8.886   5.364   8.059  0.3645 -0.0353  0.5150
12626SOL    HW139746   8.814   5.427   8.065  1.1437  0.8577  1.0039
12626SOL    HW239747   8.892   5.326   8.146 -0.5813 -1.3608  0.0145
12627SOL     OW39748   4.371   6.657   3.687 -0.6103  0.0946 -0.3853
12627SOL    HW139749   4.403   6.720   3.752 -1.2641 -1.4603  1.5569
12627SOL    HW239750   4.279   6.681   3.672 -0.0334  1.4493 -2.0661
12628SOL     OW39751   3.630   4.281   8.535 -0.3380 -0.2157 -0.6521
12628SOL    HW139752   3.721   4.271   8.507  0.5500  3.6667  0.3200
12628SOL    HW239753   3.580   4.283   8.453  0.8707  0.6176 -1.3969
12629SOL     OW39754   2.136   6.512   2.370 -0.5292  0.0113  0.3498
12629SOL    HW139755   2.190   6.525   2.447  0.3201 -1.1563 -0.0247
12629SOL    HW239756   2.092   6.429   2.384  0.2830 -0.6439 -0.7602
12630SOL     OW39757   1.268   0.833   1.184  0.2434  0.0362 -0.5166
12630SOL    HW139758   1.222   0.773   1.243  1.7078  1.0782  1.8381
12630SOL    HW239759   1.219   0.828   1.102 -0.8126 -2.8941  0.1640
12631SOL     OW39760   6.692   0.202   4.458 -0.3780  0.3796 -0.0788
12631SOL    HW139761   6.737   0.168   4.536 -0.4458  1.0803  0.2782
12631SOL    HW239762   6.705   0.135   4.392  0.3499  0.1194  0.3105
12632SOL     OW39763   1.658   0.878   7.856  0.2809  0.2500 -0.2179
12632SOL    HW139764   1.751   0.859   7.867  0.5408  0.8803 -1.2322
12632SOL    HW239765   1.649   0.903   7.764 -1.1601 -1.3254 -0.5585
12633SOL     OW39766   8.543   1.750   5.346 -0.7348  0.2431  0.0016
12633SOL    HW139767   8.515   1.746   5.254  0.8627 -0.5133 -0.4966
12633SOL    HW239768   8.577   1.838   5.356  1.2744 -0.3803 -0.8676
12634SOL     OW39769   2.498   1.221   3.522 -0.3605  0.1986 -0.2755
12634SOL    HW139770   2.561   1.289   3.500  0.8353 -0.5382  0.7322
12634SOL    HW239771   2.547   1.139   3.514 -1.9443 -0.6637 -2.1700
12635SOL     OW39772   3.675   3.710   8.055  0.0079 -0.7524 -0.5943
12635SOL    HW139773   3.612   3.646   8.089 -0.0283  0.1215  1.1229
12635SOL    HW239774   3.756   3.690   8.102 -0.0099  0.4541 -0.0157
12636SOL     OW39775   0.003   8.131   4.304  0.5695  0.4194 -0.1824
12636SOL    HW139776   0.075   8.101   4.249  0.2490  0.2763 -0.5270
12636SOL    HW239777  -0.069   8.072   4.283  0.1940  0.8931 -0.2304
12637SOL     OW39778   6.983   8.468   7.723 -0.3239 -0.0497  0.3885
12637SOL    HW139779   6.963   8.540   7.782  0.6000 -0.5711  1.3621
12637SOL    HW239780   7.018   8.399   7.780 -0.7503 -1.0932 -0.5779
12638SOL     OW39781   8.136   3.699   3.570  0.6491 -0.1071  0.0488
12638SOL    HW139782   8.164   3.715   3.660 -0.3800 -1.5988  0.6774
12638SOL    HW239783   8.204   3.739   3.517  1.3970  0.6250  1.4874
12639SOL     OW39784   1.991   5.632   4.765 -0.1010  0.8244 -0.0478
12639SOL    HW139785   1.925   5.582   4.718  0.9678  0.0163 -0.7380
12639SOL    HW239786   1.981   5.605   4.856  0.2634 -0.4586 -0.3701
12640SOL     OW39787   4.217   2.777   3.285 -0.0118  0.2083 -0.1993
12640SOL    HW139788   4.256   2.690   3.286 -0.3778  0.0379  0.8410
12640SOL    HW239789   4.287   2.836   3.313  0.4376  0.3645 -1.5656
12641SOL     OW39790   8.535   3.748   1.512 -0.7961  0.2170 -0.0380
12641SOL    HW139791   8.553   3.770   1.603  0.0780 -0.5934  0.0023
12641SOL    HW239792   8.589   3.808   1.461  0.9259 -1.1520  0.0572
12642SOL     OW39793   6.212   1.917   4.800  0.1226  0.4554  0.5335
12642SOL    HW139794   6.265   1.843   4.829 -3.3486 -2.2276  0.7929
12642SOL    HW239795   6.152   1.934   4.873 -1.9615  0.5313 -1.0808
12643SOL     OW39796   6.803   0.664   6.656 -0.6600  0.4149 -0.7138
12643SOL    HW139797   6.741   0.736   6.671 -0.6113  0.1036  1.2727
12643SOL    HW239798   6.767   0.590   6.704  0.8489  0.0071 -0.1264
12644SOL     OW39799   7.997   4.149   0.508 -0.1854  0.3292  0.5150
12644SOL    HW139800   7.944   4.077   0.541  0.6710 -0.6065 -0.1010
12644SOL    HW239801   7.988   4.143   0.412  0.0441  0.9196  0.4521
12645SOL     OW39802   4.606   6.911   8.199  0.4733  0.2294 -0.2746
12645SOL    HW139803   4.533   6.898   8.259 -0.1912 -0.3057 -1.1716
12645SOL    HW239804   4.670   6.844   8.224 -0.4564 -1.0223 -1.1341
12646SOL     OW39805   2.847   6.620   5.059  0.8101 -0.0128  0.0194
12646SOL    HW139806   2.773   6.567   5.087  0.5704  1.8763  3.4457
12646SOL    HW239807   2.811   6.683   4.997  0.0205 -0.4623  0.0189
12647SOL     OW39808   8.198   5.127   5.709 -0.4664  0.2302 -0.8903
12647SOL    HW139809   8.229   5.122   5.800 -0.6700  0.2396 -0.8217
12647SOL    HW239810   8.272   5.094   5.658 -0.7242 -0.7777 -0.6442
12648SOL     OW39811   6.338   3.213   2.175 -0.0935 -0.1659 -0.2587
12648SOL    HW139812   6.321   3.122   2.200 -0.1890  0.0033  0.3054
12648SOL    HW239813   6.338   3.261   2.258  1.0124  0.1827 -0.4410
12649SOL     OW39814   2.696   2.423   2.290  0.3112  0.3548  0.1412
12649SOL    HW139815   2.715   2.331   2.270 -1.8297 -0.3567  0.9697
12649SOL    HW239816   2.760   2.447   2.357  0.8582 -0.5732 -0.0372
12650SOL     OW39817   0.536   1.218   6.917  0.4892 -0.4210  0.0533
12650SOL    HW139818   0.621   1.174   6.922  1.4380  1.4121  0.6575
12650SOL    HW239819   0.539   1.286   6.984 -1.2420  0.0562 -0.2990
12651SOL     OW39820   5.681   4.206   2.383 -0.0618  0.2800 -0.2995
12651SOL    HW139821   5.649   4.161   2.304  0.6203 -0.4300 -0.1875
12651SOL    HW239822   5.739   4.142   2.424  0.0727  0.8798  0.4534
12652SOL     OW39823   5.719   2.014   6.323 -0.0133  0.6864  0.0062
12652SOL    HW139824   5.801   2.005   6.274  2.1105  2.6186  2.7863
12652SOL    HW239825   5.694   1.925   6.346  0.3617 -0.0533 -2.2423
12653SOL     OW39826   7.107   0.780   5.066  0.7855 -0.8021  0.5683
12653SOL    HW139827   7.012   0.781   5.078  0.7464  1.0760  0.3320
12653SOL    HW239828   7.125   0.697   5.023 -0.6574 -1.5180  1.2804
12654SOL     OW39829   2.933   5.165   2.207 -0.2686 -0.2503  0.4244
12654SOL    HW139830   2.963   5.173   2.297  0.1621  0.2663  0.2403
12654SOL    HW239831   2.871   5.238   2.196  1.6542  1.3362 -0.4674
12655SOL     OW39832   0.885   2.956   6.256 -0.4941 -0.1593  0.3347
12655SOL    HW139833   0.939   2.980   6.181  0.7537 -1.5951  0.7156
12655SOL    HW239834   0.837   3.036   6.278  0.1059  0.6539 -1.1548
12656SOL     OW39835   6.379   5.438   6.538  0.3001 -0.4180  1.0023
12656SOL    HW139836   6.341   5.512   6.491 -0.8713 -1.3585  0.3954
12656SOL    HW239837   6.388   5.469   6.628  0.8587  0.8072  0.5500
12657SOL     OW39838   3.541   4.664   2.418 -0.3140 -0.0930  0.5706
12657SOL    HW139839   3.447   4.648   2.404 -0.6258  0.9814  1.2941
12657SOL    HW239840   3.584   4.586   2.383 -1.4356 -0.3415 -0.3320
12658SOL     OW39841   3.356   6.207   7.310 -0.2349 -0.3090  0.3569
12658SOL    HW139842   3.432   6.262   7.328 -0.3579 -0.4647  1.4769
12658SOL    HW239843   3.299   6.221   7.386 -1.2971 -0.2411 -0.4410
12659SOL     OW39844   6.490   2.730   3.271 -0.1911 -0.6153  0.1464
12659SOL    HW139845   6.414   2.735   3.329 -0.0825 -1.1784  0.3348
12659SOL    HW239846   6.557   2.782   3.316  0.2160 -1.8613  1.0244
12660SOL     OW39847   1.189   3.536   6.921 -0.0520  0.1501  0.1700
12660SOL    HW139848   1.154   3.464   6.869 -2.6328  0.2331  1.6341
12660SOL    HW239849   1.183   3.612   6.863 -1.1842 -0.0871 -0.0500
12661SOL     OW39850   5.618   5.281   1.987  0.0742  0.1510  0.7730
12661SOL    HW139851   5.685   5.348   1.982 -0.3517  0.5570  0.4532
12661SOL    HW239852   5.644   5.226   2.062  1.8081 -0.8519 -0.4880
12662SOL     OW39853   3.959   4.081   5.454  0.3642 -0.0808  0.4697
12662SOL    HW139854   4.020   4.155   5.453 -1.9927  2.0302  1.4461
12662SOL    HW239855   3.932   4.074   5.546 -0.8955 -0.9338  0.0552
12663SOL     OW39856   6.662   0.831   7.076  0.6975  0.2055  0.0883
12663SOL    HW139857   6.646   0.776   7.000 -0.4789 -1.3080  1.3549
12663SOL    HW239858   6.714   0.776   7.135  0.6762  0.9594  0.8357
12664SOL     OW39859   7.322   1.072   0.810 -0.5410 -0.0300 -0.0444
12664SOL    HW139860   7.269   1.046   0.886 -1.5002  1.0522 -0.3254
12664SOL    HW239861   7.306   1.003   0.746 -0.8772 -0.1885  0.2042
12665SOL     OW39862   3.053   1.479   2.300  0.6750 -0.3156 -0.1131
12665SOL    HW139863   2.992   1.430   2.356 -0.5254 -0.0990 -1.1579
12665SOL    HW239864   3.130   1.423   2.294  0.7534 -0.4387  1.5458
12666SOL     OW39865   6.865   5.131   6.064  0.1216  0.2682  0.1084
12666SOL    HW139866   6.852   5.037   6.075 -0.1620  0.1139 -1.4578
12666SOL    HW239867   6.796   5.171   6.116 -0.3579 -0.4004 -0.0070
12667SOL     OW39868   3.162   3.891   1.531  0.5074 -0.4042  0.0614
12667SOL    HW139869   3.091   3.852   1.480  1.3526 -1.9286  0.0071
12667SOL    HW239870   3.225   3.820   1.543  1.0112  0.3192  1.9852
12668SOL     OW39871   8.498   8.118   0.214  0.0844  0.0326 -0.4441
12668SOL    HW139872   8.554   8.173   0.160 -0.0380  0.5430 -0.0596
12668SOL    HW239873   8.559   8.064   0.264  0.3316  1.5279  0.9816
12669SOL     OW39874   2.233   7.241   3.967  0.0447  0.0624 -0.2438
12669SOL    HW139875   2.301   7.239   4.034  0.4164 -1.3964 -0.6210
12669SOL    HW239876   2.172   7.308   3.997  0.8509  0.3192  0.9015
12670SOL     OW39877   7.404   3.174   0.693  0.0556  0.2187  0.0457
12670SOL    HW139878   7.441   3.199   0.778 -0.6343  0.9610  0.1481
12670SOL    HW239879   7.342   3.245   0.673 -0.1363 -0.1928 -0.8523
12671SOL     OW39880   8.007   2.961   1.444  0.2599  0.3093 -0.1411
12671SOL    HW139881   7.939   2.934   1.505 -1.0762  1.0537 -1.2548
12671SOL    HW239882   8.019   2.885   1.386 -0.2154  0.4558 -0.4388
12672SOL     OW39883   7.508   4.046   1.833  0.5181  0.6399  0.0077
12672SOL    HW139884   7.495   4.118   1.771 -2.1648  0.3892  0.1433
12672SOL    HW239885   7.496   4.086   1.919  2.2017  0.5864  0.3064
12673SOL     OW39886   7.950   6.306   7.234 -0.0858 -0.1934 -0.1071
12673SOL    HW139887   7.869   6.261   7.207  0.0012 -0.0896 -0.5488
12673SOL    HW239888   7.935   6.330   7.326 -0.8549  0.4897 -0.4034
12674SOL     OW39889   3.438   6.635   4.854 -0.1627 -0.0060  0.2899
12674SOL    HW139890   3.444   6.720   4.896 -0.3057 -0.3447  1.0164
12674SOL    HW239891   3.525   6.597   4.864 -0.1957 -0.0837  0.2905
12675SOL     OW39892   2.296   7.259   2.179  0.1831 -0.2279  0.4850
12675SOL    HW139893   2.268   7.216   2.260  1.2108 -0.1922  0.8726
12675SOL    HW239894   2.244   7.339   2.175 -0.0664 -0.3637  0.9762
12676SOL     OW39895   2.556   4.229   1.181  0.2721 -0.5876  0.5749
12676SOL    HW139896   2.609   4.181   1.117 -1.1976 -0.8621 -0.4911
12676SOL    HW239897   2.469   4.191   1.173 -0.6392  1.3804  0.6424
12677SOL     OW39898   8.718   6.827   5.066 -0.3480 -0.0784  0.0484
12677SOL    HW139899   8.800   6.780   5.081 -0.2468  0.8322  3.1126
12677SOL    HW239900   8.686   6.795   4.981  0.9851 -3.6836  0.7430
12678SOL     OW39901   6.657   5.630   7.578 -0.0078  0.1066 -0.6371
12678SOL    HW139902   6.695   5.552   7.618  0.7386  1.4300  1.3796
12678SOL    HW239903   6.722   5.657   7.513  0.6302  0.1156 -0.0084
12679SOL     OW39904   7.419   5.228   1.769 -0.0118  0.2152  0.1261
12679SOL    HW139905   7.338   5.245   1.817  0.1940 -0.8036  0.8715
12679SOL    HW239906   7.428   5.133   1.769  1.4157  0.3179  0.4723
12680SOL     OW39907   6.113   3.310   8.942 -0.2039  0.2764 -0.0253
12680SOL    HW139908   6.118   3.331   9.035  1.7842  2.7592 -0.5993
12680SOL    HW239909   6.196   3.267   8.922 -0.2529  0.5314 -0.8171
12681SOL     OW39910   5.023   6.086   8.947 -0.1643  0.4501 -0.4853
12681SOL    HW139911   4.954   6.148   8.926 -1.4858 -1.3124 -1.6529
12681SOL    HW239912   5.011   6.014   8.885  1.8218 -0.5999  0.2413
12682SOL     OW39913   2.094   2.263   1.110  0.1133 -0.2505 -0.0668
12682SOL    HW139914   2.092   2.192   1.174 -0.8082  0.7329  1.0388
12682SOL    HW239915   2.090   2.218   1.025 -1.8321 -1.5099  0.6130
12683SOL     OW39916   4.556   0.628   3.055 -0.1458  0.2577 -0.1734
12683SOL    HW139917   4.567   0.587   2.969  0.3377  0.2950 -0.1298
12683SOL    HW239918   4.477   0.681   3.046  0.4194  0.9932 -0.8810
12684SOL     OW39919   8.517   0.805   2.459 -0.3066 -0.2146  0.2539
12684SOL    HW139920   8.459   0.788   2.385 -1.0402 -1.6361  1.1289
12684SOL    HW239921   8.460   0.835   2.529  0.4328  1.5223  0.1671
12685SOL     OW39922   4.180   1.877   7.774  0.1248  0.1385 -0.0854
12685SOL    HW139923   4.238   1.928   7.717  1.8779  0.1730  1.5921
12685SOL    HW239924   4.092   1.893   7.740  0.8947  1.8922 -1.4160
12686SOL     OW39925   7.235   8.924   1.296 -0.7593  0.1621  0.4778
12686SOL    HW139926   7.285   8.921   1.378 -0.5653  2.2076  0.4929
12686SOL    HW239927   7.289   8.878   1.232  1.4863  2.7128  0.3775
12687SOL     OW39928   4.245   8.145   6.776 -0.0200  0.0845 -0.5446
12687SOL    HW139929   4.258   8.175   6.686  0.7195 -1.4262 -0.9829
12687SOL    HW239930   4.201   8.060   6.767 -0.6923  0.2942  0.5643
12688SOL     OW39931   3.037   7.985   6.668  0.2064 -0.7324 -0.1232
12688SOL    HW139932   3.055   8.073   6.635 -0.8348 -0.4232  0.1112
12688SOL    HW239933   3.023   7.997   6.762 -2.5266 -0.7036 -0.4558
12689SOL     OW39934   0.362   2.254   0.346 -0.1118  0.6592  0.2223
12689SOL    HW139935   0.381   2.165   0.375  0.3178  0.8444  0.5213
12689SOL    HW239936   0.270   2.251   0.318 -0.5477  0.4651  1.5815
12690SOL     OW39937   8.067   4.066   6.546  0.3022 -0.5012  0.3371
12690SOL    HW139938   8.081   4.122   6.622  2.5247  0.0835 -0.4281
12690SOL    HW239939   8.068   4.126   6.471 -2.6763 -0.9563 -0.1775
12691SOL     OW39940   0.124   4.447   0.306  0.0383 -0.4662  0.1399
12691SOL    HW139941   0.159   4.525   0.350  2.2313 -0.4323 -1.4988
12691SOL    HW239942   0.034   4.441   0.337  0.4981  1.3607  2.1225
12692SOL     OW39943   8.195   2.624   3.250 -0.2927  0.2103  0.2137
12692SOL    HW139944   8.126   2.616   3.184 -0.7777  1.3074  0.5566
12692SOL    HW239945   8.273   2.590   3.207 -0.7388  0.3064 -0.7005
12693SOL     OW39946   6.818   4.278   6.226 -0.3188  0.4895 -0.7356
12693SOL    HW139947   6.879   4.285   6.152  0.5116  1.7157  0.0319
12693SOL    HW239948   6.778   4.364   6.232  0.4160  0.7495  0.8945
12694SOL     OW39949   7.206   1.154   5.717 -0.2568 -0.4813 -0.4798
12694SOL    HW139950   7.144   1.227   5.710  0.8585  0.5838  0.1887
12694SOL    HW239951   7.197   1.106   5.635 -1.2968  0.1760 -0.7710
12695SOL     OW39952   4.457   6.034   8.255  0.7761 -0.7054  0.1385
12695SOL    HW139953   4.372   6.074   8.274  1.2247 -0.4823  1.7828
12695SOL    HW239954   4.435   5.946   8.222 -0.1044 -0.3560 -0.2400
12696SOL     OW39955   8.795   1.949   0.011  0.5870 -0.3738  0.5709
12696SOL    HW139956   8.715   1.993  -0.019  0.6901  0.5649  1.6201
12696SOL    HW239957   8.807   1.878  -0.052 -0.3136  0.2945 -0.4106
12697SOL     OW39958   1.456   4.724   6.487  0.1193  0.3150  0.3106
12697SOL    HW139959   1.539   4.690   6.453 -0.9904 -2.3210 -0.0073
12697SOL    HW239960   1.429   4.788   6.421  1.6481  0.8893  0.1835
12698SOL     OW39961   2.405   1.850   5.001 -0.2122  0.3842  0.5552
12698SOL    HW139962   2.444   1.809   4.923  0.9444  0.1566  1.2361
12698SOL    HW239963   2.392   1.777   5.062 -2.9790  0.2199 -0.1127
12699SOL     OW39964   5.275   6.275   5.528 -0.5780 -0.1872  0.2801
12699SOL    HW139965   5.280   6.181   5.513 -0.4852 -0.2277  0.5527
12699SOL    HW239966   5.229   6.284   5.612  0.9183 -0.0667  1.1291
12700SOL     OW39967   7.276   7.749   1.313  0.3245  0.0866  0.6014
12700SOL    HW139968   7.237   7.716   1.394 -0.7215  0.7901  0.4028
12700SOL    HW239969   7.219   7.821   1.287  0.3769 -0.4325 -1.0292
12701SOL     OW39970   5.345   6.528   1.036 -0.3962 -0.3631  0.9122
12701SOL    HW139971   5.334   6.472   0.959  1.4962 -1.0722  1.1115
12701SOL    HW239972   5.368   6.468   1.107  1.7829  0.6123  1.1047
12702SOL     OW39973   8.171   4.562   4.939  0.7068 -0.2118  0.4542
12702SOL    HW139974   8.140   4.492   4.881  1.5507 -0.5155  0.3593
12702SOL    HW239975   8.210   4.516   5.013  1.5761  0.1561  0.2275
12703SOL     OW39976   6.335   1.402   8.506  0.3706 -0.0333  0.1483
12703SOL    HW139977   6.401   1.453   8.553  0.5267 -0.3988  0.3287
12703SOL    HW239978   6.258   1.458   8.504  0.4879  0.1407  0.4992
12704SOL     OW39979   1.253   5.983   1.552 -0.1473  0.5119 -0.5891
12704SOL    HW139980   1.232   6.076   1.555 -2.0724  0.1042  0.8476
12704SOL    HW239981   1.265   5.958   1.643  0.8489 -0.5741 -0.9851
12705SOL     OW39982   5.908   0.983   8.912  0.3879 -0.8428 -0.1081
12705SOL    HW139983   5.883   1.004   9.001 -1.6453 -0.1133 -0.8085
12705SOL    HW239984   5.989   0.932   8.921 -0.0625 -1.2391  2.1462
12706SOL     OW39985   6.248   8.779   0.241  0.3677 -0.6832 -0.0330
12706SOL    HW139986   6.205   8.774   0.327 -0.9310 -2.1976 -0.7180
12706SOL    HW239987   6.268   8.688   0.220  3.5815 -0.1115  0.0119
12707SOL     OW39988   6.116   3.777   4.552 -0.2711  0.3972 -0.0704
12707SOL    HW139989   6.152   3.763   4.465 -0.6968  0.4849 -0.2654
12707SOL    HW239990   6.189   3.808   4.605  0.2529 -0.7109 -0.1168
12708SOL     OW39991   4.604   3.120   2.403  1.0916 -0.5414 -0.2311
12708SOL    HW139992   4.601   3.159   2.316  0.5452 -0.3175 -0.1141
12708SOL    HW239993   4.685   3.068   2.403  0.0758 -2.2140 -1.5724
12709SOL     OW39994   7.525   4.440   2.025  0.3417  0.4023  0.0163
12709SOL    HW139995   7.617   4.448   2.051  0.1716 -0.2069  0.8439
12709SOL    HW239996   7.476   4.460   2.105 -0.2300  0.1859 -0.2784
12710SOL     OW39997   8.157   1.392   8.326 -0.8263  0.2175 -0.1978
12710SOL    HW139998   8.109   1.454   8.271 -0.5759 -1.2522 -2.2103
12710SOL    HW239999   8.092   1.325   8.349 -0.7801  0.5096  0.8238
12711SOL     OW40000   0.482   7.225   7.525 -0.3114  0.1673  0.0213
12711SOL    HW140001   0.519   7.301   7.570  0.5959 -0.0270 -0.3788
12711SOL    HW240002   0.535   7.216   7.446 -2.4114  1.0557 -1.6058
12712SOL     OW40003   7.700   5.595   5.508  0.5764 -0.0137 -0.3449
12712SOL    HW140004   7.704   5.554   5.422  1.6382  0.6562 -0.6315
12712SOL    HW240005   7.761   5.546   5.561 -1.2872 -1.5022  0.5476
12713SOL     OW40006   2.228   6.695   6.941 -0.3612  0.4739  0.8312
12713SOL    HW140007   2.190   6.775   6.977 -0.1963  1.0721 -0.2650
12713SOL    HW240008   2.154   6.634   6.935 -0.4130  0.3969  2.0243
12714SOL     OW40009   5.374   5.639   8.697  0.2324  0.2521  0.1303
12714SOL    HW140010   5.436   5.600   8.758  1.1912  1.0673 -0.2915
12714SOL    HW240011   5.375   5.581   8.621  0.5781  0.3225  0.0778
12715SOL     OW40012   5.652   0.685   1.843 -0.2424  0.2370  0.2818
12715SOL    HW140013   5.722   0.749   1.838  0.6551 -0.7824 -0.6664
12715SOL    HW240014   5.687   0.607   1.800 -1.6740 -0.5574  0.4802
12716SOL     OW40015   4.110   7.914   2.377  0.0472  0.1564 -0.0074
12716SOL    HW140016   4.025   7.904   2.335  0.9943 -2.8997 -1.4615
12716SOL    HW240017   4.107   7.853   2.451  0.7855  0.4256  0.2499
12717SOL     OW40018   3.086   7.743   6.872  0.1021  0.5598 -0.2570
12717SOL    HW140019   3.092   7.740   6.776  1.3692 -0.4252 -0.1771
12717SOL    HW240020   3.169   7.783   6.899 -0.5985  1.5988  0.4149
12718SOL     OW40021   1.860   7.799   8.589 -0.1150  0.0843 -0.6855
12718SOL    HW140022   1.794   7.802   8.520 -1.9350 -1.4531  0.8666
12718SOL    HW240023   1.828   7.860   8.655  1.5050  1.3938 -1.0541
12719SOL     OW40024   2.064   8.326   5.299 -0.2986 -0.2250 -0.1493
12719SOL    HW140025   2.115   8.406   5.291  1.2251 -1.2551 -1.3285
12719SOL    HW240026   2.077   8.281   5.215 -0.9263 -1.8251  0.5704
12720SOL     OW40027   5.158   6.252   3.435 -0.5542  0.4998  0.2541
12720SOL    HW140028   5.063   6.259   3.447 -0.5982  2.2716 -0.7096
12720SOL    HW240029   5.195   6.297   3.511 -0.5448  1.1138 -0.1042
12721SOL     OW40030   8.545   1.085   6.039 -0.0160  0.1604  0.2282
12721SOL    HW140031   8.592   1.002   6.048  0.6285  0.6483  1.7107
12721SOL    HW240032   8.516   1.106   6.127 -0.7403  1.2033 -0.2325
12722SOL     OW40033   8.866   2.897   0.170 -0.0695  0.4011  0.0295
12722SOL    HW140034   8.807   2.946   0.112 -0.5247 -0.1736 -0.0009
12722SOL    HW240035   8.904   2.829   0.114  0.6640  0.7960  0.0398
12723SOL     OW40036   3.256   0.472   6.760 -0.5780  0.3402 -0.1317
12723SOL    HW140037   3.200   0.442   6.832  0.4885  2.1512  1.5554
12723SOL    HW240038   3.341   0.433   6.779 -0.3239  0.7145 -0.5045
12724SOL     OW40039   7.848   5.728   3.587 -0.2827  0.2539  0.0119
12724SOL    HW140040   7.908   5.800   3.605  0.4821 -0.2660 -0.4072
12724SOL    HW240041   7.774   5.742   3.647  0.8743  0.1294  1.5199
12725SOL     OW40042   8.349   3.446   8.041 -0.0034  0.0960 -0.1658
12725SOL    HW140043   8.327   3.509   8.110 -0.3825 -0.1462 -0.0634
12725SOL    HW240044   8.443   3.459   8.026  0.1827 -0.1700  0.7225
12726SOL     OW40045   5.452   8.323   6.118 -0.0909 -0.0383 -0.2998
12726SOL    HW140046   5.400   8.317   6.038 -0.4202 -0.0538 -0.0858
12726SOL    HW240047   5.541   8.298   6.091  0.2477  1.9117 -1.0931
12727SOL     OW40048   8.814   5.089   1.148  0.5039 -0.1181  0.4786
12727SOL    HW140049   8.740   5.059   1.095 -1.4155  2.7525  1.3087
12727SOL    HW240050   8.854   5.159   1.095  1.0592  0.0413  1.0999
12728SOL     OW40051   3.854   4.343   2.081  0.2553  1.0294  0.0194
12728SOL    HW140052   3.895   4.429   2.070 -0.8195  1.5877  0.2719
12728SOL    HW240053   3.772   4.349   2.032 -0.8339  0.8662  1.7437
12729SOL     OW40054   2.920   5.218   0.903 -0.2457  0.4860 -0.1632
12729SOL    HW140055   2.892   5.262   0.823  2.2357  0.6922 -0.9742
12729SOL    HW240056   2.976   5.282   0.947 -1.2507  0.2318  1.5834
12730SOL     OW40057   8.806   4.415   8.589  0.3704  0.2856  0.7183
12730SOL    HW140058   8.765   4.329   8.595 -1.5006  1.0454 -0.3017
12730SOL    HW240059   8.858   4.422   8.669  0.5586 -1.7592  0.8385
12731SOL     OW40060   0.544   3.503   3.158  0.4220 -0.6871 -0.0851
12731SOL    HW140061   0.533   3.430   3.219  0.8774 -0.5974  0.1085
12731SOL    HW240062   0.467   3.498   3.101  1.6095 -2.8080 -1.6639
12732SOL     OW40063   8.822   3.006   4.527  0.2300  0.2095  0.7491
12732SOL    HW140064   8.780   2.964   4.602  1.6094 -0.2093  1.3252
12732SOL    HW240065   8.784   3.094   4.524 -2.0930 -0.7520  0.0379
12733SOL     OW40066   8.417   7.693   0.714  0.2962  0.5741 -0.2154
12733SOL    HW140067   8.465   7.627   0.665  0.5160  1.0440 -0.6366
12733SOL    HW240068   8.335   7.705   0.666  0.4258  0.8882 -0.3632
12734SOL     OW40069   1.703   5.628   5.868 -0.2035 -0.0754 -0.4369
12734SOL    HW140070   1.712   5.714   5.825 -0.1836 -0.0548 -0.3919
12734SOL    HW240071   1.775   5.626   5.931 -0.7161  0.2308  0.1686
12735SOL     OW40072   7.132   1.492   0.376 -0.8101  0.9894  0.4441
12735SOL    HW140073   7.039   1.509   0.361 -0.7486  1.8901  0.9740
12735SOL    HW240074   7.140   1.491   0.472 -0.4130  0.0452  0.4155
12736SOL     OW40075   8.327   3.796   4.733  0.7981 -0.3239  0.2317
12736SOL    HW140076   8.368   3.810   4.818  0.1029 -1.0518  0.7097
12736SOL    HW240077   8.389   3.742   4.684 -0.1668 -2.7600  1.5100
12737SOL     OW40078   4.196   8.324   8.604 -0.6455  0.2702 -0.2554
12737SOL    HW140079   4.123   8.386   8.602  1.2248  2.5990 -0.9657
12737SOL    HW240080   4.248   8.346   8.526  0.7864 -1.3352  0.2000
12738SOL     OW40081   2.189   3.019   5.815 -0.3846  0.5092 -0.2145
12738SOL    HW140082   2.149   2.981   5.736 -0.7166 -0.7783  0.5430
12738SOL    HW240083   2.115   3.059   5.862 -0.7073 -1.1566  0.7822
12739SOL     OW40084   2.337   8.115   1.923  0.1485  0.3175 -0.8785
12739SOL    HW140085   2.403   8.050   1.947 -0.2402  0.3493  0.3497
12739SOL    HW240086   2.342   8.181   1.993 -0.2004  1.0578 -1.5373
12740SOL     OW40087   5.976   7.875   8.177  0.0492 -0.0893  0.4921
12740SOL    HW140088   5.983   7.960   8.221  0.4594  0.2376 -0.1799
12740SOL    HW240089   5.913   7.889   8.107 -0.2105 -0.4613  0.6488
12741SOL     OW40090   2.119   3.596   8.006 -0.3039 -0.5057 -0.8375
12741SOL    HW140091   2.204   3.588   8.049 -1.1381 -0.0599  0.9699
12741SOL    HW240092   2.116   3.521   7.946  1.4084 -0.4428 -1.0642
12742SOL     OW40093   0.084   1.865   4.565 -0.3628  0.3556 -0.2752
12742SOL    HW140094   0.157   1.814   4.601 -1.0609  0.2598  1.0728
12742SOL    HW240095   0.006   1.820   4.597 -1.0534  0.1108 -2.1920
12743SOL     OW40096   3.344   2.777   5.984 -0.4568  0.5097  0.3109
12743SOL    HW140097   3.373   2.746   6.069 -0.8369  0.2198  0.3342
12743SOL    HW240098   3.422   2.768   5.928 -0.8962 -1.7880 -0.0372
12744SOL     OW40099   2.850   8.831   5.913 -0.2175  0.4721 -0.4240
12744SOL    HW140100   2.777   8.771   5.899  0.4769 -0.7753  0.9574
12744SOL    HW240101   2.828   8.876   5.995  0.7684 -0.3198  0.3105
12745SOL     OW40102   4.896   5.159   5.572  0.0811 -0.1107  0.4919
12745SOL    HW140103   4.893   5.249   5.540 -0.4581  0.2333  1.4633
12745SOL    HW240104   4.808   5.125   5.556  0.4006 -0.6136 -0.2515
12746SOL     OW40105   6.856   1.699   5.366  0.3837  0.0196  0.8771
12746SOL    HW140106   6.762   1.685   5.374 -0.1236  0.9037 -2.3869
12746SOL    HW240107   6.871   1.783   5.411 -1.0903  1.6541 -1.4575
12747SOL     OW40108   2.022   4.036   7.530 -0.0781 -0.7791  0.2266
12747SOL    HW140109   1.986   4.098   7.594  0.1639 -0.1922 -0.1938
12747SOL    HW240110   1.979   4.059   7.448  0.4984 -0.7239 -0.0717
12748SOL     OW40111   7.659   0.056   8.661  0.0021  0.0329 -0.7357
12748SOL    HW140112   7.681   0.081   8.571  0.8162 -2.8914 -1.4454
12748SOL    HW240113   7.567   0.029   8.656 -0.3683  1.1680 -0.3457
12749SOL     OW40114   8.209   4.104   4.997  0.2176  0.5886 -0.4460
12749SOL    HW140115   8.250   4.152   4.925 -1.0806  0.9943 -0.9377
12749SOL    HW240116   8.124   4.147   5.010 -0.8515 -1.3150 -0.6874
12750SOL     OW40117   4.772   1.053   0.111 -0.2552 -0.9244 -0.7966
12750SOL    HW140118   4.831   0.980   0.128  0.3511  0.1950  2.6517
12750SOL    HW240119   4.713   1.055   0.186  1.0651  3.2341  0.4295
12751SOL     OW40120   2.913   2.487   2.703 -0.2219 -0.9219  0.1394
12751SOL    HW140121   2.988   2.547   2.701 -1.6275  0.9207 -0.1278
12751SOL    HW240122   2.917   2.441   2.619 -0.1460  0.1749 -0.4802
12752SOL     OW40123   7.567   8.218   2.013  0.4013 -0.6863 -0.0695
12752SOL    HW140124   7.656   8.242   1.987  0.3664  1.5826  1.5877
12752SOL    HW240125   7.516   8.224   1.933  1.2715  0.7331 -0.5671
12753SOL     OW40126   5.340   3.153   8.688 -0.2816  0.7290  0.7899
12753SOL    HW140127   5.428   3.189   8.699  0.0563  0.2827 -0.3286
12753SOL    HW240128   5.309   3.192   8.606 -0.8511  0.3454  0.8234
12754SOL     OW40129   7.649   2.870   0.225 -0.2749 -0.3740 -0.1589
12754SOL    HW140130   7.724   2.850   0.281 -0.3375  0.3017  0.1757
12754SOL    HW240131   7.640   2.965   0.230  0.2402 -0.1837 -1.9871
12755SOL     OW40132   0.398   3.186   0.917 -0.5201  0.0989 -0.3473
12755SOL    HW140133   0.401   3.090   0.924 -1.4359  0.1732  1.4474
12755SOL    HW240134   0.305   3.207   0.908 -0.4871  0.9048  1.0072
12756SOL     OW40135   4.843   5.970   7.511  0.0283  0.5137 -0.0824
12756SOL    HW140136   4.861   5.926   7.595  1.2248  1.8700  0.4198
12756SOL    HW240137   4.882   5.912   7.445  0.1773  0.0408  0.4063
12757SOL     OW40138   5.572   7.461   6.915  0.3482  0.2966 -0.2404
12757SOL    HW140139   5.544   7.521   6.984  1.2519  1.4179 -0.8100
12757SOL    HW240140   5.616   7.517   6.851 -0.3302 -0.7373 -1.6621
12758SOL     OW40141   3.332   8.581   0.318 -1.1043  0.1046  0.6527
12758SOL    HW140142   3.335   8.595   0.224 -0.7740  0.8407  0.7641
12758SOL    HW240143   3.245   8.545   0.335 -1.6550  1.2065  0.2215
12759SOL     OW40144   2.867   8.153   2.310 -0.8195  0.2950  0.0533
12759SOL    HW140145   2.867   8.139   2.215  1.6683 -0.6177  0.1212
12759SOL    HW240146   2.793   8.103   2.342 -3.0361  2.3241 -1.5631
12760SOL     OW40147   4.271   6.625   4.802  0.4066  0.0988 -0.1361
12760SOL    HW140148   4.184   6.659   4.782  1.1391  0.4197 -3.2653
12760SOL    HW240149   4.287   6.558   4.736  2.2124 -0.5560  0.9020
12761SOL     OW40150   6.308   6.849   4.315  0.4576 -0.7602  0.4055
12761SOL    HW140151   6.268   6.933   4.334  0.4477 -0.1081 -2.0871
12761SOL    HW240152   6.287   6.794   4.390 -0.0798  1.2578  1.7984
12762SOL     OW40153   3.085   6.291   2.777  0.2713  0.2031 -0.1936
12762SOL    HW140154   3.138   6.249   2.709  1.1363  1.3746 -0.2823
12762SOL    HW240155   3.047   6.219   2.826  2.9248 -0.7505  0.6367
12763SOL     OW40156   6.086   3.321   5.026 -0.2068  0.2198  0.4089
12763SOL    HW140157   5.996   3.347   5.003 -0.1951 -0.7423 -0.8419
12763SOL    HW240158   6.088   3.227   5.008  1.3981  0.4465 -0.7417
12764SOL     OW40159   8.041   7.276   4.303 -0.4112  0.1346 -0.1479
12764SOL    HW140160   8.085   7.361   4.300  0.7280 -0.4107  0.3457
12764SOL    HW240161   8.067   7.233   4.222 -1.8259  0.6236 -0.8971
12765SOL     OW40162   6.968   1.899   2.663 -0.1857 -0.0037 -0.0863
12765SOL    HW140163   7.051   1.885   2.707 -1.9412  1.7161  4.3542
12765SOL    HW240164   6.923   1.814   2.668  0.1690 -0.1711  0.3031
12766SOL     OW40165   0.884   0.844   4.878  0.0177 -0.3412  0.3374
12766SOL    HW140166   0.864   0.762   4.924 -0.3145 -0.2096  0.4287
12766SOL    HW240167   0.968   0.872   4.915 -0.5127  0.0526  1.2763
12767SOL     OW40168   1.880   1.839   5.501 -0.1122  0.6137  0.2758
12767SOL    HW140169   1.812   1.782   5.538 -1.3074  2.0508  0.4116
12767SOL    HW240170   1.919   1.882   5.577  0.3296  0.4624  0.1347
12768SOL     OW40171   7.491   0.051   3.730 -0.4807 -0.1846  0.0546
12768SOL    HW140172   7.433   0.125   3.710  0.8878  0.3118 -2.4478
12768SOL    HW240173   7.476  -0.012   3.660  0.3087 -1.1224  0.6854
12769SOL     OW40174   8.397   2.505   4.043 -0.1482 -0.1017 -0.0317
12769SOL    HW140175   8.429   2.496   4.133 -1.2129  0.5910  0.4331
12769SOL    HW240176   8.476   2.497   3.989  0.2235 -3.0069  0.7679
12770SOL     OW40177   4.753   3.894   8.055 -0.0122 -0.4148 -0.2556
12770SOL    HW140178   4.801   3.963   8.101  0.6095 -1.4523  0.7287
12770SOL    HW240179   4.745   3.824   8.121  1.7785 -2.3847 -1.9707
12771SOL     OW40180   7.769   8.590   3.621  0.0720  0.1837  0.3430
12771SOL    HW140181   7.864   8.602   3.614  0.0978  0.5019  1.0415
12771SOL    HW240182   7.751   8.510   3.573  0.4097  1.1887 -1.5568
12772SOL     OW40183   7.867   5.958   7.466  0.5458  0.4968  0.2009
12772SOL    HW140184   7.788   5.927   7.509  1.2856 -2.0066 -0.0727
12772SOL    HW240185   7.905   6.021   7.527  0.5810 -1.5456  2.4386
12773SOL     OW40186   3.043   5.658   3.426 -0.1314  0.0287 -0.1006
12773SOL    HW140187   2.982   5.707   3.482  0.6372  0.6449  0.2189
12773SOL    HW240188   3.056   5.575   3.472 -3.2239 -1.5524 -1.7574
12774SOL     OW40189   1.049   2.782   8.013 -0.3067  0.2504 -0.5525
12774SOL    HW140190   1.041   2.821   7.926 -0.2589  2.7314  0.4916
12774SOL    HW240191   1.084   2.852   8.068 -0.5823 -1.1668  1.5399
12775SOL     OW40192   8.306   7.254   2.528  0.4175 -0.3404  0.3585
12775SOL    HW140193   8.224   7.212   2.500 -0.0412  0.8567 -0.1594
12775SOL    HW240194   8.334   7.202   2.604 -2.0123  0.5139  1.9732
12776SOL     OW40195   5.578   3.184   7.905  0.0447 -0.2502  0.8076
12776SOL    HW140196   5.632   3.107   7.888  0.3264 -0.3878  2.1912
12776SOL    HW240197   5.496   3.166   7.859  1.4308  0.3809 -2.1415
12777SOL     OW40198   0.623   8.853   5.582 -0.0694 -0.0786 -0.4517
12777SOL    HW140199   0.533   8.846   5.550  0.2158  0.8452 -1.4912
12777SOL    HW240200   0.642   8.766   5.618 -1.5488 -0.1326  0.2919
12778SOL     OW40201   0.326   3.445   7.864  0.1739  0.4413  0.0547
12778SOL    HW140202   0.237   3.422   7.838  0.0688  1.2346 -0.3276
12778SOL    HW240203   0.376   3.364   7.855 -0.3792  0.1385 -0.3262
12779SOL     OW40204   7.131   4.577   4.435  0.5157 -0.6684  0.2662
12779SOL    HW140205   7.194   4.571   4.363  0.8536  1.9162  0.2597
12779SOL    HW240206   7.048   4.597   4.393  0.7249  0.9076  0.5577
12780SOL     OW40207   2.127   6.056   5.020  0.0125  0.1355 -0.4206
12780SOL    HW140208   2.189   6.045   5.092 -0.3296  2.3829  0.2779
12780SOL    HW240209   2.174   6.023   4.943  0.6097 -1.7313  0.6755
12781SOL     OW40210   3.350   2.544   4.112 -0.2443  0.0823 -0.1466
12781SOL    HW140211   3.285   2.473   4.106  0.9544 -1.0289 -0.3436
12781SOL    HW240212   3.433   2.500   4.127  0.3748  1.5358  0.9151
12782SOL     OW40213   4.049   4.274   8.025  0.1477 -0.0596  0.1028
12782SOL    HW140214   4.110   4.275   8.099  0.7228  1.4731 -0.3482
12782SOL    HW240215   4.106   4.276   7.948 -0.4412  1.0086 -0.3262
12783SOL     OW40216   7.720   5.311   4.536  0.0024  0.2580  0.0639
12783SOL    HW140217   7.763   5.391   4.506  1.6922 -0.5228  0.2932
12783SOL    HW240218   7.698   5.264   4.455 -1.1223  0.9822 -0.0762
12784SOL     OW40219   4.718   4.418   2.001  0.1418  0.1481 -0.2301
12784SOL    HW140220   4.753   4.429   2.089  1.7543  2.3246 -1.0488
12784SOL    HW240221   4.790   4.381   1.950 -0.4243 -0.1166 -0.8542
12785SOL     OW40222   5.840   8.596   0.147  0.5558 -0.0704 -0.1315
12785SOL    HW140223   5.822   8.570   0.056  0.2190 -1.6068  0.3549
12785SOL    HW240224   5.755   8.599   0.189  0.7982 -0.3388  0.3848
12786SOL     OW40225   5.676   8.683   8.614  0.1942  0.0586  0.1571
12786SOL    HW140226   5.636   8.711   8.531 -0.3460 -0.4877  0.2279
12786SOL    HW240227   5.764   8.721   8.612 -0.2043  1.0114 -0.1530
12787SOL     OW40228   7.283   2.404   4.652  0.2925 -0.1322 -0.2672
12787SOL    HW140229   7.369   2.364   4.664 -0.2823 -1.7297 -1.2566
12787SOL    HW240230   7.302   2.495   4.626  1.6314 -0.0398  0.9244
12788SOL     OW40231   5.643   6.037   6.144 -0.0010 -0.7515 -0.6916
12788SOL    HW140232   5.708   6.100   6.113  1.4814 -2.2032 -0.7024
12788SOL    HW240233   5.579   6.090   6.191 -0.0840  1.0122 -2.6382
12789SOL     OW40234   2.135   5.065   8.807  0.2743 -0.3410 -0.4127
12789SOL    HW140235   2.173   4.993   8.755 -1.3319  1.2682 -4.1889
12789SOL    HW240236   2.070   5.104   8.749  0.0891  3.3497  1.9812
12790SOL     OW40237   4.209   0.254   2.502 -0.0219  0.0489 -0.1920
12790SOL    HW140238   4.169   0.335   2.470 -1.0169 -0.4718 -0.3001
12790SOL    HW240239   4.183   0.249   2.594  0.5147  0.1342 -0.0330
12791SOL     OW40240   3.393   5.019   8.620 -0.3102  0.7958  0.5673
12791SOL    HW140241   3.449   5.007   8.543  0.7510  1.6982  1.1615
12791SOL    HW240242   3.453   5.013   8.694 -1.5961 -2.0995  1.5129
12792SOL     OW40243   6.431   3.215   2.870 -0.1109 -0.3301 -0.7375
12792SOL    HW140244   6.341   3.186   2.885 -0.1305 -0.1842 -0.5662
12792SOL    HW240245   6.477   3.137   2.837 -0.4604 -0.2297 -1.4807
12793SOL     OW40246   3.875   7.303   3.728 -0.3192  0.0178  0.5854
12793SOL    HW140247   3.915   7.388   3.709  0.2890 -0.0385  1.5527
12793SOL    HW240248   3.887   7.291   3.822  0.0159 -1.3454  0.3912
12794SOL     OW40249   4.887   3.935   6.859  0.1090  0.4404  0.5064
12794SOL    HW140250   4.913   4.000   6.794  0.3209 -0.5405 -0.4162
12794SOL    HW240251   4.946   3.950   6.933  1.3692  0.1468 -0.4116
12795SOL     OW40252   6.031   3.591   3.564 -0.1695 -0.4122 -0.0340
12795SOL    HW140253   6.018   3.537   3.487 -0.0670  0.9381 -1.0462
12795SOL    HW240254   5.957   3.652   3.564 -0.7362 -1.0482  1.5433
12796SOL     OW40255   1.025   8.599   7.564 -0.3904 -0.3012 -0.3211
12796SOL    HW140256   0.990   8.578   7.651  1.4066 -0.7378  0.3366
12796SOL    HW240257   0.970   8.670   7.532 -1.2686 -0.3365  1.0490
12797SOL     OW40258   0.338   5.922   1.052 -0.3576 -0.1339 -0.0633
12797SOL    HW140259   0.299   5.883   0.974 -0.7919  1.4996 -0.6829
12797SOL    HW240260   0.398   5.989   1.019 -0.8716  0.8929  0.9920
12798SOL     OW40261   7.488   6.205   2.267  0.2614  0.6499 -0.1568
12798SOL    HW140262   7.513   6.229   2.178  0.3581  0.9348 -0.0557
12798SOL    HW240263   7.393   6.209   2.268  0.3137  2.5779  0.2713
12799SOL     OW40264   6.730   7.467   1.579  0.5062 -0.5283 -0.3190
12799SOL    HW140265   6.796   7.406   1.614 -0.7579 -1.8694 -0.1540
12799SOL    HW240266   6.777   7.518   1.513  2.3557  0.4007  1.5924
12800SOL     OW40267   6.964   6.630   5.867 -0.2153  0.5829 -0.3002
12800SOL    HW140268   6.899   6.586   5.921 -0.5512  0.9542 -0.4028
12800SOL    HW240269   7.000   6.699   5.923 -0.0050  0.4687 -0.2904
12801SOL     OW40270   5.436   3.874   4.425 -0.0144  0.0798  0.2658
12801SOL    HW140271   5.374   3.822   4.374  1.3907 -0.9506 -0.4294
12801SOL    HW240272   5.522   3.847   4.395  0.8557  0.0505  2.5878
12802SOL     OW40273   5.112   6.268   2.051  0.4368 -0.2525 -0.0765
12802SOL    HW140274   5.132   6.249   1.959  0.0086  1.2914 -0.5198
12802SOL    HW240275   5.020   6.245   2.060  0.6257 -0.9307  0.1157
12803SOL     OW40276   3.709   7.332   0.792  0.4841 -0.1803 -0.5642
12803SOL    HW140277   3.665   7.297   0.714 -0.1841  0.9045 -0.6970
12803SOL    HW240278   3.679   7.423   0.797  1.5047  0.1233  0.2545
12804SOL     OW40279   3.648   1.503   3.860  0.9166  0.3478  0.7380
12804SOL    HW140280   3.723   1.545   3.817  0.8513  0.2215  0.5011
12804SOL    HW240281   3.607   1.573   3.911  1.4335  0.3285  1.1969
12805SOL     OW40282   5.894   6.683   0.263 -0.0092  0.2757 -0.2009
12805SOL    HW140283   5.945   6.763   0.259  0.0248  0.2500 -0.2772
12805SOL    HW240284   5.918   6.635   0.184 -0.1659  0.2731 -0.2461
12806SOL     OW40285   0.083   1.555   0.178 -0.5668  0.6941 -0.2545
12806SOL    HW140286   0.035   1.477   0.148 -2.5737  0.7770  2.4203
12806SOL    HW240287   0.111   1.598   0.097 -0.7988 -1.9123 -1.8452
12807SOL     OW40288   3.257   4.133   1.321  0.0464 -0.3189 -0.0537
12807SOL    HW140289   3.329   4.170   1.371 -0.3316  1.9518 -1.0570
12807SOL    HW240290   3.181   4.141   1.378 -0.3030  1.8806 -0.7283
12808SOL     OW40291   1.118   1.340   0.848 -0.3027 -0.5297  0.3678
12808SOL    HW140292   1.113   1.434   0.836  3.5659 -0.2346 -0.3101
12808SOL    HW240293   1.148   1.307   0.763  2.8473 -1.6725  1.7648
12809SOL     OW40294   6.790   1.042   8.771  0.1364 -0.3883  0.2881
12809SOL    HW140295   6.866   1.040   8.828  1.0504 -2.7686 -0.8830
12809SOL    HW240296   6.750   0.956   8.781 -0.1865 -0.5660 -1.9323
12810SOL     OW40297   6.717   8.088   5.100 -0.3031 -0.2359 -0.5793
12810SOL    HW140298   6.751   7.999   5.100  0.3938  0.0214 -1.1375
12810SOL    HW240299   6.795   8.143   5.096 -0.7768  0.3611 -2.1454
12811SOL     OW40300   7.904   4.879   5.299 -0.2913 -0.4083 -0.0365
12811SOL    HW140301   7.810   4.864   5.310 -0.5881  0.6576 -0.8686
12811SOL    HW240302   7.921   4.855   5.207  0.1526 -0.1702 -0.0176
12812SOL     OW40303   5.921   8.471   1.121  0.3041 -0.0314 -0.1143
12812SOL    HW140304   5.961   8.558   1.119  0.6079 -0.1541  0.4485
12812SOL    HW240305   5.856   8.476   1.192  0.7887 -0.4583  0.3687
12813SOL     OW40306   4.712   2.239   7.136 -0.1560 -0.0671 -0.3538
12813SOL    HW140307   4.701   2.212   7.045  0.2631 -2.0743  0.1397
12813SOL    HW240308   4.800   2.211   7.159 -0.4845 -0.1718  0.8531
12814SOL     OW40309   4.699   8.633   8.454 -0.5822 -0.3999  0.1518
12814SOL    HW140310   4.608   8.606   8.445 -0.6224  0.1999 -1.6380
12814SOL    HW240311   4.725   8.660   8.366  0.1369  3.1356  1.2522
12815SOL     OW40312   5.913   0.451   6.325 -0.2070  0.8181 -0.0530
12815SOL    HW140313   5.824   0.418   6.335 -1.2126  2.9017 -1.3729
12815SOL    HW240314   5.913   0.495   6.240  1.8020  1.7219  0.3486
12816SOL     OW40315   5.158   0.421   3.654  0.1753  0.1330 -0.4081
12816SOL    HW140316   5.241   0.395   3.614  0.4114 -1.4734  1.0218
12816SOL    HW240317   5.177   0.431   3.747 -1.4162 -1.3612  0.1414
12817SOL     OW40318   5.763   4.978   8.817 -0.0884 -0.3983  0.2755
12817SOL    HW140319   5.723   4.944   8.897 -0.8070 -0.9089 -0.2813
12817SOL    HW240320   5.810   4.902   8.780 -1.0586 -0.6070 -0.5771
12818SOL     OW40321   8.697   1.190   5.515  0.2019  0.0594 -0.0862
12818SOL    HW140322   8.638   1.259   5.484 -0.7320 -0.4405  0.5478
12818SOL    HW240323   8.696   1.200   5.610  1.5168  0.3363 -0.0807
12819SOL     OW40324   7.664   6.625   4.154  0.9788 -0.3152 -0.3957
12819SOL    HW140325   7.703   6.699   4.202 -0.1727 -0.2821  0.5307
12819SOL    HW240326   7.658   6.657   4.063  1.9166  0.1352 -0.3184
12820SOL     OW40327   6.344   8.280   4.223 -0.2341 -0.4311 -0.0033
12820SOL    HW140328   6.319   8.188   4.222  0.0501 -0.5093 -0.0325
12820SOL    HW240329   6.421   8.285   4.166  0.6460 -0.4430  1.1349
12821SOL     OW40330   0.294   4.951   7.548  0.5871  0.5026  0.4510
12821SOL    HW140331   0.370   4.947   7.490  0.2109 -1.3756  0.0123
12821SOL    HW240332   0.298   5.038   7.587 -0.2658  2.7748 -3.8756
12822SOL     OW40333   4.436   3.927   7.853  0.3031  0.2837 -0.3127
12822SOL    HW140334   4.494   3.999   7.829 -0.1944  0.7061 -0.2613
12822SOL    HW240335   4.421   3.939   7.947 -0.1592  0.3964 -0.3974
12823SOL     OW40336   7.403   2.627   6.492  0.5457  0.2589  0.0493
12823SOL    HW140337   7.359   2.666   6.416  2.0624  1.1317 -0.4032
12823SOL    HW240338   7.351   2.655   6.567 -0.5360  0.0151 -0.5828
12824SOL     OW40339   8.716   0.878   1.766 -0.0053  0.1944  0.1593
12824SOL    HW140340   8.802   0.914   1.784 -0.6195  1.5271  0.5749
12824SOL    HW240341   8.678   0.937   1.700 -0.4928 -0.5452 -0.2464
12825SOL     OW40342   8.889   5.720   7.379  0.2672 -0.4611  0.0452
12825SOL    HW140343   8.952   5.741   7.448 -1.2075  2.5587  0.6309
12825SOL    HW240344   8.807   5.706   7.425 -0.4425  0.1630 -0.9849
12826SOL     OW40345   6.621   4.634   6.495 -0.3808  0.2352  0.4945
12826SOL    HW140346   6.572   4.682   6.562  0.5666  1.6423  0.2065
12826SOL    HW240347   6.623   4.693   6.419 -1.6632 -1.4202 -0.9328
12827SOL     OW40348   1.476   1.631   2.212  0.0651  0.1866  0.3957
12827SOL    HW140349   1.413   1.574   2.256  1.8908 -0.9756  1.6286
12827SOL    HW240350   1.547   1.641   2.275  1.0251  1.6617 -0.8528
12828SOL     OW40351   6.579   4.745   0.968  0.1067  0.5157  0.4285
12828SOL    HW140352   6.513   4.693   1.016 -0.4574 -0.0743 -0.9349
12828SOL    HW240353   6.640   4.773   1.036 -1.3116  0.7298  1.6893
12829SOL     OW40354   8.937   0.274   8.289  0.3487  0.1115  0.2820
12829SOL    HW140355   8.914   0.245   8.200 -0.7127  0.7749  0.3227
12829SOL    HW240356   8.920   0.198   8.344 -0.7181  0.2364  0.1477
12830SOL     OW40357   5.553   6.273   8.497  0.3329 -0.0059 -0.5323
12830SOL    HW140358   5.496   6.197   8.510 -0.0481  0.5914  1.7830
12830SOL    HW240359   5.554   6.286   8.402 -0.9615 -1.8575 -0.8592
12831SOL     OW40360   1.715   5.205   2.743 -0.2778 -0.0169 -0.1157
12831SOL    HW140361   1.768   5.278   2.776 -1.5529  1.2250 -0.6797
12831SOL    HW240362   1.627   5.224   2.774 -0.8400 -0.7409 -1.1988
12832SOL     OW40363   3.296   5.515   4.675 -0.4394  0.3706 -0.2683
12832SOL    HW140364   3.240   5.556   4.610 -0.1374 -0.8804 -1.3406
12832SOL    HW240365   3.367   5.578   4.688 -0.6680  0.7668 -0.9198
12833SOL     OW40366   8.060   4.074   3.446 -0.4469 -0.0577 -0.3088
12833SOL    HW140367   7.966   4.073   3.429 -0.4741 -0.2053 -0.1519
12833SOL    HW240368   8.067   4.064   3.541 -0.2742 -0.0045 -0.3164
12834SOL     OW40369   3.377   8.957   7.294  0.2762 -0.3821  0.6206
12834SOL    HW140370   3.361   8.866   7.270  1.0819 -0.2020 -0.7300
12834SOL    HW240371   3.398   8.954   7.388  0.0992 -1.5531  0.6330
12835SOL     OW40372   8.129   0.554   7.489 -0.0698  0.0669  0.0234
12835SOL    HW140373   8.200   0.602   7.446 -2.4611  1.3673 -2.8887
12835SOL    HW240374   8.071   0.623   7.522 -2.9769 -0.5807 -3.1801
12836SOL     OW40375   7.290   4.612   4.199 -0.2590  0.1706 -0.0120
12836SOL    HW140376   7.347   4.674   4.245 -0.5279  1.2288 -1.0624
12836SOL    HW240377   7.281   4.647   4.111 -1.7887 -0.4543 -0.1523
12837SOL     OW40378   3.690   6.968   3.260  0.1022  0.2277 -0.3061
12837SOL    HW140379   3.625   7.029   3.296 -1.2880 -1.3348 -0.0380
12837SOL    HW240380   3.692   6.988   3.166 -0.4425  0.6147 -0.2405
12838SOL     OW40381   4.376   3.978   8.771 -0.5411 -0.3325 -0.0293
12838SOL    HW140382   4.400   4.022   8.689 -0.5743 -2.4821 -1.2645
12838SOL    HW240383   4.294   3.933   8.751 -0.5182 -0.9311  1.1713
12839SOL     OW40384   1.715   1.023   8.977  0.0726  0.0744  0.0239
12839SOL    HW140385   1.717   1.050   9.069 -1.0470  0.9211 -0.1712
12839SOL    HW240386   1.629   0.982   8.967  0.2753 -0.2046 -0.6032
12840SOL     OW40387   4.125   0.490   8.575  0.5576 -0.0465 -0.2706
12840SOL    HW140388   4.183   0.564   8.592 -1.5043  1.6683 -0.2516
12840SOL    HW240389   4.160   0.451   8.495  1.8922  0.7255 -0.1020
12841SOL     OW40390   0.395   6.069   8.132 -0.2680 -0.0670 -0.1365
12841SOL    HW140391   0.415   6.108   8.217 -1.9938 -0.7327  0.6307
12841SOL    HW240392   0.393   5.975   8.148  0.0153 -0.2425 -1.0717
12842SOL     OW40393   7.108   1.540   1.739  0.0971 -0.0632  0.0622
12842SOL    HW140394   7.040   1.606   1.754  1.0601  0.5784  1.8824
12842SOL    HW240395   7.118   1.538   1.644 -2.7282 -0.4797 -0.3310
12843SOL     OW40396   2.045   7.914   0.343  0.1944  0.2639  0.3347
12843SOL    HW140397   1.973   7.894   0.284 -0.3441 -0.7552  1.3056
12843SOL    HW240398   2.070   7.829   0.381  3.6979  0.0482 -1.9042
12844SOL     OW40399   7.954   7.065   6.198 -0.4462  1.0526  0.2844
12844SOL    HW140400   7.864   7.040   6.178 -0.2382  1.1911 -0.9151
12844SOL    HW240401   7.997   7.071   6.112  0.8165  0.5832  0.8533
12845SOL     OW40402   8.700   4.407   3.616 -0.2564  0.2772 -0.3877
12845SOL    HW140403   8.684   4.316   3.589  2.1864  0.0296 -1.2106
12845SOL    HW240404   8.698   4.457   3.534 -1.8355  1.0670  0.0833
12846SOL     OW40405   0.539   6.337   4.408  0.2073  0.1581  0.2393
12846SOL    HW140406   0.516   6.330   4.500  0.5120  2.0882  0.4957
12846SOL    HW240407   0.571   6.249   4.384 -0.0968 -0.4259  1.8745
12847SOL     OW40408   3.567   2.625   4.367  0.0619  0.5608 -0.2231
12847SOL    HW140409   3.489   2.680   4.356  0.2517  1.1152  1.0735
12847SOL    HW240410   3.575   2.579   4.284 -1.5931  0.5750 -0.4277
12848SOL     OW40411   2.706   5.005   2.715  0.2805  0.5537 -0.0062
12848SOL    HW140412   2.769   5.073   2.689 -0.4797  1.4729  0.4719
12848SOL    HW240413   2.626   5.054   2.734 -0.3372 -0.5124  0.1863
12849SOL     OW40414   7.702   8.000   5.978  0.0366 -0.4109 -0.5223
12849SOL    HW140415   7.713   7.930   6.042 -1.8022 -0.2453  0.0270
12849SOL    HW240416   7.626   8.049   6.009 -0.5251  0.0440 -2.5054
12850SOL     OW40417   7.805   0.696   8.915 -0.0007 -0.6277  0.3189
12850SOL    HW140418   7.850   0.660   8.991 -0.0317 -0.5269  0.3863
12850SOL    HW240419   7.836   0.644   8.841  0.4655 -0.3622  0.3178
12851SOL     OW40420   5.030   4.706   3.450  0.1213  0.1991 -0.3245
12851SOL    HW140421   4.978   4.783   3.427  1.1424  0.5894 -1.4829
12851SOL    HW240422   4.998   4.680   3.537 -0.7010  1.5276 -0.1972
12852SOL     OW40423   8.656   3.539   8.498  0.6281  0.0084  0.0610
12852SOL    HW140424   8.744   3.575   8.484  0.9589 -0.6955  0.3340
12852SOL    HW240425   8.643   3.478   8.426 -0.8215  2.2441 -1.7373
12853SOL     OW40426   2.787   1.988   6.228 -0.2697  0.4049  0.6050
12853SOL    HW140427   2.802   1.896   6.204  1.4694  0.6612  0.5733
12853SOL    HW240428   2.786   2.034   6.144  0.6738  0.6329  0.7081
12854SOL     OW40429   3.676   5.376   4.602  0.0626 -0.5912 -0.4041
12854SOL    HW140430   3.734   5.392   4.527  0.9261 -0.3675  0.2885
12854SOL    HW240431   3.606   5.322   4.567  0.9922 -1.3420 -1.1709
12855SOL     OW40432   5.584   4.175   7.110  0.9698 -0.4938 -0.3601
12855SOL    HW140433   5.677   4.153   7.101  1.3668  1.3409 -1.1608
12855SOL    HW240434   5.580   4.230   7.188  0.7378  0.2596 -0.8898
12856SOL     OW40435   2.789   7.940   2.697  0.1956 -0.1759 -0.1107
12856SOL    HW140436   2.757   8.003   2.762 -0.0474  0.0086 -0.4089
12856SOL    HW240437   2.876   7.915   2.729  0.9116  1.3852 -0.7208
12857SOL     OW40438   2.566   1.129   1.961 -0.0864  0.5416 -0.2259
12857SOL    HW140439   2.587   1.173   1.878  0.3784 -0.8120 -0.8430
12857SOL    HW240440   2.495   1.069   1.938 -0.2612  0.4754  0.4732
12858SOL     OW40441   7.197   7.737   4.191 -0.3475 -0.7012  0.5926
12858SOL    HW140442   7.260   7.809   4.186 -2.0633  0.7530 -2.0756
12858SOL    HW240443   7.194   7.715   4.285  3.4295 -0.3338  0.9407
12859SOL     OW40444   6.948   1.425   3.727 -0.2850  0.6461  0.0372
12859SOL    HW140445   6.861   1.455   3.702 -0.0965  1.7373  0.6500
12859SOL    HW240446   6.960   1.457   3.816  0.3558 -0.3487  0.3245
12860SOL     OW40447   7.271   3.645   6.194  0.1014 -0.2764 -0.0491
12860SOL    HW140448   7.207   3.680   6.256  1.0053  0.3438  0.5588
12860SOL    HW240449   7.293   3.558   6.228 -0.5192 -0.5523 -0.3425
12861SOL     OW40450   5.419   8.029   4.380 -0.2876  0.3279 -0.4307
12861SOL    HW140451   5.496   8.017   4.324 -0.3388 -1.9199 -0.0998
12861SOL    HW240452   5.455   8.036   4.469 -0.4573 -1.7430 -0.1561
12862SOL     OW40453   5.292   8.854   2.259  0.6300 -0.3835  0.1570
12862SOL    HW140454   5.293   8.886   2.349 -0.3950  0.3796 -0.0914
12862SOL    HW240455   5.355   8.910   2.213 -2.1308  2.3585 -0.5868
12863SOL     OW40456   3.552   6.467   2.024 -0.4917 -0.1674 -0.0811
12863SOL    HW140457   3.458   6.449   2.024 -0.4892 -0.6354  2.9110
12863SOL    HW240458   3.561   6.548   2.073  0.8401 -2.3426  3.6568
12864SOL     OW40459   0.800   6.254   6.302 -0.3877 -0.8109 -0.8483
12864SOL    HW140460   0.850   6.317   6.250  0.5096 -1.6631 -1.0462
12864SOL    HW240461   0.779   6.302   6.383 -0.2317 -0.0729 -1.2341
12865SOL     OW40462   7.387   2.318   4.420  0.5307 -0.2400  0.5740
12865SOL    HW140463   7.310   2.369   4.447  0.2757  0.4517 -1.3147
12865SOL    HW240464   7.368   2.229   4.448 -0.6905  0.0304  0.6576
12866SOL     OW40465   5.854   6.340   0.733 -0.4041 -0.5661 -0.2375
12866SOL    HW140466   5.897   6.371   0.653  1.7032 -1.1321  0.6130
12866SOL    HW240467   5.809   6.260   0.706 -1.2479  0.2159 -1.2340
12867SOL     OW40468   5.307   7.670   3.258 -0.3007 -0.6707  0.2660
12867SOL    HW140469   5.241   7.739   3.251 -1.8354 -1.8797  1.9496
12867SOL    HW240470   5.326   7.646   3.167 -1.5918  0.2574 -0.2777
12868SOL     OW40471   7.309   1.083   7.541  0.0576  0.3089 -0.4286
12868SOL    HW140472   7.295   0.998   7.499 -0.9638 -0.0178  0.5499
12868SOL    HW240473   7.319   1.144   7.468  2.5793 -0.8647 -1.2156
12869SOL     OW40474   1.137   5.381   3.292  0.1915  0.0647 -0.0477
12869SOL    HW140475   1.095   5.323   3.229 -0.9244  0.0745  0.6568
12869SOL    HW240476   1.195   5.436   3.239  0.6597 -1.1240 -0.8203
12870SOL     OW40477   8.614   7.960   5.591 -0.5660 -0.2735 -0.1816
12870SOL    HW140478   8.529   7.961   5.635 -0.4955 -0.7324 -0.0290
12870SOL    HW240479   8.675   7.929   5.658 -0.2811  0.0237 -0.2987
12871SOL     OW40480   4.029   4.737   4.406 -0.0861  0.6941 -0.5836
12871SOL    HW140481   4.034   4.830   4.426 -0.5883  0.6986 -0.4769
12871SOL    HW240482   3.936   4.715   4.413  0.0197  0.1978 -0.6598
12872SOL     OW40483   1.569   2.083   1.583 -0.0327 -0.6497 -0.8837
12872SOL    HW140484   1.613   2.082   1.499  3.8527 -2.9582  0.9130
12872SOL    HW240485   1.612   2.153   1.632 -2.0012  0.4448 -0.6367
12873SOL     OW40486   7.393   3.240   5.751  0.4836 -0.1388  0.3587
12873SOL    HW140487   7.348   3.172   5.701  0.8243 -0.5277  0.5642
12873SOL    HW240488   7.333   3.260   5.823  0.0097  0.3977 -0.1734
12874SOL     OW40489   6.552   4.390   6.795  0.1772  0.5494  0.3841
12874SOL    HW140490   6.481   4.338   6.757  1.2248 -0.5239 -0.1751
12874SOL    HW240491   6.515   4.424   6.877 -0.9246 -0.1109  0.1885
12875SOL     OW40492   7.342   6.216   5.026 -0.3477  0.2662  0.0178
12875SOL    HW140493   7.339   6.194   5.119  1.0133 -0.2417 -0.0382
12875SOL    HW240494   7.299   6.143   4.982 -0.8750  0.4445  0.2223
12876SOL     OW40495   3.932   7.189   5.523  0.1006  0.5670 -0.0859
12876SOL    HW140496   3.917   7.133   5.447  1.6974 -2.1287  1.4507
12876SOL    HW240497   3.897   7.274   5.497 -0.8565 -0.6491 -3.2084
12877SOL     OW40498   8.064   4.705   3.321  0.3304 -0.1276  0.3807
12877SOL    HW140499   8.144   4.750   3.296 -0.4310  1.5120  0.8024
12877SOL    HW240500   7.994   4.754   3.278 -0.4635 -1.5633 -0.0229
12878SOL     OW40501   2.832   1.548   3.236 -0.5342 -0.1715 -0.4387
12878SOL    HW140502   2.826   1.621   3.175 -0.7843  0.0798 -0.1180
12878SOL    HW240503   2.924   1.546   3.263  0.0079 -1.4123 -2.1794
12879SOL     OW40504   4.894   6.123   8.247  0.5305  0.7314 -1.2038
12879SOL    HW140505   4.969   6.183   8.245 -1.4625  3.4293 -0.8248
12879SOL    HW240506   4.877   6.110   8.341  1.0714 -0.7173 -1.2741
12880SOL     OW40507   4.408   2.766   8.900  0.3353 -0.6711 -0.3019
12880SOL    HW140508   4.488   2.749   8.850  1.0085  0.8532  0.1666
12880SOL    HW240509   4.355   2.820   8.842  0.2747 -0.5043 -0.0911
12881SOL     OW40510   7.000   2.990   6.165  0.0861 -0.3567  0.3423
12881SOL    HW140511   6.992   3.056   6.096 -1.0312 -1.5136 -0.6778
12881SOL    HW240512   6.915   2.991   6.209 -0.8945 -2.7768 -1.2988
12882SOL     OW40513   3.968   2.043   8.654 -0.5596  0.1077 -0.3683
12882SOL    HW140514   3.961   1.994   8.571 -0.0239  0.4576 -0.6201
12882SOL    HW240515   4.022   1.987   8.710 -2.4638 -1.0490  0.4425
12883SOL     OW40516   7.673   2.172   5.803  0.1407  0.4164 -0.0735
12883SOL    HW140517   7.578   2.183   5.809  0.4680  3.2588  1.2588
12883SOL    HW240518   7.698   2.227   5.729  0.7141 -1.0556 -1.0193
12884SOL     OW40519   3.147   4.282   3.526  0.3684 -0.3249  0.4089
12884SOL    HW140520   3.144   4.260   3.619  0.8670 -1.6865  0.1341
12884SOL    HW240521   3.119   4.202   3.482 -2.9357  1.1815 -0.5792
12885SOL     OW40522   8.600   4.731   6.610  0.5942 -0.2704 -0.0778
12885SOL    HW140523   8.617   4.643   6.577 -1.4113 -0.5940 -0.4244
12885SOL    HW240524   8.636   4.731   6.698 -1.4101 -2.2791  0.8444
12886SOL     OW40525   6.532   7.721   4.662  0.0588 -0.3370 -0.3551
12886SOL    HW140526   6.502   7.780   4.732  1.5021  0.1348 -0.1030
12886SOL    HW240527   6.503   7.634   4.691  0.3282 -0.1070  0.6634
12887SOL     OW40528   2.460   1.687   6.506  0.2625 -0.0724  0.2312
12887SOL    HW140529   2.403   1.764   6.497  0.3752 -0.1427 -1.3247
12887SOL    HW240530   2.479   1.683   6.599  0.4037  1.8991  0.3356
12888SOL     OW40531   8.022   2.582   7.395 -0.5600  0.1165 -0.1310
12888SOL    HW140532   8.075   2.504   7.410  0.5902  0.7802 -0.6504
12888SOL    HW240533   7.940   2.548   7.359  0.0782 -0.8318 -0.7455
12889SOL     OW40534   8.698   8.832   6.922 -0.0805  0.0290  0.0695
12889SOL    HW140535   8.793   8.819   6.914  0.1879  1.7902 -0.0371
12889SOL    HW240536   8.689   8.906   6.982 -1.3903 -0.0721  0.0231
12890SOL     OW40537   4.879   8.098   7.328  0.6042  0.0358  0.0815
12890SOL    HW140538   4.964   8.076   7.365 -0.3051 -0.2068  2.2105
12890SOL    HW240539   4.843   8.015   7.297  1.1689  0.1565 -0.9150
12891SOL     OW40540   3.669   4.486   0.922 -0.3862 -0.3034  0.1752
12891SOL    HW140541   3.713   4.518   0.844 -2.5117  1.4155 -0.4219
12891SOL    HW240542   3.576   4.501   0.905 -1.0812 -1.8988  2.1664
12892SOL     OW40543   7.875   2.091   5.140 -0.8723  0.3220 -0.3856
12892SOL    HW140544   7.895   2.181   5.114 -1.3523 -0.1732 -2.6364
12892SOL    HW240545   7.896   2.089   5.234  2.2723  1.9098 -0.8875
12893SOL     OW40546   7.330   8.516   0.645 -0.1437  0.2207  0.1375
12893SOL    HW140547   7.289   8.431   0.663 -0.7704  0.6836  0.9757
12893SOL    HW240548   7.408   8.495   0.593 -0.0120 -0.9153  0.7620
12894SOL     OW40549   0.938   0.538   8.870  0.2688  0.3665  0.1075
12894SOL    HW140550   0.858   0.488   8.888  0.3032  0.1309 -0.3660
12894SOL    HW240551   1.006   0.471   8.858 -0.3820  0.1855 -4.2475
12895SOL     OW40552   5.618   5.063   6.806  0.2492  0.0226  0.1720
12895SOL    HW140553   5.647   5.056   6.897 -0.2978 -1.9801  0.2387
12895SOL    HW240554   5.579   4.978   6.786 -1.7258  1.1624 -1.2301
12896SOL     OW40555   0.014   1.355   0.010  0.2189  0.4191  0.1323
12896SOL    HW140556   0.089   1.314  -0.033 -0.7523 -0.1160 -1.1135
12896SOL    HW240557  -0.030   1.403  -0.060 -0.2603  1.2504  0.9816
12897SOL     OW40558   8.098   8.465   5.703  0.1183  0.7057 -0.3511
12897SOL    HW140559   8.094   8.385   5.651  0.7729  1.3368 -1.3925
12897SOL    HW240560   8.016   8.465   5.754 -0.1467 -0.3301 -0.7626
12898SOL     OW40561   7.075   4.118   6.731 -0.2502 -0.6022 -0.1525
12898SOL    HW140562   7.032   4.203   6.734 -0.2131 -0.6000  0.4475
12898SOL    HW240563   7.162   4.133   6.769  0.2072 -0.6575 -1.1304
12899SOL     OW40564   5.260   3.139   5.516 -0.4607  0.7914 -0.4295
12899SOL    HW140565   5.265   3.233   5.531  1.5730  0.6512  0.0637
12899SOL    HW240566   5.232   3.102   5.600  1.0294  0.7909  0.0800
12900SOL     OW40567   6.753   5.217   6.307 -0.9925 -0.1775 -0.0752
12900SOL    HW140568   6.704   5.250   6.383  0.0356  0.2573  0.4221
12900SOL    HW240569   6.842   5.250   6.320 -0.1877 -2.2087 -0.1498
12901SOL     OW40570   6.918   4.636   8.135 -0.1686  0.5871  0.2385
12901SOL    HW140571   6.978   4.609   8.204  2.2050 -1.9841 -2.5435
12901SOL    HW240572   6.927   4.731   8.131  0.6928  0.6453  2.4806
12902SOL     OW40573   6.556   3.300   0.980  0.6865  0.2078  0.2490
12902SOL    HW140574   6.528   3.346   0.901  0.1842  0.4780  0.5836
12902SOL    HW240575   6.499   3.333   1.049  0.6320 -0.5697  0.5851
12903SOL     OW40576   4.428   5.186   6.979 -0.0653  0.2829  0.3409
12903SOL    HW140577   4.455   5.127   7.050 -0.8924  0.2867  0.6713
12903SOL    HW240578   4.360   5.137   6.933  0.0280  0.5394 -0.0684
12904SOL     OW40579   4.281   1.383   3.011 -0.0481  0.5105  0.0673
12904SOL    HW140580   4.286   1.299   2.965  0.6709  0.4076  0.3078
12904SOL    HW240581   4.192   1.414   2.996 -0.1648 -0.0538 -0.4502
12905SOL     OW40582   4.527   7.622   7.405 -0.1611 -0.3150  0.2888
12905SOL    HW140583   4.610   7.574   7.404 -0.0657 -0.1618 -0.7548
12905SOL    HW240584   4.525   7.666   7.490  1.1156  0.1601  0.0928
12906SOL     OW40585   3.124   5.641   4.487  0.1107  0.4724  0.3418
12906SOL    HW140586   3.108   5.735   4.495 -1.6926  0.3264 -1.0168
12906SOL    HW240587   3.123   5.624   4.393 -1.8262 -1.2274  0.5845
12907SOL     OW40588   0.140   4.996   7.303 -0.5014  0.0198  0.8637
12907SOL    HW140589   0.155   4.948   7.385  0.6839  0.1343  0.7297
12907SOL    HW240590   0.199   5.071   7.309  0.4217 -0.5675 -0.5885
12908SOL     OW40591   8.696   5.562   4.102 -0.1374 -0.2275 -0.7177
12908SOL    HW140592   8.782   5.575   4.062 -0.8964 -0.1957 -2.4178
12908SOL    HW240593   8.695   5.622   4.177  1.3089 -0.2463 -0.6492
12909SOL     OW40594   2.583   5.197   0.604 -0.2676 -0.4249 -0.5493
12909SOL    HW140595   2.606   5.161   0.690  0.1446 -0.7962 -0.8079
12909SOL    HW240596   2.493   5.169   0.589 -0.7161  0.5473  0.2236
12910SOL     OW40597   6.998   5.521   2.050 -0.4906 -0.4533 -0.4014
12910SOL    HW140598   6.986   5.612   2.023  1.0818  0.1682  0.8244
12910SOL    HW240599   6.940   5.471   1.993 -2.4104  1.4286 -0.2239
12911SOL     OW40600   2.681   6.938   3.356  0.3705  0.1661  0.4337
12911SOL    HW140601   2.677   6.921   3.450 -0.9617  0.5324  0.4670
12911SOL    HW240602   2.689   7.033   3.349  0.0804  0.1731  0.1772
12912SOL     OW40603   0.166   2.951   0.812  0.1094 -0.0016 -0.1719
12912SOL    HW140604   0.138   2.917   0.897 -0.6326  0.5689 -0.1717
12912SOL    HW240605   0.114   3.031   0.800 -1.3121 -1.1190 -2.0506
12913SOL     OW40606   2.896   7.149   6.283 -0.2234 -0.3286  0.3830
12913SOL    HW140607   2.982   7.171   6.248  0.6569  0.1219  2.6604
12913SOL    HW240608   2.860   7.086   6.220  2.4327 -1.7464  0.1550
12914SOL     OW40609   8.741   0.887   0.520  0.0455 -0.1873 -0.0832
12914SOL    HW140610   8.713   0.918   0.434 -0.5718  0.9728  0.5158
12914SOL    HW240611   8.782   0.802   0.502  2.7147  1.3320 -1.9506
12915SOL     OW40612   3.811   3.154   2.381 -0.1702  0.2192 -0.3920
12915SOL    HW140613   3.738   3.178   2.437 -0.1892 -2.0944  0.7139
12915SOL    HW240614   3.782   3.176   2.292 -1.0581  1.8636  0.2690
12916SOL     OW40615   8.488   4.595   4.568 -0.5534  0.1716  0.1295
12916SOL    HW140616   8.487   4.562   4.658  0.5304  1.4224  0.6480
12916SOL    HW240617   8.442   4.680   4.574  1.7594  1.4972  0.0818
12917SOL     OW40618   5.846   4.408   6.063  0.0984 -0.2139  0.0077
12917SOL    HW140619   5.937   4.378   6.067 -0.1101 -1.0219 -0.8400
12917SOL    HW240620   5.794   4.329   6.078 -0.4952  0.5077  2.1390
12918SOL     OW40621   3.703   5.894   2.921 -0.0434  0.0095  0.1184
12918SOL    HW140622   3.633   5.842   2.960  0.6072 -0.9047  0.1022
12918SOL    HW240623   3.691   5.982   2.957 -2.2409  0.3356 -1.2041
12919SOL     OW40624   2.940   4.698   1.612 -0.1356 -0.1955 -0.5890
12919SOL    HW140625   3.018   4.752   1.601  0.0851 -0.5299 -0.6986
12919SOL    HW240626   2.972   4.608   1.599 -0.4645 -0.3612 -0.2644
12920SOL     OW40627   8.037   3.046   0.869 -0.1285  0.0816 -0.6373
12920SOL    HW140628   8.079   3.071   0.787 -1.3877  0.6975 -1.1058
12920SOL    HW240629   7.952   3.089   0.867  0.2502  1.0511  1.5026
12921SOL     OW40630   3.574   1.116   4.547 -0.4007  0.1167  0.3303
12921SOL    HW140631   3.650   1.069   4.514  0.6565  1.8204  0.2343
12921SOL    HW240632   3.587   1.122   4.641  0.1539  1.3226  0.1958
12922SOL     OW40633   0.038   3.674   1.362  0.2296 -0.4760  0.1886
12922SOL    HW140634  -0.017   3.739   1.404  0.2825  0.4328 -1.0843
12922SOL    HW240635  -0.019   3.633   1.297  0.8707  0.0744 -0.7435
12923SOL     OW40636   5.719   8.296   2.370 -0.5851  0.0754  0.0872
12923SOL    HW140637   5.780   8.369   2.382  0.1035 -0.3839 -0.4785
12923SOL    HW240638   5.739   8.264   2.282  0.2854 -1.8361  0.9309
12924SOL     OW40639   0.565   6.621   1.625 -0.3022 -0.2265 -0.2610
12924SOL    HW140640   0.594   6.710   1.645  0.1153 -0.1508 -1.1395
12924SOL    HW240641   0.525   6.628   1.538  3.6111 -1.5776 -2.4596
12925SOL     OW40642   3.772   2.943   0.505 -0.1983 -0.4363 -0.9037
12925SOL    HW140643   3.726   2.891   0.440 -2.4028  0.5072 -0.1739
12925SOL    HW240644   3.856   2.964   0.464 -1.0053 -0.9449 -2.9020
12926SOL     OW40645   8.028   0.264   4.715 -0.1326  0.2797  0.2977
12926SOL    HW140646   8.118   0.273   4.747 -0.1000  0.1886  0.2325
12926SOL    HW240647   8.020   0.330   4.646 -0.7908  1.8240  1.7622
12927SOL     OW40648   2.897   3.546   8.286  0.3944  0.3494  0.1897
12927SOL    HW140649   2.810   3.518   8.258  0.8995 -1.2825  0.1319
12927SOL    HW240650   2.900   3.639   8.267 -1.5915  0.5851  0.8585
12928SOL     OW40651   2.476   2.892   8.766  0.1107  0.2016 -0.2760
12928SOL    HW140652   2.504   2.937   8.845  1.5205  2.0865 -1.7622
12928SOL    HW240653   2.383   2.911   8.758  0.2888  1.2548  0.1384
12929SOL     OW40654   8.155   7.703   0.592 -0.4588  0.3759 -0.4191
12929SOL    HW140655   8.091   7.671   0.656  0.9565  0.6020  1.1929
12929SOL    HW240656   8.155   7.637   0.523 -0.6516 -0.9253  0.7701
12930SOL     OW40657   5.209   0.694   0.190 -0.6752 -0.4309 -0.3066
12930SOL    HW140658   5.204   0.732   0.277  2.1449  1.4031 -0.8336
12930SOL    HW240659   5.159   0.755   0.135 -1.5129 -0.9957 -0.2005
12931SOL     OW40660   7.629   6.983   3.740  0.4793 -0.0105 -0.1179
12931SOL    HW140661   7.583   7.056   3.782  1.7843  0.7117  0.1323
12931SOL    HW240662   7.718   7.016   3.727  0.3934 -0.5714 -2.5699
12932SOL     OW40663   8.702   0.762   5.124 -0.6510  0.1484  0.0242
12932SOL    HW140664   8.798   0.763   5.126 -0.6415 -0.7202  0.3753
12932SOL    HW240665   8.677   0.854   5.133  0.1150  0.2101  1.8903
12933SOL     OW40666   1.303   7.180   2.253 -0.2903  0.1135  0.7451
12933SOL    HW140667   1.394   7.196   2.228 -0.8839 -0.3532 -1.9607
12933SOL    HW240668   1.257   7.261   2.232 -0.3928  0.7540  3.1341
12934SOL     OW40669   4.026   7.053   2.865 -0.0979  0.2458 -0.0414
12934SOL    HW140670   3.931   7.043   2.863  0.0061 -0.9592  0.3557
12934SOL    HW240671   4.050   7.038   2.956  0.7582 -2.6991 -0.6519
12935SOL     OW40672   2.946   0.052   5.822 -1.3003 -0.0994  0.2083
12935SOL    HW140673   2.935  -0.039   5.851 -0.2665 -0.8724 -1.6420
12935SOL    HW240674   2.890   0.103   5.880 -1.3450 -1.8270  1.7659
12936SOL     OW40675   6.572   3.741   5.690  0.0445  0.2394  0.4151
12936SOL    HW140676   6.480   3.714   5.694  0.4320 -1.6062 -1.3357
12936SOL    HW240677   6.579   3.787   5.606  1.2386 -2.2394 -0.9692
12937SOL     OW40678   4.635   8.438   2.345 -0.3204  0.2237 -0.7931
12937SOL    HW140679   4.712   8.468   2.394  1.0023 -0.7205 -2.1673
12937SOL    HW240680   4.613   8.511   2.288 -1.4548  1.0779  0.6687
12938SOL     OW40681   1.110   1.908   3.921 -0.3212  0.1739 -0.6434
12938SOL    HW140682   1.186   1.858   3.890 -1.2322 -1.7335  0.0639
12938SOL    HW240683   1.085   1.866   4.003 -0.4355  2.5863  0.6532
12939SOL     OW40684   1.722   3.121   5.234 -0.0035 -0.0207 -1.0934
12939SOL    HW140685   1.805   3.118   5.186  1.9253  0.7894  1.9263
12939SOL    HW240686   1.724   3.044   5.291 -1.9183 -0.6050 -1.7338
12940SOL     OW40687   3.564   8.338   4.059 -0.1138  0.0002 -0.3694
12940SOL    HW140688   3.571   8.374   4.148  0.4964 -0.1485 -0.3526
12940SOL    HW240689   3.556   8.243   4.073 -0.8427  0.0447 -0.4456
12941SOL     OW40690   2.786   5.011   5.689  0.0901 -0.7248  0.2791
12941SOL    HW140691   2.771   5.015   5.595 -1.2583 -0.2146  0.5052
12941SOL    HW240692   2.794   5.102   5.717  0.7583 -0.8818  0.6235
12942SOL     OW40693   5.625   8.485   1.239  0.5097 -0.3349 -0.4594
12942SOL    HW140694   5.609   8.554   1.304 -0.9141 -1.5706  0.5519
12942SOL    HW240695   5.603   8.527   1.155 -0.6004  0.3866  0.1577
12943SOL     OW40696   6.194   2.716   8.039 -0.1742  0.2035  0.1656
12943SOL    HW140697   6.263   2.771   8.002 -1.2610  0.6633 -1.2911
12943SOL    HW240698   6.237   2.667   8.109  1.8736 -0.2540 -1.3181
12944SOL     OW40699   1.961   5.253   8.722  0.2691 -0.4365  0.3230
12944SOL    HW140700   1.882   5.234   8.773  1.2855  0.0812  2.1741
12944SOL    HW240701   1.964   5.349   8.719  0.4217 -0.4626 -0.4118
12945SOL     OW40702   0.996   3.147   8.417 -0.8157 -0.2730  0.1690
12945SOL    HW140703   1.047   3.181   8.344  0.1116 -2.2842 -0.1881
12945SOL    HW240704   1.061   3.112   8.479 -1.6677 -1.4709  0.4403
12946SOL     OW40705   5.459   2.009   6.674  0.5393 -0.2832 -0.3366
12946SOL    HW140706   5.462   2.021   6.579 -0.5107 -1.9469 -0.6198
12946SOL    HW240707   5.375   2.048   6.700 -0.4932 -2.2486 -0.5393
12947SOL     OW40708   1.604   5.649   3.605 -0.3591  0.6954  0.1632
12947SOL    HW140709   1.551   5.703   3.663 -3.4684 -0.8729 -0.9595
12947SOL    HW240710   1.543   5.582   3.572  2.3540 -1.2568 -1.3410
12948SOL     OW40711   6.848   2.405   7.527  0.1135  0.6418 -0.1741
12948SOL    HW140712   6.859   2.480   7.586  0.6262  2.0069 -1.9484
12948SOL    HW240713   6.775   2.429   7.470  0.9853  0.3055 -1.4782
12949SOL     OW40714   7.963   3.749   1.473 -0.4595 -0.1094 -0.3975
12949SOL    HW140715   7.900   3.676   1.478 -2.1635  1.1188 -2.2355
12949SOL    HW240716   7.966   3.784   1.562 -1.8575 -0.6622 -0.1007
12950SOL     OW40717   5.955   6.366   2.360  0.1824 -0.1864 -0.5156
12950SOL    HW140718   6.044   6.389   2.334  0.9298 -2.9297 -0.7350
12950SOL    HW240719   5.920   6.317   2.285 -1.9765  1.7399 -0.8810
12951SOL     OW40720   6.020   8.561   3.283 -0.1955 -0.3062 -0.1973
12951SOL    HW140721   6.055   8.570   3.194  0.9858  1.1446  0.3635
12951SOL    HW240722   6.018   8.467   3.298  1.2808 -0.5330 -1.1511
12952SOL     OW40723   7.051   1.111   4.884 -0.0721  0.7484 -0.1383
12952SOL    HW140724   6.957   1.115   4.901 -1.0152 -3.8419 -2.7609
12952SOL    HW240725   7.092   1.141   4.966 -3.7269  2.1246  1.3789
12953SOL     OW40726   4.820   8.935   8.498 -0.0540  0.2350  0.2612
12953SOL    HW140727   4.852   9.018   8.462 -2.7791  1.0647 -0.4713
12953SOL    HW240728   4.882   8.869   8.465  1.4155  1.8075 -0.2410
12954SOL     OW40729   3.161   1.645   3.376  0.4243 -0.5593  0.1155
12954SOL    HW140730   3.101   1.701   3.326  0.8791  0.2600  0.4775
12954SOL    HW240731   3.116   1.630   3.459  0.0226 -1.2703 -0.2151
12955SOL     OW40732   0.787   5.135   4.250 -0.2340  0.5427 -0.1219
12955SOL    HW140733   0.808   5.046   4.279 -2.4060 -0.1561 -0.5542
12955SOL    HW240734   0.855   5.157   4.186 -1.2497 -1.9751 -2.2080
12956SOL     OW40735   8.962   8.711   6.898 -0.7454 -0.0322  0.0614
12956SOL    HW140736   8.992   8.684   6.812 -0.2047  2.0593 -0.4642
12956SOL    HW240737   9.042   8.734   6.946 -1.0776 -0.6601  0.9531
12957SOL     OW40738   1.600   2.337   4.662 -0.1529 -0.0688  0.2305
12957SOL    HW140739   1.681   2.285   4.659  1.4034  2.2181 -2.2504
12957SOL    HW240740   1.609   2.391   4.740  0.5545 -0.1473  0.2106
12958SOL     OW40741   2.232   7.157   5.708 -0.2950 -0.4608 -0.4288
12958SOL    HW140742   2.201   7.099   5.640 -0.6983  0.0937 -0.7232
12958SOL    HW240743   2.173   7.233   5.705 -0.2009 -0.3386  0.3968
12959SOL     OW40744   6.954   3.930   6.077  0.1511  0.1505  0.2514
12959SOL    HW140745   7.003   4.005   6.108  2.6279 -1.3708  0.2778
12959SOL    HW240746   6.882   3.920   6.141  0.0445  2.1637  0.4874
12960SOL     OW40747   2.990   3.693   0.051 -0.0574 -0.2679 -0.3212
12960SOL    HW140748   2.992   3.708  -0.044  0.0380 -2.1619 -0.6543
12960SOL    HW240749   3.063   3.634   0.067 -0.0875  0.0251  0.9506
12961SOL     OW40750   7.011   2.728   6.100 -0.0091 -0.1783 -0.1357
12961SOL    HW140751   6.934   2.687   6.138 -0.4357 -0.9004 -1.7099
12961SOL    HW240752   6.999   2.822   6.115 -1.1939 -0.2846 -0.3889
12962SOL     OW40753   5.584   1.662   0.069  0.4511 -0.4097  0.1142
12962SOL    HW140754   5.677   1.682   0.056  0.5507 -1.3090 -0.6441
12962SOL    HW240755   5.584   1.585   0.126  0.2664 -1.8843 -1.7955
12963SOL     OW40756   2.775   2.457   8.700 -0.2047 -0.8185 -0.0823
12963SOL    HW140757   2.724   2.464   8.781  0.5619 -0.2595  0.3592
12963SOL    HW240758   2.709   2.451   8.631 -0.8939  1.1272  0.3609
12964SOL     OW40759   5.092   3.885   5.885 -0.3006  0.1744  0.2639
12964SOL    HW140760   5.096   3.922   5.973  1.9000 -2.1087  1.2896
12964SOL    HW240761   5.058   3.796   5.898 -1.1387  0.2168 -1.3968
12965SOL     OW40762   3.083   8.452   6.002 -0.1351 -0.3561  0.1855
12965SOL    HW140763   3.159   8.506   5.978 -0.0745 -1.4160 -2.2232
12965SOL    HW240764   3.032   8.508   6.061  1.6594  1.0030  0.5441
12966SOL     OW40765   4.596   4.408   5.625 -0.3117  0.3286  0.7467
12966SOL    HW140766   4.649   4.439   5.551 -2.3020  2.0170 -0.0649
12966SOL    HW240767   4.596   4.313   5.617  1.8506  0.3117  0.2997
12967SOL     OW40768   4.421   6.283   5.199 -0.1198 -0.0624  0.0085
12967SOL    HW140769   4.469   6.314   5.122 -1.4693 -0.3490 -0.9839
12967SOL    HW240770   4.449   6.192   5.209 -1.0615 -0.4963 -1.0968
12968SOL     OW40771   5.272   7.227   5.523 -0.6356  0.1896 -0.2330
12968SOL    HW140772   5.271   7.306   5.577 -0.0773  1.6226 -2.2067
12968SOL    HW240773   5.273   7.155   5.586 -0.1024  1.7570  1.6476
12969SOL     OW40774   2.695   3.871   5.855  0.2220 -0.2690  0.6444
12969SOL    HW140775   2.742   3.788   5.843  0.3132 -0.0744 -0.4228
12969SOL    HW240776   2.756   3.926   5.904  1.3280  0.1242 -1.0687
12970SOL     OW40777   3.770   0.756   1.869 -0.4512  0.3937 -0.7369
12970SOL    HW140778   3.787   0.688   1.803 -1.7564 -0.5222 -0.1790
12970SOL    HW240779   3.782   0.712   1.953  0.5843  1.3871 -0.3401
12971SOL     OW40780   2.433   0.132   8.123 -0.3572  0.2057  0.0445
12971SOL    HW140781   2.500   0.199   8.140 -0.6798  0.0454  2.2281
12971SOL    HW240782   2.363   0.180   8.078  0.0862  0.9648  0.1361
12972SOL     OW40783   4.417   2.336   3.895  0.1648 -0.0065 -0.3943
12972SOL    HW140784   4.430   2.331   3.990  0.2215  1.6363 -0.2950
12972SOL    HW240785   4.328   2.303   3.881 -0.2650  0.7766  0.3749
12973SOL     OW40786   5.371   6.760   2.976  0.7319  0.3072  0.5104
12973SOL    HW140787   5.378   6.747   2.881  0.8893 -1.7728  0.7554
12973SOL    HW240788   5.278   6.750   2.994  0.8800 -0.9270  0.7277
12974SOL     OW40789   6.403   4.682   4.730  0.0335  0.3320  0.0266
12974SOL    HW140790   6.442   4.595   4.743  1.2908  0.6682 -1.2298
12974SOL    HW240791   6.460   4.724   4.665 -2.8603  0.5497 -2.6146
12975SOL     OW40792   7.361   6.437   0.227  0.2597  0.4943  0.3991
12975SOL    HW140793   7.416   6.480   0.293  1.4920  0.9264 -0.8581
12975SOL    HW240794   7.390   6.346   0.229 -0.5104  0.2599  1.2387
12976SOL     OW40795   1.044   8.456   5.540 -0.2608  0.5156 -0.0836
12976SOL    HW140796   1.093   8.460   5.621  0.6547 -0.3984 -0.5687
12976SOL    HW240797   1.076   8.377   5.496 -0.6862  1.0166 -1.3574
12977SOL     OW40798   7.967   0.481   5.394 -0.4532 -0.0053 -0.0072
12977SOL    HW140799   7.896   0.508   5.336 -0.1106 -0.6308 -0.7230
12977SOL    HW240800   8.041   0.538   5.371  0.1950 -1.3342 -1.3523
12978SOL     OW40801   1.847   5.343   5.034 -0.4625 -0.4824  0.2996
12978SOL    HW140802   1.784   5.295   5.087  0.5801 -2.6366 -0.2986
12978SOL    HW240803   1.916   5.367   5.096 -0.6194 -0.4344  0.4574
12979SOL     OW40804   7.584   1.463   4.604  0.2870 -0.3283  0.2111
12979SOL    HW140805   7.608   1.527   4.671  1.4856 -1.9750  1.4473
12979SOL    HW240806   7.658   1.403   4.601 -0.3531 -1.0932 -1.6351
12980SOL     OW40807   3.226   5.021   8.162 -0.3393 -0.0565  0.2259
12980SOL    HW140808   3.183   4.942   8.193 -0.1672 -0.6459 -0.9885
12980SOL    HW240809   3.193   5.034   8.073  1.2957 -0.0229 -0.4168
12981SOL     OW40810   2.945   3.054   6.075  0.0581  0.0300 -0.1213
12981SOL    HW140811   2.981   2.978   6.030 -1.0266 -0.7083  0.2289
12981SOL    HW240812   2.963   3.038   6.168  2.6686  1.7400 -0.2245
12982SOL     OW40813   4.367   1.336   7.501  0.0861  0.2019 -0.9473
12982SOL    HW140814   4.390   1.421   7.538 -0.3370  0.0961 -0.4263
12982SOL    HW240815   4.319   1.356   7.421  1.9979  0.4286 -2.0902
12983SOL     OW40816   8.935   7.669   8.747  0.2665 -0.3088 -0.0301
12983SOL    HW140817   8.856   7.638   8.701 -0.0872  1.3455 -0.5954
12983SOL    HW240818   9.006   7.615   8.712 -0.4460 -1.1397 -0.2450
12984SOL     OW40819   3.959   4.602   8.042 -0.6249 -0.5920 -0.6797
12984SOL    HW140820   3.887   4.541   8.030 -0.6750 -0.9924  1.4020
12984SOL    HW240821   4.027   4.572   7.981 -1.3518 -1.5655 -1.0266
12985SOL     OW40822   0.193   2.173   8.192 -0.0194 -0.2600  0.2929
12985SOL    HW140823   0.190   2.151   8.285 -0.3302  2.1498  0.9204
12985SOL    HW240824   0.105   2.153   8.159 -0.3864  0.2994  0.9048
12986SOL     OW40825   3.604   5.048   4.638 -0.6056  0.1490 -0.2679
12986SOL    HW140826   3.568   5.117   4.582  1.9625  1.0958 -0.8583
12986SOL    HW240827   3.630   4.979   4.577 -0.0094  0.1406 -0.0063
12987SOL     OW40828   4.627   6.823   6.788 -0.2886 -0.0884  0.5071
12987SOL    HW140829   4.635   6.916   6.805 -1.5666  0.1670 -0.1494
12987SOL    HW240830   4.547   6.796   6.834 -1.0537 -0.4045 -0.9316
12988SOL     OW40831   8.545   2.971   7.443  0.0239  0.2041 -0.6301
12988SOL    HW140832   8.470   2.954   7.385  0.8554 -1.1334 -1.3788
12988SOL    HW240833   8.525   2.923   7.523  0.8325 -1.6681 -1.4889
12989SOL     OW40834   7.850   4.356   6.846 -0.4064 -0.2236 -0.7397
12989SOL    HW140835   7.799   4.411   6.787  0.1388 -0.7905 -1.7801
12989SOL    HW240836   7.810   4.269   6.838  0.0930 -0.4548 -0.8174
12990SOL     OW40837   0.216   6.735   4.259  0.2420  0.0289  0.2042
12990SOL    HW140838   0.123   6.745   4.239  0.3340 -1.8713 -1.5154
12990SOL    HW240839   0.256   6.817   4.229 -0.9647  1.3699  2.0731
12991SOL     OW40840   5.335   0.276   8.705 -0.2391  0.1168 -0.7885
12991SOL    HW140841   5.415   0.249   8.750  1.2942  0.7969 -2.9364
12991SOL    HW240842   5.307   0.355   8.752 -1.5468 -1.8359  1.9604
12992SOL     OW40843   8.854   0.170   2.479 -0.7887 -0.3547  0.1335
12992SOL    HW140844   8.835   0.078   2.460 -0.5959 -0.1168 -1.2966
12992SOL    HW240845   8.785   0.196   2.540 -0.9587 -1.3883  0.4116
12993SOL     OW40846   6.436   7.507   0.851 -0.0424  0.4223 -0.0441
12993SOL    HW140847   6.479   7.590   0.871  1.3228 -0.6471  1.7069
12993SOL    HW240848   6.373   7.495   0.922 -1.2581  0.5836 -1.0497
12994SOL     OW40849   8.293   6.462   1.103  0.1912 -0.7880 -0.0878
12994SOL    HW140850   8.342   6.384   1.127  2.8802  1.4329  2.3062
12994SOL    HW240851   8.349   6.508   1.041 -0.1696  0.4381  0.4674
12995SOL     OW40852   1.764   0.020   1.339 -0.3427  0.3932  0.2213
12995SOL    HW140853   1.745  -0.074   1.341  0.7522  0.1662  0.7329
12995SOL    HW240854   1.842   0.030   1.393 -0.7043  1.6720  0.5545
12996SOL     OW40855   5.968   2.049   8.756  0.0464 -0.3937 -0.6801
12996SOL    HW140856   5.914   2.125   8.732  1.4532  0.3415 -1.6407
12996SOL    HW240857   6.058   2.077   8.740  0.7102 -1.7162  0.5355
12997SOL     OW40858   0.028   3.393   7.179 -0.1803  0.1226  0.0211
12997SOL    HW140859   0.082   3.469   7.155 -0.8494  0.0068 -2.0319
12997SOL    HW240860  -0.013   3.418   7.261 -0.2913  1.9478 -0.5472
12998SOL     OW40861   2.172   0.596   1.304  0.4522 -0.0566 -0.0865
12998SOL    HW140862   2.163   0.636   1.391  3.3121  3.2621 -1.0877
12998SOL    HW240863   2.255   0.630   1.271  0.5669 -2.9860 -3.2936
12999SOL     OW40864   5.765   4.136   5.107  0.4769  0.5014  0.2715
12999SOL    HW140865   5.826   4.151   5.035 -0.1829 -0.7506 -0.5897
12999SOL    HW240866   5.759   4.041   5.114  1.2263  0.5646  2.6159
13000SOL     OW40867   1.217   2.167   8.199  0.2555  0.7633 -0.3708
13000SOL    HW140868   1.222   2.088   8.146  0.3795  0.4362  0.1245
13000SOL    HW240869   1.287   2.223   8.164  0.4088  0.5058 -0.4853
13001SOL     OW40870   5.781   8.006   3.054  0.0257 -0.0529  0.4382
13001SOL    HW140871   5.689   7.991   3.036 -0.2207  1.4839  0.3004
13001SOL    HW240872   5.812   7.924   3.092 -1.1528 -0.9150 -0.3943
13002SOL     OW40873   8.100   1.020   8.014  0.6287 -0.4498  0.3240
13002SOL    HW140874   8.087   1.115   8.006  1.4672 -0.2389  1.2603
13002SOL    HW240875   8.012   0.985   8.027  0.2599  0.1418 -0.4840
13003SOL     OW40876   8.984   7.828   6.205 -0.1036 -0.2580  0.0228
13003SOL    HW140877   8.912   7.796   6.149  0.7482 -2.8535  0.2559
13003SOL    HW240878   9.020   7.748   6.244  1.7441  1.1575  1.3551
13004SOL     OW40879   3.331   0.363   5.245 -0.3688  0.2203 -0.0453
13004SOL    HW140880   3.278   0.344   5.168 -0.0597  0.6186 -0.3625
13004SOL    HW240881   3.307   0.452   5.269  0.1612  0.4083 -0.2000
13005SOL     OW40882   2.737   3.010   1.219  0.0352 -0.0436 -0.2051
13005SOL    HW140883   2.798   3.006   1.145  0.5735  0.4582  0.1977
13005SOL    HW240884   2.655   3.040   1.181 -0.3148 -1.8198 -0.9580
13006SOL     OW40885   7.916   8.207   3.870  0.2387  0.5840  0.0987
13006SOL    HW140886   7.907   8.201   3.775  0.1516  0.8566  0.0881
13006SOL    HW240887   7.827   8.201   3.903  0.2778  0.3876  0.1705
13007SOL     OW40888   8.219   4.763   0.194  0.0724 -0.4993  0.2502
13007SOL    HW140889   8.237   4.669   0.201  2.6661 -0.1366 -0.2476
13007SOL    HW240890   8.232   4.783   0.101  1.6250  0.6514  0.6672
13008SOL     OW40891   3.446   4.897   3.642  0.1916  0.0246  0.0651
13008SOL    HW140892   3.447   4.960   3.570  1.4882 -0.0177  0.0121
13008SOL    HW240893   3.518   4.837   3.622 -0.5535 -1.0356  0.4966
13009SOL     OW40894   2.816   7.102   8.086 -0.4999  0.1356  0.2744
13009SOL    HW140895   2.726   7.072   8.078 -0.1451 -1.6321  2.0486
13009SOL    HW240896   2.809   7.193   8.114 -1.8280 -0.4485  2.0541
13010SOL     OW40897   7.585   8.095   0.506 -0.3454  0.2516 -0.4589
13010SOL    HW140898   7.663   8.075   0.453 -0.1083 -0.1290  0.0199
13010SOL    HW240899   7.568   8.187   0.489  0.4438  0.4411 -0.2846
13011SOL     OW40900   1.652   3.337   3.043 -0.2596  0.1715 -0.2027
13011SOL    HW140901   1.641   3.309   3.134 -1.2806  0.6202 -0.1798
13011SOL    HW240902   1.594   3.281   2.993 -1.3613  1.3506 -0.3065
13012SOL     OW40903   8.237   5.686   7.252 -0.0377 -0.0818 -0.7296
13012SOL    HW140904   8.160   5.720   7.298 -0.5453 -1.3252 -0.5986
13012SOL    HW240905   8.238   5.733   7.168  0.5979  1.8354  0.2980
13013SOL     OW40906   4.683   8.889   5.619 -0.3680 -0.0471  0.1848
13013SOL    HW140907   4.764   8.872   5.571 -0.7093 -0.8484 -0.1153
13013SOL    HW240908   4.681   8.984   5.630  1.0863 -0.0879  1.0210
13014SOL     OW40909   3.045   4.535   8.637 -0.3934 -0.1029 -0.0571
13014SOL    HW140910   3.003   4.616   8.609 -0.0712 -0.1776 -0.7914
13014SOL    HW240911   3.100   4.561   8.711 -1.0613  0.1518  0.3577
13015SOL     OW40912   8.553   6.921   1.191  0.3108 -0.1086  0.2646
13015SOL    HW140913   8.491   6.934   1.120 -0.3535 -0.4620  0.7727
13015SOL    HW240914   8.537   6.995   1.250 -2.2574 -2.0622  2.2736
13016SOL     OW40915   1.572   0.537   0.191  0.0066  0.5277 -0.5342
13016SOL    HW140916   1.595   0.523   0.099  1.6844  1.2856 -0.2619
13016SOL    HW240917   1.628   0.609   0.220 -0.7762  0.5768  0.9855
13017SOL     OW40918   3.779   0.071   4.776 -0.0445  0.5162  0.4448
13017SOL    HW140919   3.710   0.136   4.767 -0.2528  0.7570  2.9280
13017SOL    HW240920   3.855   0.121   4.805  1.0221  0.1474 -1.5465
13018SOL     OW40921   3.474   4.357   3.823  0.4989  0.5924 -0.5966
13018SOL    HW140922   3.492   4.284   3.764  1.4636  0.2806  0.0600
13018SOL    HW240923   3.424   4.419   3.770 -0.2305 -0.4824 -1.1997
13019SOL     OW40924   1.013   4.828   2.072  0.1624  0.2986 -0.3604
13019SOL    HW140925   1.077   4.850   2.004 -1.0842 -0.7400 -1.9694
13019SOL    HW240926   0.929   4.828   2.026 -0.7282 -0.5401  1.1786
13020SOL     OW40927   6.200   7.619   6.166 -0.3489 -0.3089  0.4558
13020SOL    HW140928   6.226   7.696   6.216 -0.3013  0.7066 -1.0367
13020SOL    HW240929   6.127   7.582   6.214 -1.2255  1.4521  0.5579
13021SOL     OW40930   5.165   6.260   2.589 -0.1664 -0.2985 -0.7887
13021SOL    HW140931   5.118   6.329   2.543 -1.8216 -0.9546 -0.1591
13021SOL    HW240932   5.182   6.194   2.522  0.6235  0.2941 -1.1932
13022SOL     OW40933   0.068   2.571   8.460  0.1683 -0.1896 -0.5275
13022SOL    HW140934   0.141   2.616   8.502 -0.0277 -0.4531  0.1064
13022SOL    HW240935   0.057   2.491   8.511 -1.9582  0.8474  0.7919
13023SOL     OW40936   6.690   3.884   1.118 -0.0888  0.3527 -0.0944
13023SOL    HW140937   6.657   3.853   1.202  1.6634  0.2709  0.5962
13023SOL    HW240938   6.719   3.805   1.072  1.3707  0.6118  0.3307
13024SOL     OW40939   1.651   1.767   8.098  0.2899 -0.3386 -0.3442
13024SOL    HW140940   1.730   1.777   8.151  1.4336  0.5407 -2.0921
13024SOL    HW240941   1.652   1.843   8.039 -0.8284 -1.3258 -1.7043
13025SOL     OW40942   1.022   5.105   4.142 -0.2551  0.1210  0.0955
13025SOL    HW140943   1.040   5.099   4.236 -1.2414  0.6538  0.3364
13025SOL    HW240944   1.074   5.035   4.103 -0.5038 -0.6744  1.1412
13026SOL     OW40945   2.382   7.718   5.654  0.0366  0.6160 -0.0015
13026SOL    HW140946   2.450   7.782   5.634  2.1535 -1.5016  0.0289
13026SOL    HW240947   2.390   7.652   5.585  0.7250 -1.6737  2.1096
13027SOL     OW40948   6.262   5.833   4.865  0.2507  0.1758  0.2934
13027SOL    HW140949   6.291   5.792   4.947 -0.4058 -1.3722 -0.2135
13027SOL    HW240950   6.336   5.822   4.805  0.4754  0.6978  0.4722
13028SOL     OW40951   8.936   4.888   0.695  0.7545  0.0394  0.0815
13028SOL    HW140952   8.927   4.975   0.656  2.0166 -1.5647 -4.4362
13028SOL    HW240953   9.030   4.876   0.706  0.6378 -0.9370  0.1074
13029SOL     OW40954   1.917   3.833   3.855  0.4943  0.1011 -0.1833
13029SOL    HW140955   1.915   3.752   3.907 -1.3703  1.2226  1.6605
13029SOL    HW240956   2.006   3.837   3.820  1.3355 -1.5688  1.5751
13030SOL     OW40957   8.406   6.913   4.939 -0.2716 -0.2500  0.6951
13030SOL    HW140958   8.403   6.818   4.922  1.4540 -0.4284  1.2165
13030SOL    HW240959   8.372   6.922   5.028  2.4765 -0.8096  1.9078
13031SOL     OW40960   2.131   2.086   5.115  0.0966 -0.8174  0.0709
13031SOL    HW140961   2.055   2.036   5.087 -0.0480  0.6853 -2.4952
13031SOL    HW240962   2.096   2.150   5.177 -0.6525 -0.5269 -0.6351
13032SOL     OW40963   0.653   0.712   1.207  0.0801 -0.1532 -0.6150
13032SOL    HW140964   0.609   0.779   1.155  0.0718  0.7248  0.5006
13032SOL    HW240965   0.601   0.705   1.287  0.6471 -0.7802 -0.2895
13033SOL     OW40966   5.469   6.057   0.221 -0.0366 -0.2482  0.0646
13033SOL    HW140967   5.443   6.117   0.152  0.6409  1.7654  1.4605
13033SOL    HW240968   5.430   6.093   0.301  1.2377 -1.0542  1.1020
13034SOL     OW40969   8.354   6.746   0.504  0.1558 -0.6569  0.2637
13034SOL    HW140970   8.415   6.699   0.561  0.4837 -0.1976  0.2995
13034SOL    HW240971   8.267   6.724   0.538  0.3768  1.7448  2.7198
13035SOL     OW40972   1.493   2.719   8.597 -0.1332 -0.0241 -0.2350
13035SOL    HW140973   1.580   2.708   8.636 -0.2298 -0.2063 -0.0684
13035SOL    HW240974   1.458   2.630   8.592  0.0227 -0.0434 -1.0755
13036SOL     OW40975   0.845   7.687   2.029  0.1040  0.3952  0.6860
13036SOL    HW140976   0.797   7.605   2.018 -0.7912  0.5816  2.6821
13036SOL    HW240977   0.921   7.663   2.081  1.8962  0.2336 -1.8533
13037SOL     OW40978   4.814   2.410   2.818  0.0234  0.2195 -0.1444
13037SOL    HW140979   4.860   2.481   2.863 -0.6315  1.1873 -0.9392
13037SOL    HW240980   4.733   2.397   2.868  0.8687 -1.1235  0.9494
13038SOL     OW40981   3.106   4.766   0.728 -0.5012  0.2291 -0.7801
13038SOL    HW140982   3.089   4.820   0.805 -0.1067 -0.4465 -0.2047
13038SOL    HW240983   3.031   4.707   0.723  0.8473 -1.7947  0.9269
13039SOL     OW40984   3.869   6.970   4.862  0.4476 -0.7171  0.6219
13039SOL    HW140985   3.774   6.977   4.870  0.5450  0.5423  0.8046
13039SOL    HW240986   3.897   6.930   4.944  0.0079 -1.9989  0.1800
13040SOL     OW40987   2.582   5.036   5.930  0.3263 -0.1932  0.0197
13040SOL    HW140988   2.646   5.007   5.995  1.5440  1.9619 -0.1363
13040SOL    HW240989   2.518   5.086   5.982 -1.0620 -1.9563  0.1080
13041SOL     OW40990   4.494   8.492   0.851  0.0481  0.1577  0.4760
13041SOL    HW140991   4.550   8.509   0.927  0.5122 -1.0423  0.4279
13041SOL    HW240992   4.426   8.434   0.884 -0.2945  0.3834  0.1764
13042SOL     OW40993   0.038   8.631   6.597 -0.0575  0.0568 -0.5270
13042SOL    HW140994   0.035   8.594   6.509  1.3892  0.8865 -0.9727
13042SOL    HW240995   0.127   8.613   6.627 -0.7396 -0.7864  1.0428
13043SOL     OW40996   4.662   2.292   8.279  0.2017  0.2813 -0.1695
13043SOL    HW140997   4.694   2.238   8.207  0.4011 -0.2132  0.2842
13043SOL    HW240998   4.651   2.379   8.241  3.4371  0.8625 -0.0794
13044SOL     OW40999   5.449   5.345   0.898 -0.5462 -0.2766 -0.4195
13044SOL    HW141000   5.387   5.315   0.832 -3.0302  2.6947  0.3477
13044SOL    HW241001   5.479   5.430   0.866  3.6596 -1.7078 -0.9446
13045SOL     OW41002   2.321   3.023   6.850 -0.1645  0.4607  0.2203
13045SOL    HW141003   2.385   3.075   6.899 -1.2335  0.3326  1.8311
13045SOL    HW241004   2.361   2.935   6.845 -0.2616  0.3365  1.3567
13046SOL     OW41005   2.909   5.993   3.143  0.1784  0.0611 -0.1369
13046SOL    HW141006   2.832   6.005   3.198  0.4414 -2.7454  0.9942
13046SOL    HW241007   2.973   6.055   3.178 -1.3072  2.0236 -0.7359
13047SOL     OW41008   5.173   4.401   6.733 -0.1433 -0.2414 -0.1390
13047SOL    HW141009   5.210   4.352   6.806 -0.6277 -0.8567 -0.2973
13047SOL    HW241010   5.173   4.492   6.762  0.0859 -0.4264  0.4472
13048SOL     OW41011   6.716   1.653   6.692 -0.6175  0.1962 -0.7024
13048SOL    HW141012   6.770   1.595   6.639  1.1513  0.6705  0.4701
13048SOL    HW241013   6.675   1.596   6.756  0.4520  0.0954 -0.0802
13049SOL     OW41014   5.766   4.762   4.847  0.4530 -0.6320  0.0928
13049SOL    HW141015   5.688   4.718   4.812  0.5284 -1.1335  0.5393
13049SOL    HW241016   5.742   4.785   4.936  0.6052 -0.2385  0.0325
13050SOL     OW41017   8.307   6.009   6.229  0.3368 -0.3812  0.1106
13050SOL    HW141018   8.340   6.016   6.318  0.7985 -0.2855 -0.0665
13050SOL    HW241019   8.272   5.920   6.224  0.9275 -0.6212  0.1812
13051SOL     OW41020   1.697   7.566   6.711 -0.0996  0.3230  0.1665
13051SOL    HW141021   1.686   7.661   6.713 -0.3791  0.3194 -0.6193
13051SOL    HW241022   1.615   7.532   6.746 -1.7457  0.3403 -3.2488
13052SOL     OW41023   6.978   1.750   6.061  0.1443  0.2975  0.5153
13052SOL    HW141024   7.019   1.692   6.124 -2.0850 -0.7410  1.1101
13052SOL    HW241025   7.007   1.718   5.976 -2.3192 -2.9058  0.7157
13053SOL     OW41026   5.861   8.662   2.200  0.0688 -0.0564 -0.3874
13053SOL    HW141027   5.853   8.593   2.265 -0.3250 -1.2461 -1.6430
13053SOL    HW241028   5.936   8.635   2.147  1.3751  1.7054  0.4783
13054SOL     OW41029   7.341   4.195   3.111  0.2418 -0.5574 -0.8629
13054SOL    HW141030   7.321   4.124   3.172  0.4468  1.6864  2.0256
13054SOL    HW241031   7.419   4.166   3.064 -0.0791 -2.4792 -0.2922
13055SOL     OW41032   4.291   3.638   5.101  1.3143 -0.0139 -0.0429
13055SOL    HW141033   4.213   3.662   5.152  3.1894  1.6907  2.2773
13055SOL    HW241034   4.310   3.548   5.128  1.0043  0.1008  0.5783
13056SOL     OW41035   2.277   0.636   8.507  0.7129 -0.5813 -0.3408
13056SOL    HW141036   2.337   0.644   8.581  1.0403  0.3413 -0.6891
13056SOL    HW241037   2.236   0.722   8.501 -0.3662 -1.0883 -0.3508
13057SOL     OW41038   7.519   6.615   7.468  0.2706 -0.4745  0.1153
13057SOL    HW141039   7.445   6.565   7.503  0.0303 -0.5800 -0.5338
13057SOL    HW241040   7.573   6.635   7.545 -0.0384 -1.0504  0.4901
13058SOL     OW41041   6.691   7.836   3.153 -0.4700  0.2379  0.1481
13058SOL    HW141042   6.631   7.807   3.222 -1.2879 -0.9072 -1.0028
13058SOL    HW241043   6.778   7.826   3.192 -0.9510  1.2025  1.5736
13059SOL     OW41044   7.529   2.720   3.735 -0.4326 -0.0051 -0.0652
13059SOL    HW141045   7.621   2.748   3.739 -1.5684  4.6491 -0.6404
13059SOL    HW241046   7.520   2.680   3.649  1.1551 -1.3900  0.3434
13060SOL     OW41047   3.940   1.804   8.007 -0.3682  0.7435 -0.1525
13060SOL    HW141048   4.020   1.766   8.043  1.1692  1.0938 -2.9132
13060SOL    HW241049   3.901   1.732   7.956 -0.0027  1.4715 -1.4983
13061SOL     OW41050   6.444   2.160   7.190 -0.5079 -0.7807 -0.2119
13061SOL    HW141051   6.506   2.093   7.219 -0.1024 -0.9373 -1.3757
13061SOL    HW241052   6.381   2.113   7.135 -2.0155 -0.7200  1.3786
13062SOL     OW41053   5.402   3.182   6.278  0.2583  0.3362  0.4515
13062SOL    HW141054   5.458   3.258   6.290  0.0336  0.5638  0.0547
13062SOL    HW241055   5.337   3.189   6.348 -0.9575  1.5780 -0.7631
13063SOL     OW41056   0.909   0.762   6.175  0.1712  0.0463  0.2110
13063SOL    HW141057   0.847   0.739   6.244 -2.6307  1.1706 -1.7269
13063SOL    HW241058   0.962   0.832   6.213 -0.7395  0.0815  1.4896
13064SOL     OW41059   6.313   0.049   0.297 -0.1269 -0.6768 -0.0690
13064SOL    HW141060   6.295  -0.045   0.292 -1.7132 -0.4455  0.5711
13064SOL    HW241061   6.227   0.090   0.293  0.5270  0.7438 -0.1204
13065SOL     OW41062   2.488   3.766   4.331 -0.2761  0.1990  0.0109
13065SOL    HW141063   2.547   3.832   4.294  0.8188 -0.6967  0.1128
13065SOL    HW241064   2.525   3.682   4.303 -1.2874 -0.3986  0.4064
13066SOL     OW41065   5.117   3.377   2.914  0.1512 -0.1737 -0.6689
13066SOL    HW141066   5.042   3.317   2.907  0.3548 -0.3283 -1.6891
13066SOL    HW241067   5.091   3.439   2.982  0.2012 -1.8009  0.9300
13067SOL     OW41068   4.919   3.247   0.748  0.1102 -0.5928  0.4864
13067SOL    HW141069   5.014   3.241   0.736  0.4045  1.5368  1.2827
13067SOL    HW241070   4.902   3.340   0.761 -2.3580 -0.6402 -1.5311
13068SOL     OW41071   7.842   1.300   7.181 -0.5986  0.0139  0.5713
13068SOL    HW141072   7.909   1.259   7.235  2.3096  0.0089 -2.7046
13068SOL    HW241073   7.815   1.231   7.120 -0.0643  1.2690 -1.1453
13069SOL     OW41074   1.203   4.273   4.690  0.2240 -0.3834 -0.2181
13069SOL    HW141075   1.243   4.222   4.619 -0.9705 -1.8206  0.1128
13069SOL    HW241076   1.114   4.239   4.698 -0.3840  1.2695  0.5207
13070SOL     OW41077   0.088   1.222   5.277  0.4575 -0.1118 -0.0463
13070SOL    HW141078   0.053   1.268   5.353 -0.2891 -0.2512 -0.2925
13070SOL    HW241079   0.023   1.155   5.258 -0.8537  1.7056 -2.5184
13071SOL     OW41080   6.680   7.824   5.606 -0.1339  0.0480 -0.1492
13071SOL    HW141081   6.629   7.756   5.562 -0.3550  0.4194 -0.4783
13071SOL    HW241082   6.766   7.785   5.619 -0.4463 -0.5216  0.2504
13072SOL     OW41083   5.254   3.185   2.093  0.5585  0.2263 -0.8062
13072SOL    HW141084   5.327   3.163   2.036  0.2912 -0.0261 -1.0526
13072SOL    HW241085   5.176   3.158   2.044  0.2747  0.9157 -0.7447
13073SOL     OW41086   1.996   5.136   0.977 -0.0089 -0.5462 -0.0575
13073SOL    HW141087   1.922   5.185   1.013 -0.5307 -0.8321 -0.7124
13073SOL    HW241088   2.071   5.193   0.990 -0.2390 -0.4861  1.1291
13074SOL     OW41089   8.583   3.826   5.676 -0.0728  0.1482  0.2547
13074SOL    HW141090   8.502   3.834   5.727 -0.7840  0.4536 -0.8819
13074SOL    HW241091   8.603   3.732   5.679 -0.5196  0.0543  0.4682
13075SOL     OW41092   6.015   2.817   5.429  0.7475 -0.0328 -0.0132
13075SOL    HW141093   6.111   2.818   5.437  0.9187  1.8298 -1.4972
13075SOL    HW241094   5.991   2.909   5.418 -1.3618 -0.3281  1.4977
13076SOL     OW41095   3.013   0.880   5.982 -0.4619 -0.5008 -0.3348
13076SOL    HW141096   2.925   0.851   6.005  0.5819 -1.2849  3.3596
13076SOL    HW241097   3.002   0.972   5.956 -2.2828 -0.1814  1.3210
13077SOL     OW41098   8.131   2.303   0.816 -0.5337 -0.0858  0.4767
13077SOL    HW141099   8.055   2.361   0.809 -0.4122 -0.0667 -1.1991
13077SOL    HW241100   8.185   2.341   0.886 -1.3966  0.6867  0.7337
13078SOL     OW41101   4.685   1.353   2.587  0.5021  0.2446  0.3057
13078SOL    HW141102   4.746   1.279   2.589  2.0997  1.5258  1.3342
13078SOL    HW241103   4.635   1.345   2.668  0.1727 -0.0859  0.0750
13079SOL     OW41104   8.037   5.815   6.869  0.0349 -0.1053  0.1050
13079SOL    HW141105   8.027   5.826   6.774  0.3303  0.8702  0.1778
13079SOL    HW241106   7.949   5.827   6.904 -0.2092 -1.1777 -0.0926
13080SOL     OW41107   3.152   0.214   4.584  0.3514 -0.1862  0.0695
13080SOL    HW141108   3.243   0.189   4.568  0.6916  0.9569  0.0782
13080SOL    HW241109   3.150   0.308   4.563 -0.5914  0.0234  1.0284
13081SOL     OW41110   7.531   7.712   1.300 -0.3914 -0.1309 -0.4846
13081SOL    HW141111   7.539   7.746   1.389  0.0547 -0.7110 -0.3004
13081SOL    HW241112   7.436   7.710   1.284 -0.6534 -2.1271  0.8260
13082SOL     OW41113   2.363   6.090   1.119  0.3382  0.0863 -0.2353
13082SOL    HW141114   2.451   6.117   1.093  0.3885  1.0503  0.8507
13082SOL    HW241115   2.366   6.087   1.215  0.0724 -2.9601 -0.2010
13083SOL     OW41116   0.579   8.284   2.186 -0.1206  0.1115  0.3374
13083SOL    HW141117   0.569   8.343   2.111  1.5458  0.8628  0.6602
13083SOL    HW241118   0.653   8.228   2.163 -0.6772 -0.8073  0.7223
13084SOL     OW41119   2.070   5.818   3.478  0.1444  1.1160  0.8609
13084SOL    HW141120   2.092   5.750   3.542  0.3322 -0.1184 -0.4460
13084SOL    HW241121   2.122   5.795   3.401 -2.1911  0.8154 -0.7344
13085SOL     OW41122   2.772   1.249   4.411 -0.1715  0.3382  0.1277
13085SOL    HW141123   2.685   1.275   4.381 -0.5495 -2.3356 -1.4126
13085SOL    HW241124   2.829   1.320   4.383 -1.8245  2.2426  1.3303
13086SOL     OW41125   2.376   2.043   3.786 -0.1167  0.1340  0.2829
13086SOL    HW141126   2.462   2.056   3.825 -0.1613  1.0683  0.0947
13086SOL    HW241127   2.386   1.967   3.729  1.1238  1.3855 -1.2710
13087SOL     OW41128   7.253   3.421   0.644 -0.2142  0.0088 -0.8048
13087SOL    HW141129   7.174   3.407   0.697 -0.2510  3.4570  0.3204
13087SOL    HW241130   7.220   3.445   0.558 -0.3518 -0.1740 -0.8029
13088SOL     OW41131   5.074   6.758   2.968  0.0276 -0.1541  0.2626
13088SOL    HW141132   5.011   6.805   2.913  1.1513  0.3645 -0.6068
13088SOL    HW241133   5.041   6.769   3.057 -0.0031  1.8800  0.0351
13089SOL     OW41134   1.192   2.566   1.834  0.2155 -0.2469  0.3350
13089SOL    HW141135   1.263   2.579   1.772  0.5171  0.3257  0.7898
13089SOL    HW241136   1.235   2.561   1.919 -0.2753 -0.0129  0.6010
13090SOL     OW41137   3.100   8.002   1.360 -0.5255  0.2178  1.1669
13090SOL    HW141138   3.007   7.992   1.341 -0.6245  0.6097  1.4336
13090SOL    HW241139   3.127   8.080   1.312  0.6058 -2.0124 -2.1531
13091SOL     OW41140   0.276   3.776   0.162 -0.1254 -0.6449 -0.2605
13091SOL    HW141141   0.237   3.848   0.113  0.4275  0.0836  0.3369
13091SOL    HW241142   0.303   3.815   0.245 -0.2144 -1.6466  0.2607
13092SOL     OW41143   1.494   1.966   3.960  0.4141 -0.1866 -0.0177
13092SOL    HW141144   1.557   2.036   3.942 -0.1266  1.0345  2.3480
13092SOL    HW241145   1.425   2.009   4.011 -1.6568 -1.7836 -1.3074
13093SOL     OW41146   0.538   4.071   1.286 -0.0194  0.0476  0.5221
13093SOL    HW141147   0.629   4.085   1.258  0.8467 -3.2123  1.2773
13093SOL    HW241148   0.511   3.991   1.241 -1.4735 -0.6764  2.5450
13094SOL     OW41149   4.547   4.392   4.504  0.1489  0.7704 -0.0282
13094SOL    HW141150   4.474   4.387   4.443 -0.1373  0.9226  0.3003
13094SOL    HW241151   4.578   4.302   4.512 -1.3042  0.3442  1.3889
13095SOL     OW41152   6.157   5.339   8.209 -0.2785 -0.1846 -0.4904
13095SOL    HW141153   6.140   5.308   8.120 -0.6592 -2.5176  0.3045
13095SOL    HW241154   6.169   5.258   8.260  0.8662  1.1040  1.3971
13096SOL     OW41155   3.276   4.366   1.933 -0.1279 -0.3844 -0.2493
13096SOL    HW141156   3.307   4.405   1.851  0.8912 -1.2742 -0.3035
13096SOL    HW241157   3.220   4.293   1.905 -0.0944 -0.4486 -0.1478
13097SOL     OW41158   0.758   1.709   5.829 -0.6174  0.4482  0.1789
13097SOL    HW141159   0.806   1.643   5.879  2.6508  2.7798  0.4533
13097SOL    HW241160   0.730   1.773   5.895  0.9125  1.9140 -0.5187
13098SOL     OW41161   8.197   4.408   7.418  0.2959 -0.2181  0.3868
13098SOL    HW141162   8.210   4.345   7.348 -0.1683 -0.8202  0.8334
13098SOL    HW241163   8.213   4.358   7.498  0.2564  0.3177  0.7349
13099SOL     OW41164   2.170   3.607   5.891  0.6825 -0.2695  0.2344
13099SOL    HW141165   2.193   3.616   5.983  2.0035 -1.6094  0.0561
13099SOL    HW241166   2.213   3.527   5.862 -1.4995 -1.0791 -1.0118
13100SOL     OW41167   1.429   1.017   6.042 -0.2148 -0.1464 -0.3025
13100SOL    HW141168   1.381   1.042   6.122  0.8538 -2.5309  1.1874
13100SOL    HW241169   1.400   0.927   6.024  2.2576 -0.9888 -0.4250
13101SOL     OW41170   8.739   5.757   4.294 -0.3755 -0.4420  0.2755
13101SOL    HW141171   8.763   5.715   4.377 -1.9343 -1.0888  0.4392
13101SOL    HW241172   8.658   5.804   4.315 -0.9771 -0.9041 -0.9546
13102SOL     OW41173   3.938   5.670   3.417 -0.9650 -0.0758  0.1185
13102SOL    HW141174   3.988   5.633   3.490  0.4263  0.5297 -0.4830
13102SOL    HW241175   3.995   5.738   3.380 -2.3302  0.8074 -0.4852
13103SOL     OW41176   8.906   0.915   1.453  0.7207  0.1346  0.0205
13103SOL    HW141177   8.935   0.896   1.363 -0.8527  1.6033 -0.8629
13103SOL    HW241178   8.858   0.837   1.480  0.9424 -0.2028 -0.5440
13104SOL     OW41179   5.445   4.979   1.535 -0.2045  0.3190 -0.2400
13104SOL    HW141180   5.461   5.032   1.613  0.3554 -0.3114  0.0805
13104SOL    HW241181   5.512   4.911   1.538 -0.3779  0.1024 -1.1059
13105SOL     OW41182   4.910   5.836   3.883 -0.0636 -0.1418  0.0000
13105SOL    HW141183   5.004   5.852   3.876  0.2127 -1.2282  1.0039
13105SOL    HW241184   4.886   5.872   3.968 -0.1355 -1.6757  0.6550
13106SOL     OW41185   4.014   3.875   4.469  0.7069  0.2533  0.0488
13106SOL    HW141186   3.961   3.846   4.395  0.3208 -1.4893  0.9370
13106SOL    HW241187   3.951   3.916   4.529  0.4172 -1.1939  0.7913
13107SOL     OW41188   3.816   7.784   1.392 -0.3599 -0.6828  0.3233
13107SOL    HW141189   3.856   7.820   1.471  0.0344  0.0784 -0.2146
13107SOL    HW241190   3.724   7.809   1.399 -0.3461 -0.7029  0.5880
13108SOL     OW41191   6.284   2.013   0.818  0.3277  0.3900  0.1662
13108SOL    HW141192   6.294   1.968   0.902  0.4171  0.6743  0.3113
13108SOL    HW241193   6.231   1.954   0.765  0.3424  0.1698  0.3946
13109SOL     OW41194   1.486   5.304   7.942 -0.3936  1.0165  0.2826
13109SOL    HW141195   1.567   5.254   7.948  0.1058  1.6554 -0.8800
13109SOL    HW241196   1.473   5.318   7.848 -1.0321  2.2296  0.5369
13110SOL     OW41197   4.956   0.516   6.425  0.0881  0.0262 -0.0452
13110SOL    HW141198   5.011   0.449   6.467  0.0207  0.0304  0.0501
13110SOL    HW241199   4.898   0.546   6.495 -0.4056 -0.3636 -0.2877
13111SOL     OW41200   7.577   5.902   2.160 -0.3109 -0.5154  0.2184
13111SOL    HW141201   7.486   5.933   2.158  0.2260  1.1714 -1.0875
13111SOL    HW241202   7.587   5.861   2.246 -2.0395  0.0832  0.7526
13112SOL     OW41203   3.802   2.565   7.739  0.0322 -0.0605 -0.4522
13112SOL    HW141204   3.878   2.599   7.693 -0.5622  1.6955 -0.2293
13112SOL    HW241205   3.728   2.588   7.683 -0.5370  0.4989  0.5014
13113SOL     OW41206   2.107   4.009   6.258  0.2245 -0.0057  0.4169
13113SOL    HW141207   2.025   4.036   6.217 -0.0415 -1.4005 -0.0400
13113SOL    HW241208   2.090   3.920   6.289  0.8538  0.5013  2.3764
13114SOL     OW41209   8.725   8.468   5.338  0.6282 -0.6004 -0.7359
13114SOL    HW141210   8.670   8.545   5.353  1.8564 -0.0847  1.5319
13114SOL    HW241211   8.663   8.396   5.325 -0.5385  0.6535 -2.6093
13115SOL     OW41212   6.090   0.225   6.031 -0.3842  0.6287 -0.0412
13115SOL    HW141213   6.152   0.257   5.965  0.5154 -0.4280  0.2633
13115SOL    HW241214   6.050   0.304   6.067  0.8406  1.3395 -0.1958
13116SOL     OW41215   4.788   4.932   4.644  0.2915 -0.0514 -0.0897
13116SOL    HW141216   4.846   4.876   4.696  0.4815 -0.0355 -0.2829
13116SOL    HW241217   4.714   4.950   4.702  0.8033  0.4878  0.3998
13117SOL     OW41218   2.392   2.011   7.516  0.0201 -0.3854 -0.0750
13117SOL    HW141219   2.392   2.008   7.420 -0.1143  2.5653 -0.2713
13117SOL    HW241220   2.301   1.998   7.541  0.0155 -0.9139 -0.3465
13118SOL     OW41221   7.703   7.680   3.891  0.2854  0.5230 -0.8170
13118SOL    HW141222   7.701   7.617   3.819  2.3674  0.2257 -0.6834
13118SOL    HW241223   7.611   7.694   3.913 -0.3449 -0.3146 -2.7047
13119SOL     OW41224   4.293   5.874   7.285  0.0801 -0.4139  0.3548
13119SOL    HW141225   4.363   5.868   7.220 -0.3760  0.1605 -0.2121
13119SOL    HW241226   4.338   5.872   7.369  0.6428 -1.6943  0.0422
13120SOL     OW41227   0.440   7.969   5.529 -0.4825  0.5218 -0.7082
13120SOL    HW141228   0.353   7.945   5.562 -0.7185  0.3760 -1.4168
13120SOL    HW241229   0.501   7.930   5.591 -0.8842 -0.8132 -1.1063
13121SOL     OW41230   2.429   2.500   2.452 -0.1821  0.2080 -0.3886
13121SOL    HW141231   2.378   2.498   2.533 -1.5015 -1.5349 -1.1878
13121SOL    HW241232   2.508   2.450   2.472 -0.6282 -0.4467 -0.2321
13122SOL     OW41233   0.918   7.927   2.258 -0.5182 -0.4517  0.1070
13122SOL    HW141234   0.963   7.901   2.178  1.0465 -1.2604  1.1887
13122SOL    HW241235   0.869   7.849   2.285  1.7062 -1.4295  1.6946
13123SOL     OW41236   6.566   7.507   7.751  0.2577 -0.3916  0.5536
13123SOL    HW141237   6.477   7.537   7.731  1.1587  0.7473 -2.3355
13123SOL    HW241238   6.583   7.437   7.688  1.4103 -0.5985  1.0545
13124SOL     OW41239   3.780   7.200   5.771  0.0733 -0.3641  0.8412
13124SOL    HW141240   3.742   7.243   5.695  1.5809 -0.3037  0.0805
13124SOL    HW241241   3.846   7.263   5.803  1.7234 -1.6945  0.2095
13125SOL     OW41242   4.219   3.202   2.686  0.0158  0.2669  0.0312
13125SOL    HW141243   4.199   3.150   2.609 -0.5211  0.9971 -0.3346
13125SOL    HW241244   4.266   3.142   2.744 -0.4634 -0.5735 -0.4316
13126SOL     OW41245   8.224   3.969   6.044 -0.3965 -0.2976 -0.4026
13126SOL    HW141246   8.278   3.954   5.966  0.4921  0.5170  0.0350
13126SOL    HW241247   8.274   3.929   6.116  0.3648  1.7089  0.2375
13127SOL     OW41248   5.131   1.326   3.130 -0.0357  0.3028  0.7501
13127SOL    HW141249   5.133   1.271   3.052 -0.3972 -0.2086  1.0956
13127SOL    HW241250   5.074   1.400   3.106  2.5489  2.0085 -0.6486
13128SOL     OW41251   5.256   7.059   5.724  0.3943 -0.2271  0.1934
13128SOL    HW141252   5.218   7.104   5.799  1.0610 -1.9303  1.6116
13128SOL    HW241253   5.230   6.967   5.735 -0.6338 -0.3277 -2.4112
13129SOL     OW41254   3.435   2.483   1.612  0.1953  0.6197 -0.3291
13129SOL    HW141255   3.362   2.524   1.658  1.7467  1.3758  1.5706
13129SOL    HW241256   3.423   2.509   1.520 -1.9962  0.5281 -0.1238
13130SOL     OW41257   3.665   0.143   7.359  0.1917  0.3482  0.8691
13130SOL    HW141258   3.703   0.089   7.429  1.8503  0.5830  0.1874
13130SOL    HW241259   3.739   0.192   7.323 -0.3686 -0.6465 -1.8602
13131SOL     OW41260   0.533   2.718   7.596  0.0664 -0.3052 -0.6761
13131SOL    HW141261   0.489   2.766   7.527 -0.5119  0.3966  0.1534
13131SOL    HW241262   0.626   2.727   7.577 -0.0915 -1.9239 -2.5337
13132SOL     OW41263   5.960   6.978   7.488  0.2140 -0.6279  0.4663
13132SOL    HW141264   5.989   6.902   7.538  0.4700 -0.0048  1.2708
13132SOL    HW241265   5.867   6.964   7.474 -0.0380 -0.4012  1.8516
13133SOL     OW41266   4.963   5.103   7.930 -0.1453  0.0606 -0.4908
13133SOL    HW141267   4.990   5.195   7.924 -0.7776  0.2327 -0.7578
13133SOL    HW241268   5.031   5.062   7.984  1.3847  0.1816 -2.1976
13134SOL     OW41269   8.673   3.418   2.582  0.0446 -0.1882  0.7474
13134SOL    HW141270   8.669   3.507   2.546  0.5770 -0.1370  0.8111
13134SOL    HW241271   8.587   3.406   2.623 -1.3657 -0.9669 -2.1737
13135SOL     OW41272   2.206   3.062   3.329 -0.1586 -0.5189 -0.1566
13135SOL    HW141273   2.173   3.151   3.316  2.6623  0.7017  0.2045
13135SOL    HW241274   2.134   3.005   3.303 -1.4568  1.8506 -2.1367
13136SOL     OW41275   0.170   5.419   8.121 -0.3987 -0.4515  0.7512
13136SOL    HW141276   0.189   5.504   8.080 -0.2251 -0.7273  0.2523
13136SOL    HW241277   0.078   5.403   8.101  0.3278 -1.8744 -1.9895
13137SOL     OW41278   2.961   5.742   6.692  0.1982  0.4147  0.1621
13137SOL    HW141279   3.043   5.776   6.657  0.7228 -1.1826 -0.2367
13137SOL    HW241280   2.987   5.686   6.765 -0.6002  0.5631  0.5748
13138SOL     OW41281   8.107   5.871   0.347  0.3080  0.2810  0.3293
13138SOL    HW141282   8.185   5.817   0.341  0.3266  0.2448  0.8299
13138SOL    HW241283   8.062   5.858   0.264 -0.5414 -1.8279  1.0420
13139SOL     OW41284   6.219   3.166   6.392  0.2265  0.1928  0.0749
13139SOL    HW141285   6.221   3.259   6.368  3.2197 -0.0515 -1.0749
13139SOL    HW241286   6.206   3.166   6.486  2.0579  1.9587  0.4136
13140SOL     OW41287   4.681   4.725   8.549  0.9064 -0.5752  0.5889
13140SOL    HW141288   4.615   4.663   8.518 -2.4973  3.1726 -0.5393
13140SOL    HW241289   4.754   4.714   8.488 -0.6789 -1.6715 -1.2459
13141SOL     OW41290   7.626   8.561   3.848  0.7078  0.1025  0.1926
13141SOL    HW141291   7.637   8.640   3.901 -1.7054  0.2544  0.5655
13141SOL    HW241292   7.680   8.577   3.771  0.5997  1.9450  0.4407
13142SOL     OW41293   6.257   6.268   0.183  1.1232  0.6777 -0.8298
13142SOL    HW141294   6.293   6.262   0.271 -0.5851 -0.3253 -0.1544
13142SOL    HW241295   6.187   6.202   0.181 -0.8429  2.6523 -1.9480
13143SOL     OW41296   6.754   4.849   5.790 -0.2075 -0.4412  0.4440
13143SOL    HW141297   6.686   4.814   5.734 -0.2774  0.1847  0.1208
13143SOL    HW241298   6.835   4.839   5.739 -0.3283  0.5024  0.0417
13144SOL     OW41299   5.742   3.178   0.920 -0.2234  0.3909 -0.0365
13144SOL    HW141300   5.713   3.142   1.003  0.0560  1.7371  0.6774
13144SOL    HW241301   5.732   3.273   0.930  0.6141  0.6318 -1.2180
13145SOL     OW41302   6.033   2.723   7.653 -0.5539  0.5670 -0.2078
13145SOL    HW141303   6.084   2.769   7.586  1.2386  0.6839  1.1524
13145SOL    HW241304   5.949   2.706   7.612  0.4374  0.7268 -2.4483
13146SOL     OW41305   5.491   5.211   8.615  0.6843 -0.0529 -0.0144
13146SOL    HW141306   5.441   5.221   8.696 -0.2358  0.3916 -0.6212
13146SOL    HW241307   5.502   5.116   8.605  0.0672 -0.1472  0.1905
13147SOL     OW41308   1.595   3.563   8.441  0.0168  0.0134 -0.8088
13147SOL    HW141309   1.681   3.552   8.401  0.2505  0.2378 -0.3672
13147SOL    HW241310   1.596   3.504   8.517 -0.0254  0.4183 -0.4930
13148SOL     OW41311   5.851   1.876   5.356 -0.0091  0.0158  0.3760
13148SOL    HW141312   5.896   1.830   5.426  1.1711  2.6315  1.4915
13148SOL    HW241313   5.762   1.888   5.388 -0.4372 -1.6318 -0.0775
13149SOL     OW41314   4.250   5.175   6.492  0.6075 -0.3031 -0.5193
13149SOL    HW141315   4.203   5.252   6.524 -0.2102 -1.0481  0.1118
13149SOL    HW241316   4.295   5.141   6.569 -0.2516 -1.3169 -0.4541
13150SOL     OW41317   2.175   4.640   0.254 -0.4169  0.5815  0.1912
13150SOL    HW141318   2.271   4.644   0.248 -0.2777  2.2357  2.1239
13150SOL    HW241319   2.146   4.730   0.235 -1.8876 -0.4357 -2.9881
13151SOL     OW41320   2.086   6.047   1.378 -0.1994 -0.3585  0.2624
13151SOL    HW141321   2.175   6.083   1.379 -0.3685  0.0618  0.5100
13151SOL    HW241322   2.076   6.003   1.462 -0.1766 -0.5286  0.1764
13152SOL     OW41323   5.475   4.774   1.064  0.1583  0.2063 -0.3319
13152SOL    HW141324   5.400   4.766   1.006  0.4663  1.2088 -0.8913
13152SOL    HW241325   5.473   4.865   1.094  1.0201  0.1906 -0.1917
13153SOL     OW41326   2.215   7.164   6.009  0.2249  0.0756  0.2314
13153SOL    HW141327   2.154   7.191   5.941  0.4737  0.5814  0.2025
13153SOL    HW241328   2.178   7.083   6.044 -1.2096  1.0626  1.1496
13154SOL     OW41329   0.246   7.818   5.664 -0.1030  0.3724 -0.1225
13154SOL    HW141330   0.200   7.890   5.706  2.6455  1.5254  1.1285
13154SOL    HW241331   0.193   7.741   5.684 -1.2995  1.5504  1.5296
13155SOL     OW41332   7.419   5.696   3.430 -0.1486 -0.4944  0.2942
13155SOL    HW141333   7.351   5.637   3.397 -3.0036  2.5512  0.1506
13155SOL    HW241334   7.443   5.660   3.515 -0.2121 -2.8941 -0.6255
13156SOL     OW41335   6.364   7.537   1.753 -0.4972 -0.0072 -0.1036
13156SOL    HW141336   6.315   7.618   1.740 -0.8446 -0.1799  0.1091
13156SOL    HW241337   6.421   7.556   1.828 -0.8627 -0.0808  0.2021
13157SOL     OW41338   6.116   5.012   1.004  0.1572 -0.2716 -0.0541
13157SOL    HW141339   6.034   4.979   1.042  0.4067 -0.1088  0.6251
13157SOL    HW241340   6.184   4.956   1.040  0.4332  0.0908 -0.0037
13158SOL     OW41341   2.462   8.028   2.633 -0.3517 -0.5770  0.0778
13158SOL    HW141342   2.524   8.018   2.705 -0.9659 -0.7089  0.6022
13158SOL    HW241343   2.405   8.100   2.660 -0.1558 -0.1562 -0.6020
13159SOL     OW41344   8.798   4.079   0.725 -0.1424  0.7247 -0.4452
13159SOL    HW141345   8.874   4.024   0.743  0.1129  1.0724 -0.4300
13159SOL    HW241346   8.832   4.169   0.731 -0.4313  0.8743 -0.9915
13160SOL     OW41347   4.078   0.561   8.065 -0.1193  0.3239  0.2321
13160SOL    HW141348   4.115   0.585   7.980 -1.4695 -0.6697 -0.6788
13160SOL    HW241349   4.121   0.478   8.086  1.8972  1.6364  1.6671
13161SOL     OW41350   6.275   3.641   0.737 -0.3489  0.4599  0.4774
13161SOL    HW141351   6.205   3.597   0.785 -0.8795  2.0021  1.1844
13161SOL    HW241352   6.254   3.626   0.645 -0.5378 -0.6828  0.6913
13162SOL     OW41353   3.338   3.400   2.108  0.0552 -0.3543  0.4873
13162SOL    HW141354   3.426   3.362   2.101  0.4852  0.4962  1.1348
13162SOL    HW241355   3.339   3.450   2.189 -0.0295  2.1648 -0.9454
13163SOL     OW41356   5.658   8.235   1.344  0.0724 -0.3270  0.7152
13163SOL    HW141357   5.589   8.240   1.410 -1.1212 -1.1209 -0.4280
13163SOL    HW241358   5.650   8.317   1.294 -0.8338 -0.9241 -0.1487
13164SOL     OW41359   1.194   4.011   7.879  0.0807 -0.3850 -0.4539
13164SOL    HW141360   1.230   4.081   7.825  0.4194 -0.8441 -0.8303
13164SOL    HW241361   1.169   4.054   7.960  2.4917 -0.1822  0.2783
13165SOL     OW41362   3.520   1.072   0.149 -0.4131  0.0176 -0.0722
13165SOL    HW141363   3.509   1.163   0.177 -0.9883  0.0673 -0.4382
13165SOL    HW241364   3.603   1.071   0.101 -1.2737  0.7718 -1.6739
13166SOL     OW41365   7.904   8.946   5.290  0.3628 -0.5601 -0.1315
13166SOL    HW141366   7.809   8.960   5.297  0.1887 -1.1203 -1.2155
13166SOL    HW241367   7.917   8.857   5.323  0.5090 -0.5150 -0.0667
13167SOL     OW41368   4.250   6.318   2.403 -0.1873  0.1977  0.3472
13167SOL    HW141369   4.301   6.370   2.465 -2.3765  1.8792  0.8797
13167SOL    HW241370   4.206   6.252   2.457 -1.5516  1.2292  0.5750
13168SOL     OW41371   2.972   5.292   0.386  0.0806  0.3731  0.0204
13168SOL    HW141372   3.023   5.350   0.328  1.3083  0.4398  1.1239
13168SOL    HW241373   2.976   5.207   0.344 -0.1593  0.6900 -0.6639
13169SOL     OW41374   5.241   0.504   3.904  0.2519 -0.0116 -0.3915
13169SOL    HW141375   5.260   0.444   3.976 -1.2405  1.1829  1.0755
13169SOL    HW241376   5.286   0.585   3.928 -1.6485  0.9464  0.1315
13170SOL     OW41377   6.813   8.694   8.914 -0.0920 -0.3712  0.4330
13170SOL    HW141378   6.767   8.759   8.967 -0.3982  0.1623 -0.4665
13170SOL    HW241379   6.744   8.646   8.868  0.2028  1.0396 -1.6239
13171SOL     OW41380   7.256   7.005   4.670  0.7848 -0.1254  0.1647
13171SOL    HW141381   7.320   7.053   4.723 -0.0297  0.1738  0.9073
13171SOL    HW241382   7.306   6.973   4.595  1.3743  1.9909 -0.4417
13172SOL     OW41383   8.140   2.417   2.290  0.1808  0.4326  0.5850
13172SOL    HW141384   8.176   2.333   2.318 -0.7435  0.1357  0.9368
13172SOL    HW241385   8.172   2.480   2.354 -0.9132 -0.0371  1.6492
13173SOL     OW41386   6.273   5.455   3.128  0.8831 -0.4932  0.4924
13173SOL    HW141387   6.356   5.497   3.108  2.6058 -2.9186  1.9225
13173SOL    HW241388   6.254   5.481   3.218 -0.3985  0.7136 -0.0984
13174SOL     OW41389   1.539   5.809   4.423 -0.8192  0.0524 -0.0693
13174SOL    HW141390   1.461   5.862   4.407 -1.4118 -0.4289  1.1116
13174SOL    HW241391   1.562   5.828   4.514  0.5452  0.3034 -0.4409
13175SOL     OW41392   0.722   5.190   2.101  0.7919  0.0678 -0.0146
13175SOL    HW141393   0.669   5.222   2.028 -0.8665  0.1266  1.1525
13175SOL    HW241394   0.699   5.098   2.110  2.2182 -0.3707 -0.5578
13176SOL     OW41395   8.960   6.847   7.564 -0.4547  0.0154 -0.5620
13176SOL    HW141396   9.041   6.891   7.537 -1.2841  0.7625 -1.9760
13176SOL    HW241397   8.913   6.912   7.617 -0.2686 -0.3145  0.0149
13177SOL     OW41398   8.576   8.693   5.423 -0.0690 -0.3119 -0.0674
13177SOL    HW141399   8.503   8.717   5.480  1.3154 -0.5214  1.9119
13177SOL    HW241400   8.634   8.770   5.424  0.5357 -0.7554 -0.2257
13178SOL     OW41401   7.104   5.410   4.493  0.3295  0.3163 -0.2236
13178SOL    HW141402   7.079   5.495   4.531 -0.2301 -0.0194  0.1714
13178SOL    HW241403   7.165   5.432   4.422  0.1316  1.0499 -0.1696
13179SOL     OW41404   8.978   2.598   1.782  0.2307 -0.0741 -0.4334
13179SOL    HW141405   9.001   2.551   1.862  1.0216 -0.8889 -1.1181
13179SOL    HW241406   8.913   2.543   1.740  0.3847 -0.0375 -0.7220
13180SOL     OW41407   4.611   2.218   0.475 -0.0265  0.2592 -0.3169
13180SOL    HW141408   4.574   2.137   0.509 -0.1453  0.3726 -0.1743
13180SOL    HW241409   4.595   2.215   0.381 -0.5249  0.3760 -0.2374
13181SOL     OW41410   2.940   6.100   5.836  0.4283 -0.7263 -0.1349
13181SOL    HW141411   2.978   6.013   5.823  1.2243 -0.5334  0.8102
13181SOL    HW241412   2.954   6.145   5.753 -0.3475 -1.6130 -0.7760
13182SOL     OW41413   6.267   4.263   0.688  0.0830 -0.0185 -0.4237
13182SOL    HW141414   6.329   4.203   0.647  0.6296  1.4120 -1.8229
13182SOL    HW241415   6.303   4.280   0.775 -0.4129 -2.1284  0.2349
13183SOL     OW41416   8.342   8.398   8.634  0.0086  0.2044  0.0680
13183SOL    HW141417   8.373   8.316   8.671 -2.3021 -0.8846 -0.2005
13183SOL    HW241418   8.286   8.372   8.561 -0.1875  2.0573 -0.5064
13184SOL     OW41419   0.924   6.832   1.668 -0.2896 -0.3352  0.1464
13184SOL    HW141420   0.959   6.916   1.699  0.3816 -0.2969 -0.6804
13184SOL    HW241421   0.891   6.850   1.580  0.4636 -1.0719 -0.3064
13185SOL     OW41422   2.224   6.487   3.928 -0.0411  0.1459  0.1756
13185SOL    HW141423   2.244   6.579   3.909 -0.4201  0.6160  1.8384
13185SOL    HW241424   2.205   6.486   4.022 -1.4286 -1.4027 -0.0760
13186SOL     OW41425   3.402   7.276   3.189  0.2682 -0.1301  0.1485
13186SOL    HW141426   3.424   7.246   3.101 -0.8636  0.7114 -0.4428
13186SOL    HW241427   3.429   7.368   3.191 -2.2176  0.6806 -0.3072
13187SOL     OW41428   2.514   2.512   7.635  0.2373  0.5724  0.6208
13187SOL    HW141429   2.443   2.539   7.693 -1.2079 -1.2124 -0.1815
13187SOL    HW241430   2.523   2.418   7.652 -0.1992  0.0050 -1.9148
13188SOL     OW41431   0.207   7.908   6.494 -0.8377  0.6308  0.1762
13188SOL    HW141432   0.201   7.824   6.448 -0.0890 -0.7966  2.5041
13188SOL    HW241433   0.289   7.947   6.464 -0.9911  0.3455 -0.6262
13189SOL     OW41434   4.618   8.717   1.783 -0.8227  0.2730  0.3919
13189SOL    HW141435   4.657   8.771   1.852 -0.1645  0.1497  0.1171
13189SOL    HW241436   4.663   8.743   1.703 -1.5263  0.3570  0.0107
13190SOL     OW41437   2.164   2.050   3.988 -0.0777  0.5342 -0.2439
13190SOL    HW141438   2.155   2.145   3.997  1.7653  0.6943  0.2488
13190SOL    HW241439   2.222   2.038   3.913 -0.7468 -0.2443 -0.6583
13191SOL     OW41440   1.512   2.309   5.020 -0.1086  0.3201  0.6190
13191SOL    HW141441   1.566   2.235   5.048  0.9637  1.0696  0.5736
13191SOL    HW241442   1.424   2.273   5.014  0.5148 -1.1625 -0.1698
13192SOL     OW41443   0.397   3.512   6.420 -0.3145 -0.0063 -0.4899
13192SOL    HW141444   0.358   3.591   6.383 -1.6810  0.0346  0.9436
13192SOL    HW241445   0.352   3.440   6.377 -2.1307  0.0403  1.1926
13193SOL     OW41446   4.722   7.416   2.870  0.5770  0.1696  0.2860
13193SOL    HW141447   4.806   7.461   2.871  0.4571  0.3967  0.9529
13193SOL    HW241448   4.731   7.348   2.803  1.2469  0.2695  0.2720
13194SOL     OW41449   5.611   6.468   2.026 -0.5988  0.9617 -0.6042
13194SOL    HW141450   5.583   6.558   2.039 -1.8388  0.3725  1.0726
13194SOL    HW241451   5.530   6.418   2.020  0.0742 -0.0692 -1.4431
13195SOL     OW41452   2.974   7.125   1.791 -0.3331 -0.0902 -0.0369
13195SOL    HW141453   2.941   7.072   1.719  1.6365  1.2041 -2.0065
13195SOL    HW241454   3.030   7.065   1.841 -0.9249 -0.7501 -0.1522
13196SOL     OW41455   2.915   4.638   0.304  0.0291  0.2430  0.0765
13196SOL    HW141456   2.953   4.570   0.249  0.4860  0.1820  0.4669
13196SOL    HW241457   2.989   4.693   0.329 -0.5554  2.1441 -1.9327
13197SOL     OW41458   2.900   3.222   1.636 -0.2807 -0.3065 -0.1967
13197SOL    HW141459   2.979   3.175   1.663  0.3754 -0.6699 -2.5756
13197SOL    HW241460   2.831   3.187   1.692  0.7466 -1.9039  0.1199
13198SOL     OW41461   2.514   0.298   5.981  0.1081  0.6811  0.3604
13198SOL    HW141462   2.531   0.385   5.945 -1.2183  0.9556  0.3440
13198SOL    HW241463   2.421   0.298   6.000  0.0283 -0.8457  0.0886
13199SOL     OW41464   8.992   1.077   8.583  0.0863  0.1508  0.3123
13199SOL    HW141465   9.041   1.155   8.608  1.0116 -0.4266  0.3530
13199SOL    HW241466   9.053   1.005   8.596 -0.6610 -0.5578  0.0092
13200SOL     OW41467   0.645   0.561   4.710  0.9407 -0.3239 -0.1960
13200SOL    HW141468   0.713   0.512   4.664 -0.0160 -2.5781  0.6582
13200SOL    HW241469   0.564   0.512   4.695 -0.0497  0.8754  0.8922
13201SOL     OW41470   0.612   3.853   3.572 -0.2088  0.0374 -0.4291
13201SOL    HW141471   0.587   3.900   3.652 -0.5512  0.5620 -0.8428
13201SOL    HW241472   0.579   3.764   3.586 -1.6160  0.4988 -0.6094
13202SOL     OW41473   8.742   6.428   3.683  0.2604  0.4480  0.2158
13202SOL    HW141474   8.747   6.364   3.754 -4.5022  0.8630  1.2334
13202SOL    HW241475   8.728   6.511   3.727  0.1966  1.2022 -1.1828
13203SOL     OW41476   4.230   4.301   2.635 -0.4943 -0.1178 -0.2726
13203SOL    HW141477   4.254   4.381   2.681  0.8107 -0.6125 -0.0309
13203SOL    HW241478   4.314   4.256   2.621 -1.0120 -0.6128 -1.9486
13204SOL     OW41479   1.325   7.659   1.723 -0.3238 -0.8060 -0.5934
13204SOL    HW141480   1.357   7.636   1.636  1.1519  2.5312 -1.0778
13204SOL    HW241481   1.402   7.692   1.769 -1.6141  0.1537  1.0005
13205SOL     OW41482   7.690   2.315   2.734 -0.0487  0.3357 -0.5701
13205SOL    HW141483   7.702   2.406   2.761  1.7965  0.4606 -1.6961
13205SOL    HW241484   7.728   2.310   2.647 -0.1283 -1.5176 -0.5378
13206SOL     OW41485   2.394   4.369   4.075 -0.0324  0.7238 -0.5023
13206SOL    HW141486   2.323   4.331   4.127  1.4434 -0.1962  0.9292
13206SOL    HW241487   2.404   4.310   4.001 -1.6624  1.6398 -1.5191
13207SOL     OW41488   4.866   0.711   0.097 -0.0496 -0.5555  0.1575
13207SOL    HW141489   4.916   0.791   0.115  0.9625 -1.1648  0.0958
13207SOL    HW241490   4.922   0.661   0.037 -0.8955 -1.0966 -0.1941
13208SOL     OW41491   8.044   8.708   5.090 -0.3534 -0.8300 -0.0899
13208SOL    HW141492   8.066   8.758   5.011 -0.3641  0.5272  0.7316
13208SOL    HW241493   8.127   8.695   5.135 -0.7058  1.6119  1.4651
13209SOL     OW41494   8.197   4.814   7.746 -0.4220  0.1407  0.1204
13209SOL    HW141495   8.131   4.768   7.693  0.3203  1.3121 -1.9475
13209SOL    HW241496   8.267   4.750   7.757 -1.0709 -0.4872  0.7005
13210SOL     OW41497   0.282   3.934   8.639 -0.4197  0.1493  0.6136
13210SOL    HW141498   0.295   3.839   8.634 -2.5054 -0.0929 -2.0377
13210SOL    HW241499   0.369   3.971   8.620 -0.3403 -1.2947 -2.4075
13211SOL     OW41500   8.613   0.451   6.283  0.0648 -0.0926 -0.0315
13211SOL    HW141501   8.574   0.376   6.328  1.5212  0.1476  1.7344
13211SOL    HW241502   8.550   0.522   6.295 -0.4034 -0.5121  0.0030
13212SOL     OW41503   8.125   6.808   3.683  0.3784  0.4215 -0.1332
13212SOL    HW141504   8.085   6.738   3.735  2.6055 -0.3339  0.6623
13212SOL    HW241505   8.072   6.885   3.703  0.9495  0.1035  3.0794
13213SOL     OW41506   7.260   7.134   8.778 -0.2666 -0.1457 -0.2111
13213SOL    HW141507   7.178   7.181   8.789  0.1917  0.5679  0.2356
13213SOL    HW241508   7.275   7.133   8.684 -0.5879  0.0594 -0.2644
13214SOL     OW41509   8.185   7.707   6.124 -0.5408 -0.1378  0.2649
13214SOL    HW141510   8.090   7.721   6.124 -0.5034  0.5970 -2.0397
13214SOL    HW241511   8.210   7.715   6.032  2.0823  1.8854  1.0304
13215SOL     OW41512   8.514   3.546   5.179  0.1623 -0.1533 -0.0816
13215SOL    HW141513   8.477   3.498   5.253 -0.3579  1.8053  0.9918
13215SOL    HW241514   8.571   3.482   5.135 -1.3924 -2.0790  0.5342
13216SOL     OW41515   3.247   5.306   1.861  0.4064 -0.3552  0.1089
13216SOL    HW141516   3.318   5.325   1.922  0.3476  1.1141 -0.2616
13216SOL    HW241517   3.184   5.257   1.914  1.2554 -0.8573  0.6844
13217SOL     OW41518   0.037   2.636   0.287  0.0671 -0.0883 -0.0542
13217SOL    HW141519   0.025   2.570   0.218 -2.1119 -1.1506  1.2270
13217SOL    HW241520   0.126   2.670   0.273  0.4331 -1.6978 -2.1204
13218SOL     OW41521   7.292   8.074   8.724  0.0701 -0.0553 -0.0036
13218SOL    HW141522   7.329   7.990   8.751  0.5707  0.0960 -0.2161
13218SOL    HW241523   7.337   8.096   8.643  0.3036  0.6554  0.3033
13219SOL     OW41524   0.351   1.009   8.049  0.3239 -0.0179  0.4189
13219SOL    HW141525   0.446   0.997   8.056  1.2125  2.8364 -3.3602
13219SOL    HW241526   0.321   0.932   8.001  0.4420 -1.4733  2.5694
13220SOL     OW41527   6.805   5.857   5.610  0.0967 -0.0646  0.2606
13220SOL    HW141528   6.746   5.917   5.565 -1.3292 -0.7019  1.1788
13220SOL    HW241529   6.826   5.902   5.692 -0.7599 -0.6565  0.8298
13221SOL     OW41530   8.815   7.868   5.752 -0.3912 -0.0814  0.2168
13221SOL    HW141531   8.902   7.882   5.715 -0.3331 -1.6809 -0.3366
13221SOL    HW241532   8.830   7.812   5.829 -0.9126 -0.2285  0.2154
13222SOL     OW41533   3.043   4.136   3.143 -0.7823  0.0712 -0.1922
13222SOL    HW141534   2.966   4.090   3.176 -0.7725  0.2723  0.1167
13222SOL    HW241535   3.009   4.218   3.107 -0.5121  1.1256  1.8213
13223SOL     OW41536   2.294   5.549   2.858  0.1076 -0.1490  0.0661
13223SOL    HW141537   2.265   5.532   2.769  0.3587  0.3786 -0.1177
13223SOL    HW241538   2.379   5.592   2.848  0.6342 -1.0455  0.5837
13224SOL     OW41539   1.732   6.213   3.168 -0.7551  0.2150 -1.0263
13224SOL    HW141540   1.784   6.176   3.240  1.7136  0.4324 -2.5510
13224SOL    HW241541   1.705   6.137   3.116  1.0615  0.2019 -2.0688
13225SOL     OW41542   4.847   8.695   1.302  0.0274  0.1975 -0.3592
13225SOL    HW141543   4.843   8.664   1.212  1.3504  0.9363 -0.6970
13225SOL    HW241544   4.853   8.616   1.355 -2.1142 -0.3092 -0.7844
13226SOL     OW41545   1.162   2.133   3.340  0.0465  0.2682  0.3307
13226SOL    HW141546   1.115   2.131   3.424  0.5666 -0.5043  0.6153
13226SOL    HW241547   1.243   2.086   3.357  0.4308  0.6337 -0.4536
13227SOL     OW41548   0.227   4.849   6.872  0.2685 -0.2882 -0.4168
13227SOL    HW141549   0.179   4.847   6.789  1.8975 -0.3596 -1.4112
13227SOL    HW241550   0.200   4.931   6.913 -1.2591 -0.6887 -0.5618
13228SOL     OW41551   3.561   7.092   5.274 -0.6818 -0.1139  0.3880
13228SOL    HW141552   3.476   7.137   5.272 -1.0746 -0.8401 -1.7410
13228SOL    HW241553   3.538   6.999   5.279 -0.0260 -0.3185 -0.2731
13229SOL     OW41554   7.987   6.039   7.897  0.3968 -0.1964  0.5794
13229SOL    HW141555   8.059   6.007   7.952  0.4886  0.3693  0.7991
13229SOL    HW241556   8.030   6.073   7.819  0.1453 -2.7756 -0.7916
13230SOL     OW41557   4.657   5.037   0.942 -0.2162 -0.1968 -0.5277
13230SOL    HW141558   4.622   4.954   0.908  1.9012 -0.8654 -1.2206
13230SOL    HW241559   4.656   5.025   1.037  0.0889 -1.0321 -0.6213
13231SOL     OW41560   3.383   7.446   2.456  0.4581  0.0466  0.1913
13231SOL    HW141561   3.344   7.362   2.480 -0.1133 -0.0524 -1.0429
13231SOL    HW241562   3.314   7.510   2.473  0.8794  0.2865  1.0897
13232SOL     OW41563   3.216   6.848   6.106  0.8686  0.2245 -0.5008
13232SOL    HW141564   3.298   6.896   6.091  1.7038 -0.3234  1.9465
13232SOL    HW241565   3.243   6.766   6.148 -0.8581 -0.5249 -0.7551
13233SOL     OW41566   1.339   0.997   7.560  0.4723  0.1315 -0.2437
13233SOL    HW141567   1.315   0.931   7.494  1.1692  0.1808 -0.5548
13233SOL    HW241568   1.279   0.980   7.633  0.5333 -0.7466 -0.3811
13234SOL     OW41569   0.487   0.435   7.189  0.1327  0.1941 -0.3071
13234SOL    HW141570   0.514   0.345   7.171 -0.8051  0.0102 -0.9003
13234SOL    HW241571   0.391   0.430   7.191  0.0938  1.0917  0.1418
13235SOL     OW41572   3.846   0.577   4.235  0.1369  0.3000 -0.0583
13235SOL    HW141573   3.799   0.494   4.243  0.8319 -0.0877  0.0500
13235SOL    HW241574   3.830   0.605   4.145  0.5079 -0.3170 -0.3187
13236SOL     OW41575   2.828   6.816   3.062  0.3648 -0.8064  0.4113
13236SOL    HW141576   2.765   6.757   3.102 -0.1097 -1.3259 -1.0436
13236SOL    HW241577   2.846   6.778   2.976  0.4233  0.8819 -0.3734
13237SOL     OW41578   6.255   0.873   5.516 -0.0594 -0.4870  0.7702
13237SOL    HW141579   6.332   0.913   5.475 -0.7323  0.3736  0.3127
13237SOL    HW241580   6.198   0.848   5.443 -1.5625  1.6473  1.1196
13238SOL     OW41581   2.707   7.033   4.128 -0.6498 -0.0277 -0.1948
13238SOL    HW141582   2.724   6.940   4.112 -0.8098 -0.0480 -0.2504
13238SOL    HW241583   2.661   7.035   4.212 -0.4505  0.0202 -0.0850
13239SOL     OW41584   0.259   7.631   1.479 -0.7521  0.2789 -0.2063
13239SOL    HW141585   0.256   7.553   1.424  1.2341 -0.0517  0.0822
13239SOL    HW241586   0.211   7.698   1.429 -1.3490 -0.7570 -1.0525
13240SOL     OW41587   2.130   6.940   1.150 -0.3415 -0.5841  0.0229
13240SOL    HW141588   2.224   6.925   1.160 -0.1208 -0.2434 -1.3918
13240SOL    HW241589   2.114   7.022   1.197 -0.1320 -1.1484  1.1115
13241SOL     OW41590   7.127   8.835   5.012 -0.3788  0.3350 -0.0707
13241SOL    HW141591   7.216   8.844   5.045 -1.0178 -0.8129  2.2116
13241SOL    HW241592   7.110   8.741   5.014 -1.8142  0.5682  0.1240
13242SOL     OW41593   3.389   3.932   2.139  0.3355  0.0668 -0.2895
13242SOL    HW141594   3.468   3.978   2.167 -0.7285  1.1198  1.1052
13242SOL    HW241595   3.324   3.950   2.207 -1.4846  0.2423 -1.9519
13243SOL     OW41596   2.084   6.702   5.570 -0.0476  0.5670 -0.1762
13243SOL    HW141597   2.080   6.616   5.528  1.7316 -0.6569  1.8975
13243SOL    HW241598   2.121   6.760   5.503 -0.6048 -0.4302 -1.3873
13244SOL     OW41599   7.492   4.049   4.954 -0.3441  0.5931  0.4474
13244SOL    HW141600   7.434   4.096   5.014 -1.8454 -0.5795 -0.0268
13244SOL    HW241601   7.452   4.061   4.868  1.4467  1.7265 -0.2781
13245SOL     OW41602   4.309   5.460   0.777  0.6767 -0.6650 -0.0821
13245SOL    HW141603   4.237   5.429   0.723  1.4755 -1.7450 -0.5458
13245SOL    HW241604   4.343   5.382   0.820  1.2948 -0.1032  0.4762
13246SOL     OW41605   4.907   8.224   6.236  0.7120 -0.3020  0.1490
13246SOL    HW141606   4.978   8.288   6.245 -0.5593  1.1760  0.0529
13246SOL    HW241607   4.839   8.270   6.187 -0.0597 -1.9126 -0.3686
13247SOL     OW41608   6.794   1.421   6.130 -0.1813  0.2613 -0.4741
13247SOL    HW141609   6.830   1.454   6.047 -1.9780 -2.2044 -2.4029
13247SOL    HW241610   6.827   1.332   6.136 -1.8988 -0.3547  0.2629
13248SOL     OW41611   2.625   8.161   1.644 -0.4047 -0.3407  0.6671
13248SOL    HW141612   2.566   8.109   1.590 -1.4644 -0.6142  2.0127
13248SOL    HW241613   2.623   8.249   1.606 -0.8676 -0.6006  0.0926
13249SOL     OW41614   5.809   5.813   0.647  0.1246  0.3184  0.0209
13249SOL    HW141615   5.816   5.897   0.602  1.9016 -0.1925 -0.7539
13249SOL    HW241616   5.744   5.764   0.597 -0.0135  0.7865 -0.2622
13250SOL     OW41617   1.393   3.418   0.484  0.1527  0.1903  0.2386
13250SOL    HW141618   1.476   3.378   0.458 -0.8308 -2.5755  0.9579
13250SOL    HW241619   1.336   3.410   0.407 -0.5880 -1.5714  0.9038
13251SOL     OW41620   4.437   6.993   2.285 -0.6920 -0.4101  0.3485
13251SOL    HW141621   4.489   7.049   2.228  0.4828 -0.3060  1.4715
13251SOL    HW241622   4.445   6.906   2.247  0.9313 -0.5274  0.8646
13252SOL     OW41623   4.927   3.248   5.144 -0.2874  0.5071  0.4237
13252SOL    HW141624   5.014   3.219   5.115  0.2036  1.0493  1.3269
13252SOL    HW241625   4.929   3.343   5.135  0.3665  0.8660  3.4268
13253SOL     OW41626   3.434   4.638   5.557 -0.2176  0.0054  0.0133
13253SOL    HW141627   3.451   4.700   5.629  1.6985  1.8978 -1.8869
13253SOL    HW241628   3.385   4.690   5.493 -0.5537 -1.1676 -0.6982
13254SOL     OW41629   5.605   7.274   5.794 -0.4155  0.0215  0.3250
13254SOL    HW141630   5.598   7.324   5.875 -0.6742 -0.7523  0.7826
13254SOL    HW241631   5.518   7.236   5.782 -0.0653 -0.7689  0.2676
13255SOL     OW41632   4.406   7.682   1.434 -0.3063 -0.3011  0.2478
13255SOL    HW141633   4.345   7.631   1.381 -0.7836 -0.2591  0.7452
13255SOL    HW241634   4.362   7.767   1.446 -0.6527 -0.6444  1.5199
13256SOL     OW41635   3.072   7.318   2.713 -0.0899 -0.4297  0.2897
13256SOL    HW141636   3.000   7.265   2.679  0.2417 -0.4265 -0.4458
13256SOL    HW241637   3.151   7.270   2.688  0.1785 -0.2338  0.7455
13257SOL     OW41638   5.549   1.230   2.223 -0.1628  0.0078  0.3919
13257SOL    HW141639   5.486   1.291   2.261 -1.9277 -1.3058 -0.2787
13257SOL    HW241640   5.495   1.158   2.190  1.7501 -1.4013  0.1946
13258SOL     OW41641   6.260   0.365   1.765 -0.0848  0.5188  0.0338
13258SOL    HW141642   6.340   0.329   1.803 -0.1976  1.7152  1.4738
13258SOL    HW241643   6.283   0.383   1.673  0.9187 -0.2465  0.1198
13259SOL     OW41644   8.449   7.341   8.096  0.3556  0.0843 -0.1529
13259SOL    HW141645   8.525   7.321   8.151  0.0064  0.6967  0.5645
13259SOL    HW241646   8.478   7.415   8.041  0.2569  0.3625  0.1694
13260SOL     OW41647   4.661   7.130   4.279  0.0825 -0.0352  0.1468
13260SOL    HW141648   4.663   7.207   4.221  0.3577 -0.2565 -0.1408
13260SOL    HW241649   4.709   7.157   4.357 -1.4063  0.7104  0.8376
13261SOL     OW41650   6.062   4.048   4.188  0.3015 -0.3195 -0.4611
13261SOL    HW141651   6.140   3.997   4.162  0.9678  0.0439  0.7488
13261SOL    HW241652   6.089   4.093   4.268 -0.8269  0.6472 -0.6077
13262SOL     OW41653   3.762   7.774   5.345  0.0033  0.2807  0.1524
13262SOL    HW141654   3.793   7.785   5.435 -1.6928 -1.4462  1.0215
13262SOL    HW241655   3.681   7.825   5.341  1.1870  2.1839 -1.1429
13263SOL     OW41656   4.306   1.680   0.813 -1.0416  0.3492  0.1016
13263SOL    HW141657   4.301   1.724   0.728 -1.8157 -1.3172 -0.7606
13263SOL    HW241658   4.389   1.632   0.811 -0.5310  1.1496  0.7691
13264SOL     OW41659   1.341   7.211   7.937 -0.0860 -0.3426  0.0863
13264SOL    HW141660   1.367   7.130   7.980 -0.3472 -0.1443  0.6266
13264SOL    HW241661   1.283   7.254   8.000  0.2090  0.3573 -0.1107
13265SOL     OW41662   4.074   0.095   3.763 -0.4878  0.6328 -0.0106
13265SOL    HW141663   4.085   0.132   3.851 -1.5266  0.9719 -0.0071
13265SOL    HW241664   4.147   0.131   3.713 -0.3957  1.1645  0.4830
13266SOL     OW41665   2.581   8.347   6.142 -0.2904  0.7162  0.3639
13266SOL    HW141666   2.654   8.287   6.124 -1.0799 -0.3204  0.5021
13266SOL    HW241667   2.622   8.423   6.182  0.6970  0.0363  0.6953
13267SOL     OW41668   0.885   6.659   5.076 -0.2523 -0.1592  0.1188
13267SOL    HW141669   0.956   6.712   5.041 -0.1577 -0.2669  0.1499
13267SOL    HW241670   0.898   6.572   5.039 -0.9701  0.0757 -0.7272
13268SOL     OW41671   4.788   3.032   5.042 -0.2481 -0.4591  0.1526
13268SOL    HW141672   4.707   3.040   5.093 -0.8432 -0.1798 -0.8116
13268SOL    HW241673   4.825   3.121   5.043 -0.0858 -0.5271  0.3645
13269SOL     OW41674   5.503   1.472   8.024 -0.0856 -0.2775 -0.0931
13269SOL    HW141675   5.509   1.377   8.029  0.9545 -0.2412 -0.4895
13269SOL    HW241676   5.589   1.503   8.054  0.1230  0.4795 -1.4034
13270SOL     OW41677   0.543   6.292   6.662  0.7196  0.7046  0.7026
13270SOL    HW141678   0.502   6.298   6.576  1.8477 -0.5113  0.0357
13270SOL    HW241679   0.574   6.381   6.680  0.4575  0.9749 -0.1327
13271SOL     OW41680   4.195   7.270   5.560 -0.2942  0.3540  0.0526
13271SOL    HW141681   4.103   7.243   5.557  0.0454 -1.0370  1.0063
13271SOL    HW241682   4.196   7.357   5.522 -2.0299  0.4290  0.1169
13272SOL     OW41683   5.357   7.016   1.388 -0.5062 -0.3296  0.3782
13272SOL    HW141684   5.310   6.932   1.384 -2.7412  0.8864 -1.1323
13272SOL    HW241685   5.437   7.002   1.338 -1.6001 -1.1781 -1.2281
13273SOL     OW41686   4.610   7.834   7.604 -0.0427  0.2300 -0.1114
13273SOL    HW141687   4.515   7.830   7.615 -0.1240 -2.2864 -1.0509
13273SOL    HW241688   4.622   7.877   7.520 -0.3945 -0.0826 -0.3271
13274SOL     OW41689   5.905   5.006   1.775 -0.0106  0.7728 -0.2515
13274SOL    HW141690   5.834   4.963   1.822 -0.0969  2.4753  1.2640
13274SOL    HW241691   5.973   4.938   1.769 -0.9130 -0.2059  0.2351
13275SOL     OW41692   4.900   0.386   5.173  0.5293  0.4591  0.4003
13275SOL    HW141693   4.965   0.447   5.140 -0.1665  1.3552  0.6493
13275SOL    HW241694   4.914   0.384   5.268  0.5749  0.2001  0.3891
13276SOL     OW41695   1.450   3.063   7.744 -0.0773 -0.4911  0.1743
13276SOL    HW141696   1.527   3.117   7.724 -0.1165 -0.1647  0.8402
13276SOL    HW241697   1.416   3.036   7.659 -0.1204  0.6409 -0.1885
13277SOL     OW41698   5.733   3.628   2.290  0.0818 -0.4131  0.1926
13277SOL    HW141699   5.827   3.632   2.274 -0.1028  1.8270 -0.6551
13277SOL    HW241700   5.704   3.550   2.242  1.4001 -0.8132  0.0011
13278SOL     OW41701   7.867   7.805   0.880  0.1361 -0.4109 -0.5588
13278SOL    HW141702   7.835   7.801   0.970  1.0835 -0.4070 -0.2143
13278SOL    HW241703   7.889   7.714   0.859 -0.2362 -0.4356 -0.8464
13279SOL     OW41704   2.681   6.003   5.368  0.1546 -0.1671  0.4378
13279SOL    HW141705   2.683   5.909   5.382  0.1033 -0.5314 -1.5988
13279SOL    HW241706   2.681   6.013   5.272  1.4452  1.9107  0.5777
13280SOL     OW41707   7.221   7.919   0.911  0.1553  0.7247 -0.7666
13280SOL    HW141708   7.213   7.836   0.958 -0.5951  0.3238 -1.5812
13280SOL    HW241709   7.313   7.943   0.921 -0.0316  0.8015  1.1418
13281SOL     OW41710   1.726   0.862   1.202 -0.2187 -0.0965  0.3298
13281SOL    HW141711   1.797   0.800   1.186 -0.3663 -0.0342 -0.5843
13281SOL    HW241712   1.669   0.818   1.265  0.4448 -0.2783  0.8197
13282SOL     OW41713   1.901   0.450   7.638 -0.2347  0.1288  0.4161
13282SOL    HW141714   1.858   0.524   7.596 -1.3227 -0.9763 -0.5034
13282SOL    HW241715   1.834   0.382   7.641  0.9624 -1.0985  0.4671
13283SOL     OW41716   6.392   1.634   8.159 -0.7581 -0.1769  0.4255
13283SOL    HW141717   6.305   1.594   8.170  0.3599 -4.1755 -2.7802
13283SOL    HW241718   6.450   1.581   8.213  0.0277  1.0653  0.8339
13284SOL     OW41719   3.558   8.026   4.888 -0.0677  0.3986 -1.1649
13284SOL    HW141720   3.596   7.972   4.819  1.8015  1.2793 -0.8970
13284SOL    HW241721   3.518   7.963   4.948  2.1356 -0.7420 -0.7966
13285SOL     OW41722   8.085   0.658   0.711  0.2544  0.2880  0.3095
13285SOL    HW141723   8.017   0.714   0.674 -1.6144 -2.0220 -0.0671
13285SOL    HW241724   8.159   0.667   0.651 -0.6434  0.9948 -0.7453
13286SOL     OW41725   7.944   7.058   2.731 -0.3344  0.1080 -0.3085
13286SOL    HW141726   7.948   6.971   2.770  1.9468  0.6584  0.8575
13286SOL    HW241727   7.988   7.048   2.647 -0.5480  0.0460 -0.4151
13287SOL     OW41728   1.116   4.745   4.763  0.1092  0.1234 -0.2332
13287SOL    HW141729   1.193   4.688   4.757 -0.4310 -1.0914  2.6692
13287SOL    HW241730   1.081   4.747   4.674  2.4194 -0.7987 -1.2488
13288SOL     OW41731   0.572   8.524   8.005  0.3161  0.3791 -0.3425
13288SOL    HW141732   0.586   8.430   8.000 -1.4357  0.1136 -0.9094
13288SOL    HW241733   0.659   8.560   8.024  1.0621 -1.3122 -0.3515
13289SOL     OW41734   3.379   7.484   5.929 -0.1030  0.3184 -0.2515
13289SOL    HW141735   3.466   7.447   5.942  0.2728  1.3528  0.3305
13289SOL    HW241736   3.354   7.458   5.841  2.1154  2.5648 -1.6740
13290SOL     OW41737   5.328   8.170   6.902 -0.0303  0.2951  0.3869
13290SOL    HW141738   5.415   8.132   6.887 -0.3180 -0.2502  0.0447
13290SOL    HW241739   5.285   8.165   6.816 -0.0187  1.5825  0.2803
13291SOL     OW41740   4.281   6.132   4.656 -0.4492  0.4161  0.1339
13291SOL    HW141741   4.311   6.093   4.574 -1.9272  1.1165 -0.7784
13291SOL    HW241742   4.201   6.179   4.632 -0.5585  1.1644  1.8630
13292SOL     OW41743   5.347   8.298   0.790 -0.4946 -0.1593  0.4153
13292SOL    HW141744   5.411   8.357   0.830 -1.1755  1.4935 -0.8249
13292SOL    HW241745   5.380   8.283   0.701 -1.2555 -0.1732  0.1256
13293SOL     OW41746   0.257   1.747   6.883  0.2398  0.1554 -0.4999
13293SOL    HW141747   0.299   1.803   6.817  0.6020  0.1202 -0.3008
13293SOL    HW241748   0.186   1.800   6.918 -0.1195  0.0811 -1.1015
13294SOL     OW41749   1.894   7.913   5.832  0.1996 -0.3613  0.1357
13294SOL    HW141750   1.965   7.865   5.789  1.9997  1.7973  0.5362
13294SOL    HW241751   1.925   7.926   5.922 -0.4149  1.1320  0.1589
13295SOL     OW41752   0.690   6.400   3.236 -0.7633 -0.1127 -0.1556
13295SOL    HW141753   0.775   6.355   3.241 -2.1631 -2.9159 -0.0293
13295SOL    HW241754   0.678   6.437   3.324  0.6925  1.1914 -0.4439
13296SOL     OW41755   7.354   2.864   6.678 -0.5217  0.2380  0.5615
13296SOL    HW141756   7.387   2.944   6.719  0.5730  0.9615 -1.5583
13296SOL    HW241757   7.395   2.863   6.592 -0.3971 -2.7194  0.5541
13297SOL     OW41758   4.974   2.432   4.655 -0.4373 -0.1661 -0.4136
13297SOL    HW141759   4.937   2.510   4.697 -0.3951  0.1307 -0.9174
13297SOL    HW241760   4.946   2.359   4.711  2.0278  0.4427  1.8181
13298SOL     OW41761   1.856   7.642   4.620 -0.0331 -0.1473 -0.1857
13298SOL    HW141762   1.887   7.552   4.629 -0.5319 -0.2076  1.1580
13298SOL    HW241763   1.774   7.644   4.669 -0.4307  0.8545 -0.8604
13299SOL     OW41764   4.964   4.137   0.956 -0.5472 -0.2694 -0.5242
13299SOL    HW141765   4.894   4.123   0.892 -0.4464 -2.2135 -0.2662
13299SOL    HW241766   4.918   4.150   1.039 -0.6246 -0.6497 -0.5062
13300SOL     OW41767   5.570   4.608   0.587 -0.0089  0.1581 -0.6404
13300SOL    HW141768   5.547   4.672   0.655 -1.0782 -1.8423  0.9731
13300SOL    HW241769   5.487   4.564   0.567  0.7533 -0.9323 -1.4860
13301SOL     OW41770   2.012   0.364   6.352  0.4815  0.1323 -0.1812
13301SOL    HW141771   1.939   0.426   6.346  0.9779  0.5846 -2.6789
13301SOL    HW241772   2.070   0.401   6.419 -1.9965 -0.8251  2.7264
13302SOL     OW41773   1.478   3.930   4.993  0.2512  0.0621 -0.0200
13302SOL    HW141774   1.529   3.934   5.074  0.7446  0.6674 -0.3475
13302SOL    HW241775   1.533   3.882   4.931  0.5302  0.8860 -0.4350
13303SOL     OW41776   1.235   1.261   4.593  0.1482  0.0424 -0.0388
13303SOL    HW141777   1.195   1.300   4.516 -1.1562 -0.5426  0.3200
13303SOL    HW241778   1.162   1.227   4.644  1.1758 -2.7085 -0.2215
13304SOL     OW41779   7.373   4.238   6.753  0.6198  0.4692  0.2416
13304SOL    HW141780   7.384   4.328   6.721  0.8111  0.7101  0.9836
13304SOL    HW241781   7.461   4.201   6.752  0.4393  0.0230 -0.8088
13305SOL     OW41782   7.162   8.244   1.211  0.1133 -0.2538  0.1054
13305SOL    HW141783   7.084   8.283   1.250 -0.5252 -1.7755  0.4342
13305SOL    HW241784   7.198   8.313   1.155 -0.8328  0.8436  0.8061
13306SOL     OW41785   4.605   5.603   1.293 -0.6348  0.0418  0.2184
13306SOL    HW141786   4.672   5.548   1.254 -1.2378 -0.3660 -0.2586
13306SOL    HW241787   4.584   5.561   1.377  0.9076  1.1069  1.1964
13307SOL     OW41788   8.608   0.182   1.132 -0.2933 -0.4987  0.3014
13307SOL    HW141789   8.582   0.265   1.093  2.0387  0.1489 -0.0465
13307SOL    HW241790   8.588   0.117   1.065  0.9618  0.2534 -0.8795
13308SOL     OW41791   5.585   5.144   2.546  0.0267  0.0233  0.1139
13308SOL    HW141792   5.549   5.196   2.473 -0.1844  0.2430  0.3746
13308SOL    HW241793   5.581   5.202   2.621 -1.4617 -0.8052  0.7124
13309SOL     OW41794   7.020   3.181   5.682 -0.0886 -0.6525  0.1272
13309SOL    HW141795   7.091   3.134   5.638 -1.3813 -1.4535 -1.1665
13309SOL    HW241796   7.053   3.270   5.693  1.2216 -1.0798 -0.1699
13310SOL     OW41797   0.464   6.162   2.552 -0.0714 -0.0291  0.0592
13310SOL    HW141798   0.499   6.195   2.469  0.3674 -0.0307  0.2415
13310SOL    HW241799   0.379   6.204   2.561 -0.2045 -0.1780 -0.4877
13311SOL     OW41800   2.340   4.303   7.733 -0.0058  0.0824 -0.3129
13311SOL    HW141801   2.423   4.314   7.687  0.4137 -0.7662  0.2227
13311SOL    HW241802   2.363   4.257   7.814 -1.2263 -1.7640 -0.9734
13312SOL     OW41803   3.347   1.357   0.695  0.3645  0.1463 -0.0288
13312SOL    HW141804   3.426   1.404   0.723 -0.0699 -0.4567  2.3537
13312SOL    HW241805   3.381   1.283   0.643  1.1966  1.2615 -1.1441
13313SOL     OW41806   6.072   7.389   2.636 -0.3155 -0.4793 -0.0251
13313SOL    HW141807   6.137   7.446   2.675 -0.8144  0.1003 -0.0322
13313SOL    HW241808   6.122   7.333   2.576  0.0541  0.6061 -0.7606
13314SOL     OW41809   4.981   0.929   7.088  0.5470 -0.1676 -0.1191
13314SOL    HW141810   4.888   0.952   7.089  0.9398  2.4924 -3.6210
13314SOL    HW241811   4.983   0.836   7.063 -1.0891 -0.7699  1.7522
13315SOL     OW41812   2.121   8.153   7.574  0.4403  0.0303 -0.8922
13315SOL    HW141813   2.155   8.088   7.635  0.6042 -0.5094 -1.5421
13315SOL    HW241814   2.103   8.230   7.628  1.0518 -0.2671 -0.2500
13316SOL     OW41815   2.001   6.494   8.131 -0.5772 -0.0862  0.1213
13316SOL    HW141816   1.941   6.424   8.159  0.8000 -1.7948 -0.9231
13316SOL    HW241817   2.084   6.449   8.117  0.2630  1.7176 -1.0480
13317SOL     OW41818   3.877   2.867   5.790  0.0853 -0.4071 -0.0959
13317SOL    HW141819   3.893   2.774   5.772  0.8933 -0.6235  1.5546
13317SOL    HW241820   3.961   2.909   5.775 -0.4716  0.2223 -1.6096
13318SOL     OW41821   8.910   8.580   2.245 -0.1898  0.3073  0.1099
13318SOL    HW141822   8.819   8.555   2.260 -0.4776  1.0673 -0.3367
13318SOL    HW241823   8.909   8.675   2.240  0.8189  0.4034  1.3080
13319SOL     OW41824   3.309   4.310   3.144 -0.3916  0.3606  0.0365
13319SOL    HW141825   3.235   4.251   3.154  1.8261 -2.5524  0.6939
13319SOL    HW241826   3.349   4.286   3.060  1.4279 -0.2509  1.0152
13320SOL     OW41827   7.771   4.808   2.782 -0.2494  0.1217  0.4321
13320SOL    HW141828   7.715   4.784   2.857  0.9026 -1.1947  0.9186
13320SOL    HW241829   7.741   4.895   2.757 -0.3680  0.8244  2.7505
13321SOL     OW41830   3.492   3.192   4.599  0.0932  0.3305 -0.2005
13321SOL    HW141831   3.555   3.176   4.669  0.2570  1.5612 -0.0278
13321SOL    HW241832   3.423   3.244   4.641 -0.6877 -0.4150 -0.5482
13322SOL     OW41833   0.373   6.930   2.166 -0.8504 -0.7522 -0.0553
13322SOL    HW141834   0.305   6.901   2.105  1.7391 -0.4269 -3.3961
13322SOL    HW241835   0.445   6.868   2.154  0.6204  0.6381  1.0358
13323SOL     OW41836   6.357   1.292   8.243 -0.6231  0.9873 -0.4513
13323SOL    HW141837   6.397   1.348   8.310 -2.3883 -0.0086  1.5900
13323SOL    HW241838   6.424   1.228   8.221 -0.3798  0.5653  1.3674
13324SOL     OW41839   6.382   5.048   4.662 -0.0664  0.7947  0.0995
13324SOL    HW141840   6.445   5.070   4.593  0.0668 -2.3325 -0.9494
13324SOL    HW241841   6.434   5.003   4.728 -0.6355  1.5422  1.0909
13325SOL     OW41842   4.784   4.174   7.201  0.1822  0.1194 -0.3966
13325SOL    HW141843   4.811   4.217   7.120 -0.5385  3.5648  1.0039
13325SOL    HW241844   4.688   4.175   7.198  0.1540 -0.7983 -0.0244
13326SOL     OW41845   7.447   0.043   8.932  0.0519 -0.4622  0.0674
13326SOL    HW141846   7.537   0.014   8.944  0.1506 -0.3621 -0.4013
13326SOL    HW241847   7.395  -0.014   8.989  0.3913 -0.6235  0.2182
13327SOL     OW41848   2.941   1.099   8.389 -0.1308 -0.6850  0.1552
13327SOL    HW141849   2.872   1.159   8.360  1.0602 -0.1648 -1.7662
13327SOL    HW241850   2.929   1.021   8.336  1.9123  0.1743 -1.7331
13328SOL     OW41851   3.499   7.108   1.850 -0.1940 -0.1759 -0.0623
13328SOL    HW141852   3.465   7.142   1.933 -0.3199  0.9093 -0.5339
13328SOL    HW241853   3.428   7.053   1.816 -1.0118  1.0512 -0.4254
13329SOL     OW41854   2.923   7.171   3.250 -0.4063 -0.2284  0.1167
13329SOL    HW141855   2.911   7.080   3.275  0.4691 -0.1464  0.8735
13329SOL    HW241856   3.001   7.200   3.298 -0.1681  0.6706 -0.7683
13330SOL     OW41857   0.218   4.323   6.397 -0.1664  0.4822 -0.2216
13330SOL    HW141858   0.176   4.352   6.478  0.0254  0.6145 -0.1687
13330SOL    HW241859   0.148   4.323   6.332 -0.9263 -2.0289  0.4827
13331SOL     OW41860   3.254   6.517   4.654 -0.3328  0.6430 -0.1057
13331SOL    HW141861   3.320   6.540   4.720  0.1805 -0.8726 -0.0487
13331SOL    HW241862   3.295   6.540   4.571  0.1160  0.0827 -0.0462
13332SOL     OW41863   7.656   8.853   7.369 -0.1866  0.2766  0.2510
13332SOL    HW141864   7.719   8.921   7.345  0.4764 -0.3763  0.1044
13332SOL    HW241865   7.686   8.775   7.323 -1.6017  0.1426 -0.5074
13333SOL     OW41866   2.021   8.524   1.083 -0.1056  0.9016  0.0045
13333SOL    HW141867   2.105   8.570   1.087  0.2920  0.1413  3.1148
13333SOL    HW241868   2.045   8.431   1.078 -0.8464  0.7878 -2.1548
13334SOL     OW41869   3.595   6.816   4.552 -0.4515  0.5630 -0.3288
13334SOL    HW141870   3.672   6.762   4.569 -0.8264  0.2740  0.5221
13334SOL    HW241871   3.603   6.888   4.615 -1.7234 -0.3611  0.9420
13335SOL     OW41872   0.931   6.431   5.402  0.1982 -0.1688 -0.1776
13335SOL    HW141873   1.010   6.485   5.410  0.3521 -0.4040 -0.1081
13335SOL    HW241874   0.951   6.370   5.332  0.1036 -0.2737 -0.1138
13336SOL     OW41875   2.758   6.951   5.215  0.1961 -0.0035 -0.0923
13336SOL    HW141876   2.701   6.903   5.276 -0.9625  0.0775 -1.0872
13336SOL    HW241877   2.801   7.016   5.270 -0.2602 -0.4132  0.7849
13337SOL     OW41878   2.191   2.884   8.760  0.5794 -0.2678 -0.6624
13337SOL    HW141879   2.117   2.857   8.815  0.7195  0.3631 -0.1468
13337SOL    HW241880   2.162   2.868   8.671 -0.0689 -0.3205 -0.4485
13338SOL     OW41881   2.761   4.624   7.290 -0.2249 -0.1786 -0.1137
13338SOL    HW141882   2.683   4.644   7.341 -0.9210 -0.8737 -0.8947
13338SOL    HW241883   2.821   4.583   7.352 -0.3366  0.6427  0.5609
13339SOL     OW41884   2.079   3.328   4.397 -0.2774  0.0549 -0.6018
13339SOL    HW141885   2.096   3.239   4.365 -0.4137  0.0620 -0.6937
13339SOL    HW241886   1.990   3.348   4.367 -0.7188 -0.2421  0.4324
13340SOL     OW41887   8.900   3.121   8.106  0.0192  0.1178  0.2947
13340SOL    HW141888   8.906   3.196   8.166  1.0823  0.8806 -0.7088
13340SOL    HW241889   8.807   3.113   8.086 -0.1556  0.8942  0.7514
13341SOL     OW41890   5.884   1.236   5.628  0.2615  0.2048  0.1147
13341SOL    HW141891   5.842   1.182   5.695 -2.2796 -0.4702 -1.8550
13341SOL    HW241892   5.836   1.216   5.548  2.9234  1.2233 -1.8892
13342SOL     OW41893   8.085   4.357   4.796  0.1670  0.3066 -0.0984
13342SOL    HW141894   8.018   4.292   4.819 -1.0760  1.5318 -0.1317
13342SOL    HW241895   8.166   4.306   4.787 -0.6540 -1.1443  0.4281
13343SOL     OW41896   7.006   2.320   0.667 -0.2198  0.1856 -0.1665
13343SOL    HW141897   6.915   2.291   0.661 -0.4041  0.7198 -0.0862
13343SOL    HW241898   7.033   2.297   0.756  0.6000 -2.3825 -0.9938
13344SOL     OW41899   2.206   0.476   6.519  0.0600 -0.0688  0.1379
13344SOL    HW141900   2.248   0.562   6.511  2.3103 -0.8599  2.1514
13344SOL    HW241901   2.273   0.421   6.559 -1.3862 -2.7452 -0.8768
13345SOL     OW41902   8.496   3.469   1.753 -0.1707 -0.0274 -0.1046
13345SOL    HW141903   8.427   3.521   1.713  2.0765  2.7481 -0.6661
13345SOL    HW241904   8.493   3.386   1.706 -2.1032  0.5693 -1.1659
13346SOL     OW41905   8.691   1.052   2.350  0.1757 -0.2247  0.1089
13346SOL    HW141906   8.707   0.960   2.374 -0.9353 -0.3079  0.5697
13346SOL    HW241907   8.658   1.048   2.260  1.9500 -0.1034 -0.5929
13347SOL     OW41908   0.302   8.767   1.670 -0.2369  0.3313  0.0822
13347SOL    HW141909   0.391   8.767   1.636 -0.4797 -0.5206 -0.5763
13347SOL    HW241910   0.301   8.694   1.733 -0.9612 -0.9042 -1.3009
13348SOL     OW41911   4.490   1.715   2.729 -0.1470  0.1210  0.1446
13348SOL    HW141912   4.406   1.742   2.692 -0.2997 -1.0431 -0.4209
13348SOL    HW241913   4.527   1.656   2.664  0.2489 -0.8499  1.2022
13349SOL     OW41914   0.216   6.789   8.327  0.5326  0.0749 -0.1543
13349SOL    HW141915   0.214   6.819   8.418  1.4059 -1.5493  0.4440
13349SOL    HW241916   0.302   6.816   8.295 -0.6235  2.7300 -1.3290
13350SOL     OW41917   2.819   1.253   6.443  0.1644 -0.1474  0.2261
13350SOL    HW141918   2.751   1.236   6.508 -0.1811 -1.0053 -0.3453
13350SOL    HW241919   2.901   1.234   6.489  0.1485  2.1097  1.3190
13351SOL     OW41920   3.641   2.807   6.447 -0.4013  0.5468 -0.0630
13351SOL    HW141921   3.601   2.767   6.370 -0.6349  0.7009 -0.0237
13351SOL    HW241922   3.629   2.743   6.517  0.8840 -0.1218 -0.4267
13352SOL     OW41923   1.233   4.596   6.596 -0.4508  0.2022  0.4277
13352SOL    HW141924   1.314   4.640   6.569  0.1517 -1.2326 -0.1650
13352SOL    HW241925   1.163   4.649   6.557  0.2739  0.3661 -0.6830
13353SOL     OW41926   7.621   7.272   7.920  0.2689 -0.0589  0.3789
13353SOL    HW141927   7.700   7.219   7.921 -0.4052 -1.1149 -0.3427
13353SOL    HW241928   7.570   7.239   7.845 -1.7144 -0.7226  1.9191
13354SOL     OW41929   8.501   2.153   0.403 -0.5051  0.0358  0.1377
13354SOL    HW141930   8.491   2.152   0.498 -0.7303  1.7740  0.1515
13354SOL    HW241931   8.592   2.181   0.389 -1.1014  1.9183 -0.1565
13355SOL     OW41932   6.024   7.951   2.225 -0.2648  0.2633 -0.0837
13355SOL    HW141933   6.088   8.020   2.240 -0.2420  0.2495 -0.1166
13355SOL    HW241934   6.075   7.870   2.233  0.1696  0.2779 -2.1859
13356SOL     OW41935   6.449   5.859   6.462 -0.2881 -0.4456  0.2641
13356SOL    HW141936   6.488   5.946   6.462  1.1143 -0.9962  2.1728
13356SOL    HW241937   6.445   5.834   6.370  0.3764  1.1652 -0.2354
13357SOL     OW41938   8.133   1.378   4.364 -0.0755  0.1415 -0.0616
13357SOL    HW141939   8.081   1.457   4.344  0.2921 -0.3303 -3.6740
13357SOL    HW241940   8.069   1.307   4.363  0.0114  0.0642  0.0024
13358SOL     OW41941   0.711   4.981   0.486  0.0430  0.2304 -0.6809
13358SOL    HW141942   0.715   5.056   0.428  1.0249 -1.5626 -3.1189
13358SOL    HW241943   0.739   4.907   0.432  0.3317 -1.7141  1.8976
13359SOL     OW41944   8.281   0.882   4.043 -0.6084  0.2356 -0.1262
13359SOL    HW141945   8.197   0.910   4.081  0.3779 -0.1674  2.6120
13359SOL    HW241946   8.290   0.791   4.072  1.1517  0.5456  0.4425
13360SOL     OW41947   4.251   3.464   2.929 -0.0803  0.2755  0.2744
13360SOL    HW141948   4.289   3.487   2.844  4.0784  0.3660  1.9201
13360SOL    HW241949   4.315   3.496   2.993 -1.5868 -2.2897  3.3360
13361SOL     OW41950   2.437   6.130   0.536 -0.1622  0.1158 -0.1504
13361SOL    HW141951   2.494   6.117   0.460  0.1772  0.5904  0.0182
13361SOL    HW241952   2.355   6.088   0.511 -0.5940  1.6072 -1.4335
13362SOL     OW41953   4.290   7.384   4.863 -0.2919 -0.4499  0.0848
13362SOL    HW141954   4.198   7.408   4.852 -0.4046 -0.4545  0.9735
13362SOL    HW241955   4.299   7.302   4.814 -0.5472 -0.0068 -0.7196
13363SOL     OW41956   3.444   6.857   7.026 -0.5348 -0.1400 -0.3049
13363SOL    HW141957   3.360   6.873   6.984 -1.8011 -0.1723  2.0825
13363SOL    HW241958   3.473   6.943   7.055 -1.2844 -0.4569  1.5437
13364SOL     OW41959   1.381   2.616   1.403  0.0078 -0.3574  0.4411
13364SOL    HW141960   1.420   2.695   1.440 -0.8586  0.5312 -0.4931
13364SOL    HW241961   1.454   2.572   1.358  0.4369  0.0199  0.7564
13365SOL     OW41962   7.876   8.093   5.794 -0.1513  0.1203  0.5357
13365SOL    HW141963   7.823   8.063   5.869 -0.0773 -2.3889 -0.3301
13365SOL    HW241964   7.830   8.059   5.718  1.2044  0.3676 -0.4124
13366SOL     OW41965   6.418   3.561   8.875  0.0510 -0.1031 -0.1394
13366SOL    HW141966   6.460   3.646   8.864  0.4021 -0.2461  0.0705
13366SOL    HW241967   6.463   3.522   8.950 -2.3219  0.8871  1.9724
13367SOL     OW41968   2.861   8.383   7.372 -0.2145 -0.3689 -0.4273
13367SOL    HW141969   2.779   8.363   7.325 -0.0122 -2.0498 -0.1403
13367SOL    HW241970   2.917   8.307   7.354  0.6445 -0.0449  0.8061
13368SOL     OW41971   3.297   8.642   1.549  0.3146 -0.1703 -0.1299
13368SOL    HW141972   3.238   8.664   1.621  1.3363 -0.0466  0.6868
13368SOL    HW241973   3.277   8.550   1.529 -0.0351 -0.1791  0.2425
13369SOL     OW41974   4.993   3.505   8.698 -0.2171 -0.5830  0.1722
13369SOL    HW141975   4.927   3.446   8.735 -0.2439 -0.0069  1.0551
13369SOL    HW241976   5.073   3.453   8.696 -0.0063 -0.3812  1.8464
13370SOL     OW41977   0.248   2.276   3.451  0.1195  0.4076 -0.2585
13370SOL    HW141978   0.201   2.321   3.380  0.4137 -1.4646 -1.7123
13370SOL    HW241979   0.246   2.339   3.524 -0.9084  2.0800 -1.6346
13371SOL     OW41980   8.514   0.881   6.279  0.0085 -0.0550 -0.1440
13371SOL    HW141981   8.441   0.825   6.253  1.5740 -2.1100 -0.3454
13371SOL    HW241982   8.559   0.831   6.347  0.9523  1.3977  0.3351
13372SOL     OW41983   7.057   0.829   6.329  0.6365  0.0644  0.4112
13372SOL    HW141984   6.963   0.808   6.328  0.5977  0.2692 -0.5457
13372SOL    HW241985   7.067   0.885   6.406  0.4697 -2.0936  2.1118
13373SOL     OW41986   1.352   3.197   1.954  0.1097  0.5845  0.3177
13373SOL    HW141987   1.278   3.243   1.995  0.5928  1.4042  0.2812
13373SOL    HW241988   1.403   3.266   1.912  0.4068 -0.0852 -0.4379
13374SOL     OW41989   5.045   2.177   4.478 -0.4975  0.0904 -0.1520
13374SOL    HW141990   5.133   2.183   4.440 -1.3320  0.1485 -2.1932
13374SOL    HW241991   5.046   2.243   4.548  1.2902 -0.4232  0.3747
13375SOL     OW41992   4.144   4.642   1.428  0.1254 -0.3392 -0.7833
13375SOL    HW141993   4.157   4.718   1.371  0.8423 -0.2695 -0.5359
13375SOL    HW241994   4.059   4.658   1.469  0.2510  0.3141 -0.7589
13376SOL     OW41995   0.124   4.248   3.533  0.2805  0.5201 -0.1261
13376SOL    HW141996   0.166   4.162   3.538  0.9747  0.8947  0.7585
13376SOL    HW241997   0.032   4.231   3.553  0.1298 -0.2069 -1.3576
13377SOL     OW41998   4.559   1.892   7.164 -0.1687 -0.6951 -0.0650
13377SOL    HW141999   4.616   1.814   7.163  1.4901  0.4603 -0.3769
13377SOL    HW242000   4.589   1.942   7.241  0.5188  0.8023 -1.2498
13378SOL     OW42001   7.092   4.079   1.232  0.2557 -0.2366  0.1799
13378SOL    HW142002   7.074   4.139   1.305 -1.3592  0.9719 -1.1179
13378SOL    HW242003   7.058   3.995   1.262 -1.7419  0.5592  0.3687
13379SOL     OW42004   6.495   0.017   8.513 -0.1896  0.1155 -0.2925
13379SOL    HW142005   6.482  -0.074   8.537 -1.5626  0.0334 -1.2691
13379SOL    HW242006   6.456   0.066   8.586 -2.0851 -0.1193 -1.1030
13380SOL     OW42007   7.865   3.322   1.411 -0.2042 -0.2563 -0.5640
13380SOL    HW142008   7.946   3.314   1.460  0.3606  0.5971 -1.3203
13380SOL    HW242009   7.866   3.412   1.378 -1.8080  0.0036  0.0196
13381SOL     OW42010   4.596   6.687   4.320 -0.1410  0.4244  0.2444
13381SOL    HW142011   4.556   6.774   4.330 -0.4961  0.1978  0.7857
13381SOL    HW242012   4.677   6.704   4.271 -0.6522  0.9484 -0.4543
13382SOL     OW42013   8.148   6.466   2.348 -0.4043  0.0665 -0.3090
13382SOL    HW142014   8.153   6.455   2.443  1.9994  1.4917 -0.1957
13382SOL    HW242015   8.194   6.390   2.313  0.4570  0.5489 -0.2395
13383SOL     OW42016   5.996   0.159   4.263 -0.6564 -0.4401 -0.6650
13383SOL    HW142017   6.089   0.165   4.286 -1.2245 -1.2436  2.2687
13383SOL    HW242018   5.989   0.081   4.209  0.0388 -2.1635  1.5880
13384SOL     OW42019   6.515   8.025   1.235 -0.7518  0.3393  0.6234
13384SOL    HW142020   6.610   8.014   1.232 -0.7052  0.5885  1.0910
13384SOL    HW242021   6.483   7.947   1.282 -0.9110 -0.4277 -0.7104
13385SOL     OW42022   0.862   2.426   8.191  0.0846 -0.3927  0.0483
13385SOL    HW142023   0.875   2.467   8.105  2.0173 -1.3634 -0.1734
13385SOL    HW242024   0.858   2.500   8.252 -0.3413  0.2662 -0.7659
13386SOL     OW42025   7.250   4.609   2.803 -0.5935  0.7333 -0.1587
13386SOL    HW142026   7.245   4.686   2.858  0.4617  1.5078 -1.0865
13386SOL    HW242027   7.340   4.576   2.815 -0.1981  1.1700 -1.6880
13387SOL     OW42028   8.011   8.515   7.162 -0.3357  0.6192 -0.2424
13387SOL    HW142029   7.946   8.450   7.138  0.9008 -1.0021  0.6458
13387SOL    HW242030   8.012   8.515   7.258 -1.4998  3.2172 -0.1434
13388SOL     OW42031   4.184   6.851   7.285 -0.0713  0.3566  0.1512
13388SOL    HW142032   4.211   6.871   7.374 -0.3356 -0.5147  0.4404
13388SOL    HW242033   4.265   6.826   7.240 -0.3261 -2.4491  1.0675
13389SOL     OW42034   4.322   1.617   0.240 -0.0209 -0.2777  0.0996
13389SOL    HW142035   4.363   1.700   0.263 -1.7318  0.9045 -0.8550
13389SOL    HW242036   4.290   1.631   0.150 -1.0532 -1.6745  0.2185
13390SOL     OW42037   5.736   4.441   5.210  0.3337 -0.3817 -0.4023
13390SOL    HW142038   5.813   4.388   5.231  1.1022  0.2164 -1.6526
13390SOL    HW242039   5.718   4.423   5.118 -2.7553 -2.6718  0.4565
13391SOL     OW42040   5.232   8.119   3.146  0.3474 -0.7467 -0.4410
13391SOL    HW142041   5.323   8.146   3.133  0.3302  0.3707  1.3971
13391SOL    HW242042   5.182   8.174   3.086  0.6087  1.2714  1.0621
13392SOL     OW42043   6.024   5.270   6.455  0.3172 -0.3329  0.1458
13392SOL    HW142044   5.930   5.283   6.445  0.1604 -0.0567  1.7046
13392SOL    HW242045   6.043   5.299   6.544  1.8383 -0.6513 -0.0410
13393SOL     OW42046   4.040   4.191   1.523 -0.1992  0.1909 -0.2290
13393SOL    HW142047   4.004   4.177   1.610  2.3501 -1.0867  0.7072
13393SOL    HW242048   3.996   4.125   1.468 -1.1026  0.3644  0.2622
13394SOL     OW42049   8.481   3.903   8.624  0.4329  0.3329  0.5161
13394SOL    HW142050   8.566   3.884   8.665  0.4828 -0.9947 -0.1337
13394SOL    HW242051   8.466   3.828   8.566 -1.5662  0.1327  1.2242
13395SOL     OW42052   2.491   6.523   0.518 -0.3106 -0.4720 -0.3084
13395SOL    HW142053   2.442   6.586   0.570  1.0256  0.0945  0.3187
13395SOL    HW242054   2.425   6.461   0.486 -1.0458 -2.3814  4.1172
13396SOL     OW42055   6.808   5.667   5.981  0.0397  0.0595 -0.2839
13396SOL    HW142056   6.891   5.624   5.959  0.5244  1.6992 -1.7884
13396SOL    HW242057   6.767   5.607   6.045  1.0612 -2.1804 -1.6086
13397SOL     OW42058   3.253   6.303   3.854 -0.0397  0.2403  0.0755
13397SOL    HW142059   3.234   6.253   3.775 -2.0970 -0.1246  0.7584
13397SOL    HW242060   3.280   6.389   3.821 -1.6084  0.3498 -1.0503
13398SOL     OW42061   0.974   0.825   7.107 -0.3485  0.0824  0.1206
13398SOL    HW142062   0.950   0.767   7.179 -1.5162 -2.5973 -2.2495
13398SOL    HW242063   1.070   0.827   7.109 -0.3558  0.3955  1.8968
13399SOL     OW42064   2.098   5.860   4.669  0.4424 -0.4368  0.1973
13399SOL    HW142065   2.036   5.906   4.611  0.7691 -0.4292 -0.1451
13399SOL    HW242066   2.047   5.787   4.704  0.0307 -0.0350  0.4480
13400SOL     OW42067   2.943   8.135   6.906  0.2797  0.4000  0.0743
13400SOL    HW142068   2.888   8.212   6.890  0.9445  0.7889 -0.3854
13400SOL    HW242069   2.896   8.086   6.973 -0.5944  0.7631 -0.2497
13401SOL     OW42070   2.657   3.420   7.045  0.1137  0.5247  0.3392
13401SOL    HW142071   2.720   3.487   7.017 -0.3849  1.0628  0.4854
13401SOL    HW242072   2.588   3.469   7.089  0.0521 -0.1521  1.0155
13402SOL     OW42073   4.574   4.301   1.448  0.1268 -0.1981  0.5171
13402SOL    HW142074   4.556   4.352   1.527 -0.1828  0.5335 -0.0165
13402SOL    HW242075   4.500   4.241   1.440 -0.3807  0.4637  0.2001
13403SOL     OW42076   6.903   7.532   3.706  0.5075  0.6829 -0.0959
13403SOL    HW142077   6.935   7.587   3.778  1.1075 -0.0644  0.2227
13403SOL    HW242078   6.812   7.558   3.695  0.3833  0.7507  0.9929
13404SOL     OW42079   0.354   3.099   4.516  0.2083  0.4685  0.4181
13404SOL    HW142080   0.294   3.151   4.462 -0.2413  0.0194  0.4711
13404SOL    HW242081   0.330   3.008   4.497  3.5765  0.0186 -2.7314
13405SOL     OW42082   4.234   4.952   4.197  0.1631  0.0837  0.1769
13405SOL    HW142083   4.302   5.006   4.238  0.6623  0.2228 -0.8195
13405SOL    HW242084   4.264   4.862   4.209 -0.1250  0.0728  0.8691
13406SOL     OW42085   7.557   8.317   0.792  0.2423 -0.1026 -0.2708
13406SOL    HW142086   7.617   8.245   0.809 -1.1939 -1.2837  0.0467
13406SOL    HW242087   7.602   8.372   0.728  1.8364 -0.6642  0.3338
13407SOL     OW42088   8.323   0.354   6.701 -0.4853 -0.0508  0.7594
13407SOL    HW142089   8.358   0.325   6.786  0.1696  1.5936  1.1030
13407SOL    HW242090   8.352   0.288   6.639  1.1706 -0.0199  1.4461
13408SOL     OW42091   5.057   6.483   2.422  0.1080  0.0169 -0.0830
13408SOL    HW142092   4.976   6.433   2.435 -0.4029  0.7232 -0.4626
13408SOL    HW242093   5.065   6.536   2.501 -0.1876  0.4645 -0.3470
13409SOL     OW42094   6.735   1.070   2.497 -0.0730  0.0064 -0.1284
13409SOL    HW142095   6.650   1.101   2.528 -0.2992  0.0748 -0.7908
13409SOL    HW242096   6.757   1.130   2.426  0.8137  0.3514  0.4277
13410SOL     OW42097   1.392   0.417   0.365  0.0824  0.5427  0.1093
13410SOL    HW142098   1.405   0.476   0.439 -3.4787  1.0424  0.5038
13410SOL    HW242099   1.452   0.449   0.297  0.8225  2.3167  1.5334
13411SOL     OW42100   5.548   1.268   5.012  0.2626  0.4900 -0.1203
13411SOL    HW142101   5.515   1.343   4.964  0.4110 -0.1119 -1.1889
13411SOL    HW242102   5.478   1.203   5.006  0.2352  0.4441  0.5871
13412SOL     OW42103   6.033   5.631   3.788  0.0024 -0.5183  0.2368
13412SOL    HW142104   6.090   5.683   3.844  2.6477 -1.1174 -1.6913
13412SOL    HW242105   5.946   5.642   3.825  1.1608  1.4410  2.6482
13413SOL     OW42106   4.418   6.635   0.760  0.2600 -0.2453  0.0991
13413SOL    HW142107   4.365   6.608   0.835 -0.5572 -0.2562 -0.4581
13413SOL    HW242108   4.398   6.728   0.749 -1.6721 -0.7854 -1.6468
13414SOL     OW42109   6.081   2.984   8.181 -0.1822 -0.0774 -0.0756
13414SOL    HW142110   5.995   2.946   8.164  0.4626 -1.8756  0.4654
13414SOL    HW242111   6.142   2.931   8.130  0.7890  0.1359  0.8155
13415SOL     OW42112   7.008   5.731   2.326 -0.1127 -0.1977  0.0315
13415SOL    HW142113   7.031   5.643   2.356 -0.0232 -0.2168 -0.0916
13415SOL    HW242114   6.972   5.717   2.238 -0.4180 -0.1488  0.1489
13416SOL     OW42115   1.198   7.756   4.837 -0.1750 -0.5334  0.6403
13416SOL    HW142116   1.139   7.785   4.907 -1.2195 -0.9960 -0.0291
13416SOL    HW242117   1.250   7.686   4.876  0.4017  0.3127  1.4289
13417SOL     OW42118   4.168   8.902   2.563  0.3201  0.6818 -0.1118
13417SOL    HW142119   4.116   8.859   2.495  0.1963  2.0414 -0.9119
13417SOL    HW242120   4.104   8.947   2.618  0.4013 -0.5520  1.0593
13418SOL     OW42121   6.418   0.374   4.148  0.1619  0.4873 -0.3006
13418SOL    HW142122   6.491   0.389   4.208 -0.9874 -0.8274  1.5139
13418SOL    HW242123   6.351   0.436   4.174 -0.4836 -0.3341  0.0355
13419SOL     OW42124   6.301   3.563   5.875 -0.0190 -0.3079 -0.6169
13419SOL    HW142125   6.218   3.521   5.849  0.5460 -1.1534 -1.1211
13419SOL    HW242126   6.344   3.584   5.792  0.5974 -0.5427 -0.3618
13420SOL     OW42127   7.172   4.069   7.926  0.0201 -0.6981 -0.2316
13420SOL    HW142128   7.210   4.051   8.012  0.5754  0.9570 -0.0872
13420SOL    HW242129   7.244   4.060   7.865 -0.5703 -2.7871 -0.6997
13421SOL     OW42130   3.803   2.433   8.955  0.0294 -0.2718  0.7442
13421SOL    HW142131   3.860   2.367   8.916 -1.0270 -0.2394 -0.9624
13421SOL    HW242132   3.718   2.390   8.962 -0.3256  0.4506  0.9648
13422SOL     OW42133   4.232   3.735   2.702  0.2646  0.0297  0.1689
13422SOL    HW142134   4.282   3.793   2.759 -1.3368  0.9096  0.7446
13422SOL    HW242135   4.297   3.674   2.667  1.4999  0.2118  1.9971
13423SOL     OW42136   2.047   3.210   4.776  0.6951 -0.4836 -0.2559
13423SOL    HW142137   1.997   3.128   4.776 -0.0311 -0.0503 -0.8788
13423SOL    HW242138   1.992   3.272   4.728  0.9601  0.5505  0.7347
13424SOL     OW42139   2.150   0.665   2.060 -0.4450  0.3361 -0.1127
13424SOL    HW142140   2.110   0.579   2.072 -1.4744  0.8635  0.3415
13424SOL    HW242141   2.167   0.696   2.149 -1.6595  1.3139 -0.1982
13425SOL     OW42142   4.088   6.210   6.923  0.1123  0.1555 -0.2600
13425SOL    HW142143   4.038   6.187   7.001  0.3512 -0.3484 -0.2455
13425SOL    HW242144   4.179   6.208   6.953  0.2232 -0.3317 -0.6151
13426SOL     OW42145   6.263   8.914   1.348  0.2124 -0.4931 -0.5320
13426SOL    HW142146   6.308   8.957   1.421  0.0239 -1.0738 -0.0745
13426SOL    HW242147   6.273   8.821   1.364  1.2489 -0.6619 -1.9079
13427SOL     OW42148   6.844   7.898   7.259 -0.4364 -0.0053  0.2059
13427SOL    HW142149   6.839   7.984   7.217  1.6796  0.4255  0.7191
13427SOL    HW242150   6.788   7.906   7.337 -3.1022 -0.3020 -1.5698
13428SOL     OW42151   1.667   8.111   5.575  0.0623 -0.0448 -0.6380
13428SOL    HW142152   1.692   8.136   5.664 -2.7592  0.3960  0.1439
13428SOL    HW242153   1.694   8.019   5.567  3.8029  0.9120 -0.8227
13429SOL     OW42154   1.275   7.276   4.058  0.3107  0.3442  0.1445
13429SOL    HW142155   1.285   7.371   4.057  1.9166  0.2253 -1.6698
13429SOL    HW242156   1.360   7.243   4.028 -0.3760 -1.6394  0.2318
13430SOL     OW42157   2.085   8.797   5.627 -0.6412  0.5165 -0.1194
13430SOL    HW142158   2.025   8.728   5.601 -2.9085  2.1635  0.4443
13430SOL    HW242159   2.074   8.804   5.721  0.8841  0.4962  0.0786
13431SOL     OW42160   4.508   0.057   8.217 -0.4616  0.0981  0.1724
13431SOL    HW142161   4.500   0.008   8.299 -2.3849 -0.3960 -0.2559
13431SOL    HW242162   4.597   0.090   8.218  1.0938 -3.6290  0.3607
13432SOL     OW42163   6.961   2.118   1.672 -0.2012 -0.4760 -0.1749
13432SOL    HW142164   6.947   2.212   1.676 -1.4127 -0.5411 -1.6739
13432SOL    HW242165   6.987   2.093   1.760  0.0676  1.2362  0.2671
13433SOL     OW42166   3.561   5.657   3.019  0.1118 -0.7288 -0.7859
13433SOL    HW142167   3.529   5.602   2.947 -1.6161 -0.5100 -0.2419
13433SOL    HW242168   3.633   5.607   3.057 -0.7156 -2.1253 -0.9787
13434SOL     OW42169   0.974   4.154   0.585  0.3568  0.1811  0.2736
13434SOL    HW142170   0.929   4.235   0.607  0.3866  0.5830 -1.0672
13434SOL    HW242171   0.907   4.102   0.539  0.5167 -0.2965  0.5777
13435SOL     OW42172   5.359   6.626   6.915 -0.3344 -0.1566 -0.8908
13435SOL    HW142173   5.356   6.649   6.822 -0.8524 -1.7594 -1.3097
13435SOL    HW242174   5.374   6.709   6.960  1.0554  0.5080 -2.4692
13436SOL     OW42175   0.369   7.573   5.412 -0.5138 -0.5419 -0.6266
13436SOL    HW142176   0.391   7.483   5.388 -3.6463 -1.8303  0.8104
13436SOL    HW242177   0.439   7.600   5.471  0.1376 -2.3065 -0.5185
13437SOL     OW42178   3.044   5.387   8.851  0.0687  0.3984  0.2095
13437SOL    HW142179   3.127   5.344   8.871  0.1128  0.3932  0.0204
13437SOL    HW242180   3.066   5.451   8.783  0.1003  1.0809  0.8548
13438SOL     OW42181   6.632   7.302   7.580  0.1207 -0.0743 -0.9148
13438SOL    HW142182   6.714   7.258   7.604  0.3667 -0.3470 -2.2097
13438SOL    HW242183   6.572   7.231   7.556 -0.7225  0.0771  0.5684
13439SOL     OW42184   2.915   7.660   8.391  0.4639 -0.2353 -0.3116
13439SOL    HW142185   2.867   7.624   8.317 -0.1176  0.1903 -0.1504
13439SOL    HW242186   3.004   7.626   8.382 -0.3946 -2.9996  0.7155
13440SOL     OW42187   4.537   3.030   8.166 -0.0238  0.3485  0.0330
13440SOL    HW142188   4.462   3.052   8.220 -0.0350  1.0729 -0.2637
13440SOL    HW242189   4.501   2.981   8.093  0.3612 -3.8896  2.3970
13441SOL     OW42190   0.798   3.318   8.911  0.2858 -0.1934 -0.0051
13441SOL    HW142191   0.732   3.367   8.862 -1.3720 -1.1362  1.1819
13441SOL    HW242192   0.861   3.289   8.844 -0.0787  1.3302 -1.0681
13442SOL     OW42193   3.159   6.039   7.219  0.3698 -0.6035 -0.1599
13442SOL    HW142194   3.139   6.066   7.129  1.8571 -3.2662 -1.3924
13442SOL    HW242195   3.222   6.104   7.250 -0.6472  0.7202 -0.7590
13443SOL     OW42196   8.932   8.013   7.660 -0.4919 -0.1270 -0.1669
13443SOL    HW142197   9.018   8.054   7.651  0.0482 -1.3331 -0.8886
13443SOL    HW242198   8.906   7.994   7.569 -2.1346  1.3824 -0.0648
13444SOL     OW42199   5.974   0.598   4.441 -0.5746  0.2007  0.8793
13444SOL    HW142200   6.035   0.525   4.452 -1.3798 -0.9424 -1.4768
13444SOL    HW242201   5.913   0.590   4.515 -0.9274 -1.8632  0.4340
13445SOL     OW42202   2.330   7.960   7.347  0.1391 -0.3562 -0.0552
13445SOL    HW142203   2.261   7.937   7.284  0.9494  1.8142 -1.8679
13445SOL    HW242204   2.411   7.927   7.307  0.5118 -0.1282  0.4965
13446SOL     OW42205   5.821   1.542   8.659  0.4438  0.1127  0.1211
13446SOL    HW142206   5.732   1.525   8.690  0.8956 -2.0975  0.4210
13446SOL    HW242207   5.839   1.632   8.685 -1.0329 -0.0016  1.7581
13447SOL     OW42208   7.266   2.034   6.066 -0.3127  0.2750 -0.5900
13447SOL    HW142209   7.309   2.119   6.074 -0.8254  0.4951 -0.1231
13447SOL    HW242210   7.333   1.977   6.028 -0.0327  0.9367 -1.1129
13448SOL     OW42211   5.978   8.218   2.018 -0.8909  0.4679  0.8413
13448SOL    HW142212   6.039   8.183   2.083 -2.4212  0.1622  2.1679
13448SOL    HW242213   5.988   8.159   1.943  0.6835  0.6423  0.8731
13449SOL     OW42214   4.135   5.381   6.971  0.0182  0.1635  0.1970
13449SOL    HW142215   4.076   5.447   6.934 -0.6431 -0.5116  0.0128
13449SOL    HW242216   4.219   5.396   6.926 -0.3025  0.4651 -0.3090
13450SOL     OW42217   7.838   4.300   7.339  0.0158 -0.3584  0.2127
13450SOL    HW142218   7.891   4.316   7.260  0.1192 -0.5667  0.2375
13450SOL    HW242219   7.747   4.305   7.308  0.0519 -0.1495  0.1390
13451SOL     OW42220   6.182   6.277   5.133 -0.0268  0.1422  0.2655
13451SOL    HW142221   6.183   6.191   5.092 -1.6907  0.7058 -1.1494
13451SOL    HW242222   6.109   6.273   5.195 -0.5972  0.7249 -0.3494
13452SOL     OW42223   6.464   0.224   1.864 -0.2706 -0.7358  0.0698
13452SOL    HW142224   6.533   0.200   1.802  1.2278  0.3476  1.2520
13452SOL    HW242225   6.492   0.187   1.947 -0.3007  1.0042  0.9048
13453SOL     OW42226   1.688   0.779   0.230 -0.2106 -0.4383 -0.1375
13453SOL    HW142227   1.718   0.852   0.283 -0.1645 -0.6816  0.1720
13453SOL    HW242228   1.609   0.812   0.186 -1.0431 -0.6756  1.1407
13454SOL     OW42229   3.840   5.989   4.975  0.3581 -0.2701  0.2997
13454SOL    HW142230   3.858   5.963   4.885 -1.0828 -0.7730  0.1373
13454SOL    HW242231   3.925   6.017   5.009  1.0463 -0.6965 -1.0017
13455SOL     OW42232   0.690   4.911   5.168 -0.2222  0.2364  0.1268
13455SOL    HW142233   0.626   4.905   5.238 -0.9391  1.3160 -0.4161
13455SOL    HW242234   0.647   4.871   5.092  0.2406 -0.1970  0.0853
13456SOL     OW42235   4.108   5.741   4.802 -0.0402  0.1821 -0.9971
13456SOL    HW142236   4.051   5.692   4.862 -1.8302 -0.4070 -3.0255
13456SOL    HW242237   4.182   5.682   4.787  0.2196  0.1631  0.2680
13457SOL     OW42238   2.632   3.552   0.344 -1.1333  0.3275 -0.0931
13457SOL    HW142239   2.664   3.513   0.426  2.3527  0.9229 -1.0243
13457SOL    HW242240   2.600   3.638   0.370 -1.3005  0.0128  0.8037
13458SOL     OW42241   3.084   5.414   5.380  0.4492  0.1029 -0.0327
13458SOL    HW142242   3.062   5.468   5.304  0.2966  3.4621  2.1855
13458SOL    HW242243   3.171   5.444   5.407 -0.4770  0.8476  2.4638
13459SOL     OW42244   3.292   2.033   2.547  0.4604  0.8823 -0.1822
13459SOL    HW142245   3.362   1.985   2.503  1.7759  1.0163  1.6339
13459SOL    HW242246   3.217   2.028   2.487  2.2081  1.3788 -2.5309
13460SOL     OW42247   0.333   5.546   3.054 -0.3181 -0.0512 -0.0976
13460SOL    HW142248   0.410   5.503   3.016  0.3973  0.9376  0.2054
13460SOL    HW242249   0.269   5.547   2.983 -0.4634 -1.8342 -0.0406
13461SOL     OW42250   4.322   2.156   1.814  0.1560  0.0563 -0.1903
13461SOL    HW142251   4.291   2.191   1.731  1.4880  2.1434  0.1182
13461SOL    HW242252   4.376   2.226   1.851 -0.3630 -0.7976  2.4187
13462SOL     OW42253   6.400   1.899   6.410  0.1195  0.4415  0.0932
13462SOL    HW142254   6.495   1.885   6.410  0.0741  0.1422 -0.0609
13462SOL    HW242255   6.369   1.848   6.485  0.1351  0.9382  0.4505
13463SOL     OW42256   4.509   6.922   1.109  0.2507 -0.2609  0.0899
13463SOL    HW142257   4.602   6.917   1.089 -0.0836 -0.5839 -1.5154
13463SOL    HW242258   4.505   6.919   1.205  1.9598  1.2020  0.2586
13464SOL     OW42259   5.541   4.647   6.543 -0.4777  0.1204 -0.6427
13464SOL    HW142260   5.454   4.623   6.512 -0.5562  1.2660 -1.3629
13464SOL    HW242261   5.600   4.583   6.503 -1.0641 -1.2932  0.6592
13465SOL     OW42262   4.011   5.694   8.265  0.4424 -0.5674  0.2841
13465SOL    HW142263   4.014   5.598   8.258  1.0063 -0.5415  0.1588
13465SOL    HW242264   4.006   5.725   8.175 -1.5688 -0.5194  0.3603
13466SOL     OW42265   0.664   6.475   4.730 -0.2682 -0.3160  0.2217
13466SOL    HW142266   0.645   6.556   4.776  1.6814 -0.8694  2.1881
13466SOL    HW242267   0.735   6.497   4.670  0.1003 -0.4941  0.5861
13467SOL     OW42268   3.816   4.380   8.093  0.3959 -0.3346 -0.1118
13467SOL    HW142269   3.895   4.335   8.062 -0.8662 -3.3381  0.7810
13467SOL    HW242270   3.758   4.381   8.017  1.1577  1.8027 -0.7439
13468SOL     OW42271   1.740   0.107   6.323 -0.5419  0.4825  0.1868
13468SOL    HW142272   1.661   0.082   6.371 -0.6030  1.5426  0.6738
13468SOL    HW242273   1.750   0.201   6.341 -0.0601  0.7081 -1.1500
13469SOL     OW42274   2.328   7.119   4.872 -0.1082 -0.1174  0.4114
13469SOL    HW142275   2.396   7.062   4.909 -0.1808 -0.5734 -0.1420
13469SOL    HW242276   2.366   7.206   4.875  0.4620 -0.3508  0.2136
13470SOL     OW42277   3.876   1.570   3.123  0.2999  0.3179  0.3944
13470SOL    HW142278   3.919   1.560   3.209  0.7972  1.0676  0.2385
13470SOL    HW242279   3.929   1.518   3.064  2.1651  2.6958 -0.1723
13471SOL     OW42280   3.357   5.708   4.126 -0.2038 -0.3294 -0.3138
13471SOL    HW142281   3.418   5.741   4.192 -0.6317 -0.7009  0.2803
13471SOL    HW242282   3.406   5.643   4.077 -0.0199 -0.3845 -0.0589
13472SOL     OW42283   7.314   2.874   0.110  0.0120  0.3928 -0.2479
13472SOL    HW142284   7.273   2.809   0.053 -1.4440  0.0942  1.0604
13472SOL    HW242285   7.347   2.823   0.184 -0.3164  1.0441  0.3494
13473SOL     OW42286   7.158   6.521   2.646 -0.2403 -0.5844  0.2373
13473SOL    HW142287   7.216   6.549   2.717  0.3238 -1.6956  0.2342
13473SOL    HW242288   7.192   6.566   2.569 -0.2306 -0.1623  0.4837
13474SOL     OW42289   3.544   5.477   8.738 -0.4052 -0.4918 -0.4646
13474SOL    HW142290   3.462   5.527   8.745  0.5960  1.2512 -0.5861
13474SOL    HW242291   3.548   5.450   8.647 -0.9151 -0.7332 -0.4211
13475SOL     OW42292   5.048   2.692   7.030 -0.6079  0.3524  0.0812
13475SOL    HW142293   5.120   2.631   7.014  0.4723  1.7245 -0.5054
13475SOL    HW242294   4.969   2.639   7.020  0.2561 -0.6761 -1.6571
13476SOL     OW42295   5.118   4.135   2.798  0.5243 -0.1405 -0.1763
13476SOL    HW142296   5.098   4.042   2.782  1.4527 -0.2559 -0.7209
13476SOL    HW242297   5.207   4.146   2.765  0.4253  0.9488 -0.0916
13477SOL     OW42298   6.772   4.905   1.502  0.0814 -1.2238 -0.6369
13477SOL    HW142299   6.759   5.000   1.504 -1.0902 -1.3647 -1.1885
13477SOL    HW242300   6.685   4.868   1.519  0.8893 -2.2186  1.8722
13478SOL     OW42301   4.471   3.497   8.782  0.1390 -1.0277  0.0623
13478SOL    HW142302   4.540   3.481   8.846 -0.2342  0.4913  0.8919
13478SOL    HW242303   4.511   3.557   8.719 -1.0765  1.9626  1.9375
13479SOL     OW42304   0.850   3.687   0.776  0.2614 -0.1376  0.7648
13479SOL    HW142305   0.940   3.685   0.809  0.2437  0.4013  0.8497
13479SOL    HW242306   0.835   3.778   0.751 -0.2548 -0.2250  0.7385
13480SOL     OW42307   7.147   7.953   0.647  0.2043  0.0772 -0.1108
13480SOL    HW142308   7.163   7.963   0.741  1.6715  0.4883 -0.3782
13480SOL    HW242309   7.233   7.963   0.607 -0.3114 -0.6504 -1.4677
13481SOL     OW42310   5.596   4.645   7.743  0.1954 -0.2483 -0.3336
13481SOL    HW142311   5.673   4.702   7.737  0.1206 -0.2152 -1.1147
13481SOL    HW242312   5.548   4.677   7.819  0.0944  0.8259 -0.8273
13482SOL     OW42313   6.968   5.468   8.667  0.0308 -0.5286 -0.5325
13482SOL    HW142314   6.984   5.492   8.576  1.9428 -1.8535 -0.6169
13482SOL    HW242315   6.899   5.402   8.663  0.6169 -1.1275 -1.1312
13483SOL     OW42316   6.192   2.343   3.329 -0.1454 -0.4341  0.3572
13483SOL    HW142317   6.228   2.350   3.241 -1.5832 -0.0005 -0.2251
13483SOL    HW242318   6.221   2.258   3.361 -0.1440 -0.8756 -0.7919
13484SOL     OW42319   2.430   8.463   1.123  0.1985 -0.7649 -0.1174
13484SOL    HW142320   2.350   8.485   1.075  0.4032 -1.8852 -1.0114
13484SOL    HW242321   2.500   8.473   1.058  0.8515  0.4910  0.7295
13485SOL     OW42322   7.213   8.425   3.383 -0.0146  0.5000  0.1000
13485SOL    HW142323   7.263   8.454   3.459  3.2697 -1.3366 -1.1189
13485SOL    HW242324   7.156   8.498   3.361  1.4464  2.3951  2.2498
13486SOL     OW42325   2.254   1.573   1.763  0.3919  0.0961 -0.4300
13486SOL    HW142326   2.260   1.655   1.714 -0.0113 -0.5948 -1.6746
13486SOL    HW242327   2.318   1.515   1.723 -0.4752 -0.7340 -0.6617
13487SOL     OW42328   0.449   3.767   0.769  0.4161 -0.3842 -0.2585
13487SOL    HW142329   0.435   3.733   0.857 -0.5090 -2.7918 -1.2208
13487SOL    HW242330   0.423   3.694   0.712 -2.6709  2.2715 -2.6249
13488SOL     OW42331   1.827   0.890   6.028 -0.0752  0.1707  0.5532
13488SOL    HW142332   1.863   0.957   6.086 -1.9152 -0.1350  2.1803
13488SOL    HW242333   1.779   0.940   5.962  1.7508  0.5123 -0.5776
13489SOL     OW42334   3.314   8.860   2.277 -0.3842 -0.4439 -0.0605
13489SOL    HW142335   3.244   8.866   2.212  0.5001 -2.3105 -1.2670
13489SOL    HW242336   3.311   8.769   2.307  0.7274 -0.2163  0.7871
13490SOL     OW42337   2.512   6.971   5.872  0.2078 -0.4268 -0.5851
13490SOL    HW142338   2.431   7.021   5.878 -0.0148 -0.9686  1.5695
13490SOL    HW242339   2.485   6.887   5.835 -0.5087 -1.0780  1.2928
13491SOL     OW42340   5.900   4.900   2.923 -0.0480 -0.3139 -0.1905
13491SOL    HW142341   5.879   4.808   2.939  4.3555 -1.4771  0.4002
13491SOL    HW242342   5.908   4.938   3.010 -3.3735  1.2436 -0.4175
13492SOL     OW42343   8.098   5.124   1.760  0.0714 -0.3842  0.2011
13492SOL    HW142344   8.135   5.207   1.728  0.3768 -0.4830  0.2979
13492SOL    HW242345   8.166   5.087   1.816 -0.4014 -0.2782  0.8645
13493SOL     OW42346   8.267   3.905   7.814  0.7829  0.6965  0.0818
13493SOL    HW142347   8.231   3.879   7.899  0.9170  0.8921  0.1996
13493SOL    HW242348   8.272   4.001   7.819 -0.9111  0.8722 -0.8106
13494SOL     OW42349   5.114   8.391   7.013 -0.7935  0.0044 -0.6102
13494SOL    HW142350   5.060   8.425   6.941 -3.2873 -0.1345  1.0667
13494SOL    HW242351   5.102   8.296   7.008 -0.4142 -0.0495 -0.4340
13495SOL     OW42352   5.786   7.575   6.061  0.2379 -0.1057 -0.4421
13495SOL    HW142353   5.835   7.646   6.020  0.7112  0.0219  0.3136
13495SOL    HW242354   5.853   7.519   6.100 -0.1945  0.1151  0.6770
13496SOL     OW42355   1.868   5.463   4.579  0.2743  0.1047 -0.2072
13496SOL    HW142356   1.849   5.516   4.502  1.6303  1.2556  0.2159
13496SOL    HW242357   1.870   5.373   4.547  2.4795  0.6915 -1.8798
13497SOL     OW42358   7.312   1.658   7.070  0.1581  0.2128  0.3440
13497SOL    HW142359   7.260   1.736   7.086  1.4667  1.4145 -0.9779
13497SOL    HW242360   7.376   1.684   7.003  2.4947 -1.1482  1.8745
13498SOL     OW42361   4.100   2.275   7.656  0.0120 -0.3043 -0.0881
13498SOL    HW142362   4.046   2.201   7.628  0.9146 -0.5306 -1.3524
13498SOL    HW242363   4.176   2.234   7.698  0.1402 -0.0660 -0.0844
13499SOL     OW42364   4.788   4.414   3.010  0.4396  0.8501 -0.4056
13499SOL    HW142365   4.876   4.449   3.021  1.4577 -1.2497 -1.2154
13499SOL    HW242366   4.750   4.467   2.940  1.1210  1.6872 -0.1597
13500SOL     OW42367   4.519   7.411   8.790  0.0610  0.0941  0.2020
13500SOL    HW142368   4.613   7.429   8.782  0.4513 -2.2853 -2.1934
13500SOL    HW242369   4.476   7.484   8.745  0.9816 -0.1570 -1.1413
13501SOL     OW42370   1.823   2.278   5.952  0.2727  0.0117  0.1564
13501SOL    HW142371   1.839   2.184   5.943  2.2531  0.4530 -1.9517
13501SOL    HW242372   1.894   2.309   6.008 -0.6287  0.2313  1.2149
13502SOL     OW42373   0.056   4.045   3.251  0.5484  0.3231  0.1839
13502SOL    HW142374   0.063   3.951   3.265  0.5638  0.3097  0.0867
13502SOL    HW242375  -0.025   4.070   3.296 -0.1061  0.0564 -0.8094
13503SOL     OW42376   7.158   1.842   2.195 -0.1944 -0.1236 -0.4401
13503SOL    HW142377   7.081   1.821   2.142 -0.1163 -0.7960 -0.2967
13503SOL    HW242378   7.165   1.769   2.257 -0.3064  0.6737  0.5284
13504SOL     OW42379   3.461   1.757   2.819 -0.2006 -0.0701  0.0626
13504SOL    HW142380   3.473   1.663   2.835 -2.8140 -0.3059  1.1058
13504SOL    HW242381   3.544   1.797   2.845  0.5575 -1.9735  0.7216
13505SOL     OW42382   5.287   8.747   8.974 -0.3962 -0.1185 -0.2335
13505SOL    HW142383   5.233   8.719   9.048  1.4820 -2.3578  0.4177
13505SOL    HW242384   5.352   8.805   9.014 -0.0269 -0.4838 -0.2958
13506SOL     OW42385   6.022   0.213   8.025  0.2825  0.1947 -0.0903
13506SOL    HW142386   5.996   0.304   8.045 -0.6983  0.3331 -1.7934
13506SOL    HW242387   6.114   0.209   8.049  1.0779  2.4358 -2.2726
13507SOL     OW42388   8.297   3.035   8.803  0.0895 -0.1403  0.0738
13507SOL    HW142389   8.260   3.117   8.836 -0.8624 -0.3470 -0.4269
13507SOL    HW242390   8.326   3.056   8.714  1.0240 -0.0292  0.3984
13508SOL     OW42391   7.999   2.646   2.792  0.0357 -0.2938  0.5677
13508SOL    HW142392   8.025   2.652   2.700 -0.3256  0.8812  0.5367
13508SOL    HW242393   7.960   2.731   2.813 -2.2514 -1.3970  1.0987
13509SOL     OW42394   3.025   2.409   0.559  0.2894 -0.0864 -0.4439
13509SOL    HW142395   3.087   2.356   0.509  2.1912  1.3451  0.2697
13509SOL    HW242396   3.075   2.439   0.636 -1.5694  0.3935  0.6419
13510SOL     OW42397   5.311   2.148   6.157  0.4151  0.3122 -0.3836
13510SOL    HW142398   5.398   2.177   6.130 -0.7502  2.4746 -2.2305
13510SOL    HW242399   5.287   2.080   6.093  1.1683 -1.2002  0.8793
13511SOL     OW42400   8.379   1.824   3.601 -0.3677 -0.2152 -0.3452
13511SOL    HW142401   8.333   1.789   3.525 -1.6566  1.3403 -0.3278
13511SOL    HW242402   8.317   1.884   3.641  0.4698 -0.5822  1.6473
13512SOL     OW42403   7.948   5.150   3.912 -0.5161 -0.2363  0.1419
13512SOL    HW142404   8.025   5.202   3.932 -0.1307 -0.8852  0.3756
13512SOL    HW242405   7.936   5.094   3.989 -1.8196  0.5599  0.5553
13513SOL     OW42406   8.908   3.028   7.680  0.1655  0.4059  0.1046
13513SOL    HW142407   8.964   3.090   7.727  1.1736  1.1036 -1.8837
13513SOL    HW242408   8.861   3.082   7.617 -1.2965 -0.4690  0.4021
13514SOL     OW42409   5.882   6.485   1.944 -0.2006  0.2823 -0.4415
13514SOL    HW142410   5.866   6.579   1.934 -0.2505  0.1417 -2.0294
13514SOL    HW242411   5.806   6.452   1.992  0.0891  1.1236  0.6385
13515SOL     OW42412   5.777   8.811   1.522 -0.3669 -0.0627  0.0467
13515SOL    HW142413   5.775   8.883   1.586  0.9427  0.0185  0.0295
13515SOL    HW242414   5.699   8.760   1.541  0.6197 -0.7760  2.6016
13516SOL     OW42415   0.177   3.319   3.462 -0.6420  0.5583 -0.3064
13516SOL    HW142416   0.145   3.407   3.439 -3.6910 -0.0345  1.1013
13516SOL    HW242417   0.121   3.260   3.411  0.3216 -0.5953 -0.0699
13517SOL     OW42418   5.694   6.025   0.504  0.1990 -0.4632 -0.5210
13517SOL    HW142419   5.696   6.110   0.459 -0.4001 -0.0473  0.1975
13517SOL    HW242420   5.645   5.968   0.446  2.3490 -0.9370 -1.9856
13518SOL     OW42421   3.286   2.030   5.508 -0.1508  0.3851  0.3662
13518SOL    HW142422   3.326   2.115   5.488  1.2023 -0.7366 -2.1817
13518SOL    HW242423   3.347   1.988   5.569  1.1415 -0.1609 -1.2423
13519SOL     OW42424   5.622   3.623   1.163  0.2251 -0.1226  0.6244
13519SOL    HW142425   5.629   3.671   1.245  0.2024  1.5381 -0.2879
13519SOL    HW242426   5.532   3.637   1.134  1.0034  1.9617 -1.1353
13520SOL     OW42427   0.279   2.527   4.754  0.0546  0.6384  0.1186
13520SOL    HW142428   0.192   2.518   4.793  0.3169 -0.5614  0.4678
13520SOL    HW242429   0.262   2.559   4.666 -0.7080  0.9358  0.3647
13521SOL     OW42430   4.186   2.597   0.581  0.0736 -0.2674 -0.2541
13521SOL    HW142431   4.142   2.590   0.497 -0.8936 -2.0008  0.3437
13521SOL    HW242432   4.130   2.654   0.633 -0.8289 -1.3978  0.0683
13522SOL     OW42433   7.424   0.098   8.120 -0.3123  0.0188 -0.1586
13522SOL    HW142434   7.389   0.134   8.039 -0.9713  0.0714  0.1456
13522SOL    HW242435   7.507   0.145   8.133 -0.0134 -0.2646 -0.9943
13523SOL     OW42436   8.881   4.241   3.379 -0.2418  0.0978 -0.4561
13523SOL    HW142437   8.904   4.320   3.331 -1.1252  1.0490  0.6281
13523SOL    HW242438   8.825   4.192   3.318 -0.5221  0.7915 -0.7691
13524SOL     OW42439   0.607   6.553   5.915 -0.0468  0.1975  0.5121
13524SOL    HW142440   0.603   6.532   5.822 -1.8048  0.7416  0.4218
13524SOL    HW242441   0.688   6.512   5.946  0.7429  0.3097 -1.3102
13525SOL     OW42442   3.346   2.127   0.744 -0.1357 -0.0703  0.2672
13525SOL    HW142443   3.303   2.063   0.687  1.1767  0.2877 -1.1799
13525SOL    HW242444   3.374   2.197   0.684 -1.0704  1.6277  1.7309
13526SOL     OW42445   2.731   2.273   0.137 -0.1285 -0.0316 -0.3515
13526SOL    HW142446   2.779   2.332   0.194 -1.2139 -0.8608  1.5304
13526SOL    HW242447   2.787   2.262   0.060  1.9940  0.1602  1.0899
13527SOL     OW42448   0.225   4.741   8.125  0.0931 -0.4848 -0.3002
13527SOL    HW142449   0.249   4.822   8.081  0.2055  0.0692  0.7470
13527SOL    HW242450   0.129   4.742   8.125  0.0384  0.9534  1.9429
13528SOL     OW42451   2.993   8.793   8.327  0.1368  0.0656  0.8294
13528SOL    HW142452   2.924   8.757   8.271  1.3239 -1.2478  0.1518
13528SOL    HW242453   2.995   8.886   8.305 -0.1806 -0.2220 -0.5026
13529SOL     OW42454   1.353   3.252   1.267 -0.3582  0.2398  0.2519
13529SOL    HW142455   1.258   3.262   1.267 -0.3195  0.6649 -0.4140
13529SOL    HW242456   1.385   3.321   1.209  0.2065 -1.0912 -1.1019
13530SOL     OW42457   3.569   8.622   2.457 -0.3234 -0.3052  0.5879
13530SOL    HW142458   3.551   8.557   2.388 -1.6280 -0.2736  0.8734
13530SOL    HW242459   3.503   8.605   2.524  0.5652  0.0466  1.5797
13531SOL     OW42460   4.214   8.093   7.421  0.0282 -0.3209 -0.6328
13531SOL    HW142461   4.211   8.070   7.328  0.8871  2.8868 -1.5912
13531SOL    HW242462   4.291   8.149   7.429 -2.0448  2.5993  1.1107
13532SOL     OW42463   6.198   5.274   6.201 -0.1869  0.7496 -0.2612
13532SOL    HW142464   6.136   5.268   6.274 -0.5254  0.6734 -0.5536
13532SOL    HW242465   6.160   5.219   6.133 -0.5726  1.9029 -1.0000
13533SOL     OW42466   6.308   2.552   7.134 -0.1105  0.4159 -0.2167
13533SOL    HW142467   6.335   2.529   7.223  0.7313  0.6245 -0.4122
13533SOL    HW242468   6.223   2.596   7.145 -0.9000 -1.1669  0.3155
13534SOL     OW42469   2.144   8.123   0.062  0.8333 -0.0712  0.1201
13534SOL    HW142470   2.212   8.165   0.010 -0.3616  1.1262 -0.5133
13534SOL    HW242471   2.132   8.037   0.021  0.0360  0.7816 -1.5081
13535SOL     OW42472   2.729   5.890   6.575 -0.0442  0.3991  0.1238
13535SOL    HW142473   2.727   5.849   6.488  1.1487 -0.4690  0.4929
13535SOL    HW242474   2.788   5.836   6.626 -0.9236  0.7630  1.5716
13536SOL     OW42475   8.165   2.370   7.481  0.0177 -0.1965  0.3060
13536SOL    HW142476   8.177   2.296   7.423  0.4116 -0.0826  0.2375
13536SOL    HW242477   8.172   2.333   7.569 -1.2388 -0.4821  0.3056
13537SOL     OW42478   2.885   1.856   5.839  0.4923  0.2288 -0.3217
13537SOL    HW142479   2.948   1.880   5.771  1.5266 -2.2498 -0.3586
13537SOL    HW242480   2.876   1.761   5.830 -1.6529  0.2338  1.0881
13538SOL     OW42481   2.274   4.546   8.296  0.4673  0.1574  0.0562
13538SOL    HW142482   2.324   4.469   8.267  1.0721  0.6133 -0.1285
13538SOL    HW242483   2.216   4.512   8.364 -0.4572 -0.7922 -1.1457
13539SOL     OW42484   2.576   5.342   7.785  0.0368  0.5649 -0.2711
13539SOL    HW142485   2.595   5.407   7.851 -0.5124  0.2857  0.1671
13539SOL    HW242486   2.634   5.268   7.806  0.0316  0.5680 -0.2456
13540SOL     OW42487   5.935   0.897   4.755  0.1708 -0.4264  0.2384
13540SOL    HW142488   5.852   0.940   4.732  2.2476  4.0479 -0.0395
13540SOL    HW242489   5.938   0.898   4.850  0.6412  1.1987  0.2287
13541SOL     OW42490   6.438   8.883   7.200  0.4998  0.4136 -0.4862
13541SOL    HW142491   6.473   8.801   7.165  0.7334 -0.2116  1.1029
13541SOL    HW242492   6.343   8.872   7.195  0.5314  0.0753 -0.3683
13542SOL     OW42493   3.289   8.206   0.260  0.2058  0.4100 -0.2399
13542SOL    HW142494   3.313   8.118   0.232 -1.7056 -0.4306  0.5808
13542SOL    HW242495   3.197   8.199   0.284  0.4121  2.2833  1.3076
13543SOL     OW42496   2.711   5.990   4.035  0.1421 -0.4871 -0.1790
13543SOL    HW142497   2.737   5.898   4.032  2.9117  0.1846  0.0494
13543SOL    HW242498   2.689   6.006   4.126 -0.1884 -0.8798 -0.1891
13544SOL     OW42499   3.351   4.536   4.148  0.1749  0.3801  0.3897
13544SOL    HW142500   3.334   4.578   4.063  1.4750 -0.3899 -0.2869
13544SOL    HW242501   3.320   4.446   4.137  0.6600  0.1813  0.5993
13545SOL     OW42502   6.959   3.659   4.891 -0.1822  0.6575 -0.2478
13545SOL    HW142503   7.037   3.715   4.894 -1.3983  2.5329 -1.4683
13545SOL    HW242504   6.895   3.706   4.944 -1.4452  0.8021 -1.8396
13546SOL     OW42505   4.708   5.251   7.909 -0.2585  0.4332  0.0883
13546SOL    HW142506   4.768   5.179   7.889  2.7373  2.8069 -0.2539
13546SOL    HW242507   4.621   5.211   7.909  1.1969 -3.0698 -0.3521
13547SOL     OW42508   2.734   1.311   0.902 -0.3850  0.1008 -0.4459
13547SOL    HW142509   2.715   1.372   0.830  0.5388  0.5731 -0.3075
13547SOL    HW242510   2.677   1.341   0.973 -0.0820  0.7034 -0.4426
13548SOL     OW42511   5.589   0.303   5.820  0.1096  0.2927 -0.8169
13548SOL    HW142512   5.566   0.283   5.910 -3.4413  2.0322 -1.1369
13548SOL    HW242513   5.582   0.220   5.774 -2.1588 -0.0083 -0.0902
13549SOL     OW42514   8.147   1.376   2.598  0.2555 -0.0031  0.5577
13549SOL    HW142515   8.149   1.348   2.690 -0.2327  0.0921  0.5990
13549SOL    HW242516   8.199   1.456   2.596  1.1435 -0.5586  0.5565
13550SOL     OW42517   7.319   6.643   5.236  0.0223 -0.4637  0.4590
13550SOL    HW142518   7.395   6.590   5.258 -0.0302 -1.0492 -0.7121
13550SOL    HW242519   7.281   6.600   5.160  0.1271  1.3932 -0.7060
13551SOL     OW42520   7.919   8.314   3.605 -0.1552 -0.8843  0.5650
13551SOL    HW142521   7.846   8.315   3.544 -0.5769  0.3305  1.0774
13551SOL    HW242522   7.997   8.307   3.549 -0.4643  1.3412 -0.2195
13552SOL     OW42523   8.016   7.514   6.847  0.5389  0.4059 -0.2252
13552SOL    HW142524   7.995   7.436   6.796  0.1425  1.5116 -1.8066
13552SOL    HW242525   8.100   7.493   6.889  1.7516  0.0626 -2.6921
13553SOL     OW42526   4.793   6.849   2.997 -0.2919 -0.3244 -0.0313
13553SOL    HW142527   4.828   6.822   3.082 -0.5958 -0.2921  0.1091
13553SOL    HW242528   4.717   6.903   3.020 -0.2894 -0.1985 -0.3237
13554SOL     OW42529   7.302   6.335   6.739 -0.0599  0.0207 -0.1447
13554SOL    HW142530   7.325   6.412   6.687 -2.5213  1.3476  0.5642
13554SOL    HW242531   7.219   6.358   6.780 -0.2387 -2.5567  1.1356
13555SOL     OW42532   5.375   5.068   0.061 -0.0999  0.3749 -0.2088
13555SOL    HW142533   5.376   5.104   0.149 -2.9753 -0.1767  0.1452
13555SOL    HW242534   5.459   5.023   0.052  1.6750  3.2170  0.9555
13556SOL     OW42535   2.042   8.058   6.506 -0.0377  0.6395  0.6825
13556SOL    HW142536   2.030   7.963   6.506  1.7724  0.3585 -0.4021
13556SOL    HW242537   1.964   8.092   6.463 -0.0180 -0.4953 -0.3107
13557SOL     OW42538   5.029   2.814   0.296  0.0843 -0.9051 -0.7288
13557SOL    HW142539   5.106   2.852   0.339 -0.2417 -2.8827  1.8400
13557SOL    HW242540   5.064   2.768   0.220  0.7675  2.0942 -2.4253
13558SOL     OW42541   3.017   3.646   3.593 -0.1127  0.1206 -0.1514
13558SOL    HW142542   2.970   3.589   3.654 -0.1940 -0.7582 -1.0043
13558SOL    HW242543   3.095   3.674   3.641 -0.8816  0.6092  0.8438
13559SOL     OW42544   6.611   2.832   7.248 -0.5072  0.2074 -0.4387
13559SOL    HW142545   6.616   2.752   7.300  1.1021 -0.1831 -1.1398
13559SOL    HW242546   6.659   2.812   7.167 -1.0562  1.5131 -1.1279
13560SOL     OW42547   6.899   7.243   7.674  0.1398 -0.4078 -0.0895
13560SOL    HW142548   6.934   7.258   7.762  0.0093 -2.2507  0.3228
13560SOL    HW242549   6.943   7.308   7.620  1.0372  0.0771  1.1533
13561SOL     OW42550   4.255   5.651   3.096 -0.1965  0.7755 -0.3898
13561SOL    HW142551   4.290   5.718   3.155 -1.2228  0.2905  0.7887
13561SOL    HW242552   4.300   5.668   3.013  3.0524  0.0610  1.0597
13562SOL     OW42553   8.370   0.101   4.289 -0.3243  0.0255  0.0933
13562SOL    HW142554   8.382   0.167   4.357 -0.1524  0.9879 -0.8469
13562SOL    HW242555   8.366   0.018   4.337 -3.1175  0.8709  1.5639
13563SOL     OW42556   2.123   6.430   4.606  0.2656 -0.3981  0.8435
13563SOL    HW142557   2.122   6.463   4.517  0.7341  0.4076  1.1253
13563SOL    HW242558   2.031   6.431   4.634  0.2168  0.1899  0.6691
13564SOL     OW42559   1.517   6.489   0.739  0.1733 -0.0319  0.2109
13564SOL    HW142560   1.469   6.499   0.821 -0.6195  0.2383 -0.2741
13564SOL    HW242561   1.593   6.547   0.748  0.1965 -0.1564  0.8312
13565SOL     OW42562   5.846   7.690   2.895 -0.3371 -0.4523 -0.0305
13565SOL    HW142563   5.933   7.692   2.855 -0.0825 -0.4957  0.5243
13565SOL    HW242564   5.861   7.709   2.987 -1.0630  0.9471 -0.1815
13566SOL     OW42565   0.735   5.467   8.042 -0.4457 -0.4043  0.1560
13566SOL    HW142566   0.640   5.460   8.057 -0.1825  1.5021  3.8648
13566SOL    HW242567   0.746   5.552   8.001 -0.3687 -1.1507 -1.4227
13567SOL     OW42568   3.173   2.532   7.462 -1.1501  0.1088 -0.1372
13567SOL    HW142569   3.097   2.588   7.447 -1.1652  0.1888  0.2217
13567SOL    HW242570   3.201   2.505   7.375 -1.4165  0.3117 -0.2864
13568SOL     OW42571   8.096   4.751   4.385  0.1888 -1.1809  0.5920
13568SOL    HW142572   8.186   4.769   4.413  0.5265 -1.1402 -0.4785
13568SOL    HW242573   8.045   4.753   4.466  0.6666  1.7188  0.9057
13569SOL     OW42574   5.669   1.079   1.588 -0.2711  0.2499 -0.4633
13569SOL    HW142575   5.601   1.016   1.565  0.7472 -0.6495 -1.0764
13569SOL    HW242576   5.638   1.120   1.669 -1.1269 -0.7424 -0.2758
13570SOL     OW42577   5.380   0.854   3.354 -0.8410 -0.2079 -0.2655
13570SOL    HW142578   5.326   0.852   3.276 -1.6545  0.6250  0.2620
13570SOL    HW242579   5.319   0.868   3.426  0.1466  2.2123  0.2147
13571SOL     OW42580   7.407   6.521   3.288 -0.1275 -0.0481  0.0379
13571SOL    HW142581   7.483   6.578   3.275 -0.1473  0.3123  1.3449
13571SOL    HW242582   7.444   6.434   3.302  0.0503  0.1205  0.6382
13572SOL     OW42583   4.339   1.643   7.865  0.9188  0.1703 -0.1031
13572SOL    HW142584   4.383   1.726   7.883  0.0986  0.8647 -1.1758
13572SOL    HW242585   4.269   1.666   7.805  0.9129 -1.3709 -0.7216
13573SOL     OW42586   3.665   5.773   5.533  0.4763  0.8158  0.2949
13573SOL    HW142587   3.674   5.706   5.465  0.5164  0.4421  0.6695
13573SOL    HW242588   3.606   5.735   5.598 -0.1474  1.4561  0.1220
13574SOL     OW42589   2.999   7.974   0.094  0.5166  0.0606  0.2864
13574SOL    HW142590   3.032   7.910   0.031  0.5226 -0.4284  0.7758
13574SOL    HW242591   2.958   7.922   0.163 -1.4291  0.6437 -0.3559
13575SOL     OW42592   8.209   4.382   6.010 -0.5013 -0.2915  0.2093
13575SOL    HW142593   8.190   4.426   5.927 -0.2544  2.2251  1.3937
13575SOL    HW242594   8.289   4.332   5.994  0.3371  1.2956 -0.6935
13576SOL     OW42595   6.346   2.917   8.807 -0.1660 -0.4229  0.0946
13576SOL    HW142596   6.321   2.850   8.871  2.0700 -2.6247 -1.1634
13576SOL    HW242597   6.266   2.969   8.794 -1.4075 -1.5206  2.6754
13577SOL     OW42598   6.143   5.727   6.240  0.0747  0.9242 -0.2864
13577SOL    HW142599   6.129   5.796   6.175 -0.1631  0.3509 -0.8505
13577SOL    HW242600   6.204   5.666   6.198  0.0540  0.6356  0.0977
13578SOL     OW42601   1.265   3.886   2.694 -0.0759  0.0711  0.2073
13578SOL    HW142602   1.256   3.923   2.607 -2.0976  0.9994  0.7582
13578SOL    HW242603   1.355   3.853   2.697  0.0781  0.1090 -2.1598
13579SOL     OW42604   8.848   3.844   6.895 -0.3184  0.3350 -0.1891
13579SOL    HW142605   8.900   3.914   6.934  0.9848 -0.7282  0.0664
13579SOL    HW242606   8.829   3.875   6.806  1.0658  0.6162 -0.4075
13580SOL     OW42607   3.853   3.121   8.978 -0.5423  0.3406 -0.3197
13580SOL    HW142608   3.827   3.050   9.036 -1.2856 -1.6168 -2.8611
13580SOL    HW242609   3.945   3.134   8.997 -0.1302 -1.9870 -0.3808
13581SOL     OW42610   3.235   4.353   8.595 -0.3375  0.2384  0.1390
13581SOL    HW142611   3.171   4.423   8.609 -0.7568  0.1925 -1.3264
13581SOL    HW242612   3.198   4.277   8.641 -0.8833  0.4659  0.0839
13582SOL     OW42613   5.918   0.010   3.346 -0.9537 -0.3492  0.3992
13582SOL    HW142614   6.009   0.040   3.342 -1.2491  0.7497  1.4140
13582SOL    HW242615   5.871   0.081   3.390 -1.8980 -1.8172  1.8793
13583SOL     OW42616   5.063   1.102   6.452  0.3608  0.5301 -0.5481
13583SOL    HW142617   5.111   1.134   6.529  0.0450  0.0503 -0.1436
13583SOL    HW242618   4.997   1.170   6.435  1.2532  1.2543 -1.1884
13584SOL     OW42619   7.595   4.838   1.231 -0.1100 -0.3021 -0.1056
13584SOL    HW142620   7.546   4.880   1.302 -0.4607 -0.9934  0.0632
13584SOL    HW242621   7.571   4.888   1.153 -2.6237 -1.7758 -0.3863
13585SOL     OW42622   8.368   8.227   5.555 -0.0730  0.8175  0.0816
13585SOL    HW142623   8.446   8.230   5.610 -0.9703  0.4821  1.3944
13585SOL    HW242624   8.327   8.143   5.574  0.6715 -0.2835 -2.6669
13586SOL     OW42625   4.744   1.093   4.745  0.1870 -0.0872  0.0223
13586SOL    HW142626   4.712   1.159   4.683 -0.5509  0.5009  0.9962
13586SOL    HW242627   4.669   1.034   4.757  0.6136 -0.7019 -0.3039
13587SOL     OW42628   4.342   4.483   1.655 -0.4494  0.3106  0.3708
13587SOL    HW142629   4.251   4.472   1.682 -0.0850  1.2444  2.1696
13587SOL    HW242630   4.367   4.570   1.687  1.3427 -0.3026  0.8021
13588SOL     OW42631   0.519   3.610   3.645  0.1023 -0.3412 -0.1523
13588SOL    HW142632   0.447   3.550   3.624 -0.5127  0.4186 -0.2813
13588SOL    HW242633   0.537   3.594   3.737 -0.7273 -0.0456  0.0716
13589SOL     OW42634   3.459   2.545   8.642 -0.4216 -0.1257  0.0906
13589SOL    HW142635   3.487   2.628   8.681 -1.5383  0.5760 -0.5508
13589SOL    HW242636   3.527   2.526   8.577 -0.3526  0.4926 -0.0249
13590SOL     OW42637   4.560   1.290   8.383  0.2911  0.4172  0.0365
13590SOL    HW142638   4.617   1.239   8.326  1.7666  1.0949  0.8582
13590SOL    HW242639   4.508   1.224   8.430  0.1143 -0.1923 -0.9869
13591SOL     OW42640   6.253   7.796   1.608  0.0304 -0.1219 -0.4936
13591SOL    HW142641   6.344   7.824   1.620 -0.2953  0.2645  1.5477
13591SOL    HW242642   6.207   7.874   1.578  0.0036  0.3188  0.6157
13592SOL     OW42643   6.216   8.308   6.236  0.2031  1.0361 -0.1764
13592SOL    HW142644   6.164   8.371   6.188 -0.8463  0.3880  0.0870
13592SOL    HW242645   6.155   8.238   6.259  1.5370 -0.6462 -1.4184
13593SOL     OW42646   2.604   1.982   5.209 -0.0246 -0.2513  0.4265
13593SOL    HW142647   2.583   2.075   5.218 -1.0024 -0.2802 -1.1832
13593SOL    HW242648   2.641   1.974   5.122 -2.0982 -1.6763 -0.3992
13594SOL     OW42649   1.978   6.454   5.486  0.1318  0.0585 -0.0423
13594SOL    HW142650   1.948   6.489   5.402  0.1452 -0.9322 -0.4699
13594SOL    HW242651   1.900   6.415   5.525  0.1556  0.3991  0.3501
13595SOL     OW42652   4.144   2.183   0.494  0.3393  0.6750 -0.3492
13595SOL    HW142653   4.190   2.244   0.435 -1.2262  1.0957 -1.1797
13595SOL    HW242654   4.080   2.140   0.438 -1.3541  1.2612  1.0675
13596SOL     OW42655   0.667   0.266   5.081  0.1158  0.5014 -0.0272
13596SOL    HW142656   0.582   0.248   5.121 -0.1159  0.3380 -0.5735
13596SOL    HW242657   0.729   0.263   5.153  0.0256 -1.9035  0.0430
13597SOL     OW42658   8.159   5.031   3.627  0.6807 -0.5774 -0.1291
13597SOL    HW142659   8.160   4.970   3.701 -1.1405 -0.5201 -0.0127
13597SOL    HW242660   8.082   5.005   3.576  0.8665  0.5326 -1.0092
13598SOL     OW42661   0.941   7.687   5.593  0.0754 -0.0708  0.2346
13598SOL    HW142662   0.921   7.732   5.511 -1.9990  0.2534  0.8569
13598SOL    HW242663   1.010   7.624   5.570  0.4523  0.9003 -1.4470
13599SOL     OW42664   5.899   5.595   6.238 -0.0664 -0.5955 -0.1747
13599SOL    HW142665   5.937   5.527   6.294  0.6109  0.0009  0.1111
13599SOL    HW242666   5.971   5.656   6.222 -0.6268 -0.0078 -0.5296
13600SOL     OW42667   8.425   8.765   1.227  0.0262  0.0195 -0.3461
13600SOL    HW142668   8.331   8.768   1.211  0.1127 -1.4431 -1.3687
13600SOL    HW242669   8.441   8.678   1.263  0.8848  0.5939  0.7315
13601SOL     OW42670   8.565   1.589   5.740 -0.2905 -0.0976  0.1779
13601SOL    HW142671   8.570   1.665   5.798 -1.3010 -0.5879  0.9384
13601SOL    HW242672   8.505   1.528   5.785  0.8409 -1.5362 -0.1793
13602SOL     OW42673   5.476   1.467   6.841 -0.0091  0.3713  0.4326
13602SOL    HW142674   5.475   1.433   6.930  0.0631 -1.9367 -0.3843
13602SOL    HW242675   5.399   1.429   6.800  1.7332 -1.4162 -1.4126
13603SOL     OW42676   2.099   1.195   0.393 -0.4377  0.4232 -0.6367
13603SOL    HW142677   2.165   1.243   0.344  0.6982 -1.4168 -1.0362
13603SOL    HW242678   2.023   1.190   0.334 -0.9256  2.4267 -0.2310
13604SOL     OW42679   7.110   6.033   1.890  0.4102 -0.5113  0.5391
13604SOL    HW142680   7.128   6.122   1.919  0.2316 -0.0625 -0.6373
13604SOL    HW242681   7.020   6.037   1.855  1.1781 -0.5399 -1.6330
13605SOL     OW42682   3.789   6.568   4.469  0.0920  0.2429  0.1030
13605SOL    HW142683   3.833   6.624   4.405  0.0925 -3.4943 -3.5712
13605SOL    HW242684   3.840   6.487   4.470 -2.7011 -1.6708  1.0765
13606SOL     OW42685   4.620   4.963   5.838 -0.2830 -0.5406 -0.5238
13606SOL    HW142686   4.710   4.943   5.815 -0.2302 -0.7917 -0.1205
13606SOL    HW242687   4.594   4.891   5.896 -0.2325  0.3332  0.6158
13607SOL     OW42688   4.960   7.514   1.685 -0.3337  0.0650  0.2352
13607SOL    HW142689   4.985   7.480   1.598  3.2103 -0.2415  1.2230
13607SOL    HW242690   4.897   7.450   1.717  2.3482 -3.0117 -0.0435
13608SOL     OW42691   0.417   3.731   7.305 -0.0250 -0.2829  0.0351
13608SOL    HW142692   0.430   3.663   7.239 -1.7272 -0.9757  0.3796
13608SOL    HW242693   0.500   3.733   7.354  0.2820 -1.6636 -0.3919
13609SOL     OW42694   2.596   1.036   8.715  0.0694  0.6145 -0.7064
13609SOL    HW142695   2.500   1.039   8.704  0.0810  0.4118 -0.8749
13609SOL    HW242696   2.630   1.069   8.632  0.1638 -1.3853 -1.4993
13610SOL     OW42697   3.478   5.996   4.754 -0.5954 -0.0163  0.5669
13610SOL    HW142698   3.431   6.077   4.774 -0.6532 -0.4192  2.1854
13610SOL    HW242699   3.570   6.023   4.748 -0.7606  0.3831 -0.2425
13611SOL     OW42700   5.758   0.373   2.018 -0.1090 -0.0146 -0.0271
13611SOL    HW142701   5.846   0.401   2.043 -0.2115  0.5235 -0.2401
13611SOL    HW242702   5.719   0.340   2.099  0.6353 -1.2256 -0.1457
13612SOL     OW42703   5.716   0.148   4.849  0.0559  0.3053 -0.3839
13612SOL    HW142704   5.659   0.195   4.788 -0.2292 -1.2450 -1.3738
13612SOL    HW242705   5.692   0.181   4.936 -4.1807 -1.9733 -0.4602
13613SOL     OW42706   8.547   5.410   3.701 -0.0289 -0.2153 -0.2874
13613SOL    HW142707   8.507   5.441   3.782 -1.2277 -0.4068 -0.7837
13613SOL    HW242708   8.491   5.337   3.673  0.2908 -0.0661 -1.3589
13614SOL     OW42709   7.900   8.385   5.878  0.0426  0.1347  0.0070
13614SOL    HW142710   7.882   8.401   5.971  2.4070  0.1769  0.5382
13614SOL    HW242711   7.933   8.296   5.875  1.6112  0.6946 -0.4766
13615SOL     OW42712   8.115   2.870   2.595 -0.1028 -0.0377  0.4465
13615SOL    HW142713   8.116   2.950   2.647  1.0607 -1.3275  2.5831
13615SOL    HW242714   8.172   2.810   2.643  2.2652 -0.9270 -3.1532
13616SOL     OW42715   7.789   7.236   8.681 -0.2598 -0.4034 -0.1610
13616SOL    HW142716   7.846   7.244   8.604 -0.5375  1.4850 -0.2315
13616SOL    HW242717   7.735   7.315   8.678 -0.7780 -0.6594  1.5861
13617SOL     OW42718   6.430   3.191   3.215  0.2359 -0.2670  0.3499
13617SOL    HW142719   6.367   3.229   3.276  0.0936  0.9619 -0.5469
13617SOL    HW242720   6.514   3.230   3.240  0.4876 -1.1272  0.8898
13618SOL     OW42721   3.759   7.998   6.222  0.0697  0.1510  0.2786
13618SOL    HW142722   3.852   7.994   6.199 -0.0433 -2.4217 -0.0360
13618SOL    HW242723   3.714   8.005   6.138 -0.0637 -0.4750  0.2940
13619SOL     OW42724   7.590   5.900   3.700 -0.2592  0.1008  0.2152
13619SOL    HW142725   7.554   5.980   3.662  0.0569 -0.0742 -0.4671
13619SOL    HW242726   7.526   5.833   3.680  0.2756 -0.1450 -0.7060
13620SOL     OW42727   2.336   2.864   2.617  1.0630 -0.0084  0.0580
13620SOL    HW142728   2.288   2.819   2.547  1.8807  1.4520 -1.5140
13620SOL    HW242729   2.267   2.905   2.670  0.4687  0.0318 -0.7243
13621SOL     OW42730   2.664   5.030   8.437  0.9011 -0.0429  0.0524
13621SOL    HW142731   2.713   4.949   8.454  0.7743 -0.5091 -1.6029
13621SOL    HW242732   2.586   5.022   8.492  0.5971 -1.3462 -0.5243
13622SOL     OW42733   4.700   3.409   7.679 -0.7146  0.4528  0.5175
13622SOL    HW142734   4.711   3.485   7.736  0.8000 -0.5661  1.6826
13622SOL    HW242735   4.749   3.430   7.599 -1.2003  1.1137  0.3936
13623SOL     OW42736   6.560   6.715   4.799 -0.4068 -0.2702 -0.2093
13623SOL    HW142737   6.536   6.778   4.730 -1.0395 -0.3130 -0.0336
13623SOL    HW242738   6.479   6.668   4.818 -0.3575  0.0731  0.9073
13624SOL     OW42739   6.032   1.196   6.068  0.4560 -0.5626  0.2347
13624SOL    HW142740   6.120   1.199   6.105  0.5772  0.8548 -0.1173
13624SOL    HW242741   6.037   1.252   5.990 -0.9277  0.1068  0.5996
13625SOL     OW42742   8.218   5.453   3.487 -0.1472  0.4720 -0.1819
13625SOL    HW142743   8.126   5.452   3.510  0.1257 -1.6288  1.0536
13625SOL    HW242744   8.262   5.412   3.561  1.6195  0.0661 -1.3927
13626SOL     OW42745   6.364   1.975   1.591 -0.2078 -0.3009 -0.2894
13626SOL    HW142746   6.278   1.934   1.595 -1.0601  1.1524 -1.9757
13626SOL    HW242747   6.407   1.935   1.516 -1.2570  2.0413 -2.2966
13627SOL     OW42748   1.004   2.310   2.842 -0.3780  0.2529  0.1354
13627SOL    HW142749   1.047   2.282   2.923  1.3992  1.0456 -0.4863
13627SOL    HW242750   0.947   2.382   2.869  2.3646  2.4964  0.3560
13628SOL     OW42751   5.444   5.091   7.935 -0.3265  0.6877  0.3804
13628SOL    HW142752   5.510   5.115   7.870  0.0463 -0.9055  0.1376
13628SOL    HW242753   5.372   5.152   7.919 -0.1958  0.4123 -1.4832
13629SOL     OW42754   0.753   1.749   7.575 -1.3030 -0.1271 -0.3124
13629SOL    HW142755   0.664   1.738   7.541 -1.3600 -0.2503 -0.1243
13629SOL    HW242756   0.759   1.843   7.594 -0.8306  0.1860 -1.8641
13630SOL     OW42757   3.265   2.578   7.882  0.1300  0.0887  0.6240
13630SOL    HW142758   3.251   2.589   7.976  0.2464 -1.1697  0.8068
13630SOL    HW242759   3.204   2.508   7.857 -1.8913  2.2027 -0.7911
13631SOL     OW42760   1.376   0.599   0.598  0.5710  0.1249  0.0194
13631SOL    HW142761   1.300   0.613   0.654 -0.1959 -1.1113 -0.6787
13631SOL    HW242762   1.376   0.674   0.538 -0.6832 -0.3429 -0.5967
13632SOL     OW42763   0.176   4.554   2.094 -0.0108  0.4383 -0.2616
13632SOL    HW142764   0.128   4.496   2.035 -0.9529  0.3844  0.5267
13632SOL    HW242765   0.118   4.628   2.109  0.1414  0.3841  0.6960
13633SOL     OW42766   1.103   8.789   5.518  0.8827  0.0416 -0.5921
13633SOL    HW142767   1.088   8.695   5.521  1.6812 -0.0707  0.3058
13633SOL    HW242768   1.178   8.804   5.577  0.8324  1.2167 -0.7947
13634SOL     OW42769   6.832   2.716   0.803  0.1169 -0.0511 -0.0350
13634SOL    HW142770   6.920   2.679   0.810  0.9643  2.1030  1.7523
13634SOL    HW242771   6.843   2.792   0.747 -0.2570  1.1201  1.4336
13635SOL     OW42772   7.683   1.799   2.894  1.1685 -0.6450  0.0267
13635SOL    HW142773   7.596   1.838   2.903  1.4173 -0.4833  2.9731
13635SOL    HW242774   7.743   1.874   2.894  1.3907 -0.8194 -0.2296
13636SOL     OW42775   5.051   5.563   7.197  0.3900  0.2291  0.1283
13636SOL    HW142776   5.092   5.642   7.163  2.1781 -1.5825 -2.2475
13636SOL    HW242777   5.124   5.509   7.229 -0.5067 -1.4380 -0.5092
13637SOL     OW42778   4.329   6.950   1.696 -0.4915 -0.3358 -0.0150
13637SOL    HW142779   4.354   7.006   1.622 -1.2228  1.1030  0.7910
13637SOL    HW242780   4.412   6.925   1.736 -0.1499  1.4457  0.4944
13638SOL     OW42781   1.725   3.593   0.541 -0.3852  0.2146 -0.0038
13638SOL    HW142782   1.761   3.581   0.629 -1.3553 -0.0356  0.3786
13638SOL    HW242783   1.668   3.670   0.549 -0.0719  0.5037 -0.5445
13639SOL     OW42784   5.446   7.154   0.315 -0.5417  0.1498 -0.1077
13639SOL    HW142785   5.498   7.082   0.351  0.3185  1.1428  0.7112
13639SOL    HW242786   5.439   7.135   0.222 -0.3469 -0.9876  0.0933
13640SOL     OW42787   6.336   6.186   1.759  0.0132 -0.9943 -0.3118
13640SOL    HW142788   6.274   6.243   1.805 -0.2405 -0.4276 -1.3139
13640SOL    HW242789   6.282   6.116   1.723  0.0404 -0.8581 -0.6269
13641SOL     OW42790   8.148   0.328   7.956 -0.1784 -0.0446  0.1919
13641SOL    HW142791   8.188   0.246   7.986  0.9711  0.3960 -0.0819
13641SOL    HW242792   8.135   0.315   7.862 -1.5560 -0.5266  0.4319
13642SOL     OW42793   0.159   3.630   7.150 -0.2871  0.0260 -0.2649
13642SOL    HW142794   0.134   3.665   7.064 -0.6432  1.1002  0.2634
13642SOL    HW242795   0.232   3.684   7.178 -1.8722  1.5029  1.2851
13643SOL     OW42796   8.632   2.180   7.060 -0.0187 -0.1737  0.1683
13643SOL    HW142797   8.665   2.237   7.129 -0.1788  0.1672 -0.0343
13643SOL    HW242798   8.537   2.191   7.063  0.0402  0.8720 -0.9710
13644SOL     OW42799   8.569   2.678   2.932 -0.0190 -0.0963 -0.1946
13644SOL    HW142800   8.585   2.668   2.838 -0.3747 -0.9639 -0.1753
13644SOL    HW242801   8.529   2.595   2.959 -2.0311  0.9514  0.2843
13645SOL     OW42802   3.626   7.882   3.508 -0.0570 -0.3029  0.2701
13645SOL    HW142803   3.699   7.898   3.567 -0.3787 -0.5258  0.7359
13645SOL    HW242804   3.667   7.860   3.424  0.4195 -0.7964  0.6221
13646SOL     OW42805   6.911   6.744   5.160  0.0933 -0.0959  0.5221
13646SOL    HW142806   6.861   6.758   5.079  0.8134 -1.5721 -0.2087
13646SOL    HW242807   6.983   6.806   5.154  0.0528 -0.0828  0.1029
13647SOL     OW42808   7.952   7.230   6.781  0.2453  0.1801 -0.4400
13647SOL    HW142809   8.039   7.192   6.796  0.7694  1.3565 -0.4003
13647SOL    HW242810   7.901   7.158   6.743  0.7549 -1.0092  1.0080
13648SOL     OW42811   8.176   5.930   8.844 -0.4822  0.5132  0.1285
13648SOL    HW142812   8.111   5.881   8.795 -2.5232  2.0489  1.1175
13648SOL    HW242813   8.212   5.867   8.906 -0.3481 -0.5845 -1.0151
13649SOL     OW42814   7.399   0.899   1.217  0.2055 -0.3737  0.2707
13649SOL    HW142815   7.344   0.823   1.234  0.2105 -0.4047  0.1415
13649SOL    HW242816   7.342   0.960   1.170  0.2478 -0.3596  0.2382
13650SOL     OW42817   2.430   4.706   5.247  0.3867 -0.0276  0.2770
13650SOL    HW142818   2.339   4.708   5.275  0.6288 -2.3341  1.4648
13650SOL    HW242819   2.428   4.738   5.156 -1.1890  2.2970  1.0373
13651SOL     OW42820   0.827   5.947   3.169 -0.3187 -0.0998 -0.5552
13651SOL    HW142821   0.906   5.894   3.160  1.2247  2.1421 -0.7559
13651SOL    HW242822   0.851   6.033   3.136 -3.1166  0.4632 -1.4393
13652SOL     OW42823   6.307   4.182   1.527 -0.5731 -0.3704  1.2098
13652SOL    HW142824   6.223   4.157   1.488 -0.1849  0.3254 -0.1300
13652SOL    HW242825   6.346   4.100   1.555 -1.3212 -0.7820  1.0734
13653SOL     OW42826   0.762   7.273   4.548  0.8795 -0.1991 -0.1524
13653SOL    HW142827   0.699   7.210   4.583  0.9453 -0.4606 -0.5059
13653SOL    HW242828   0.806   7.308   4.625  2.9935 -2.7672 -0.0575
13654SOL     OW42829   5.342   4.393   3.433  0.0462  0.3950 -0.0648
13654SOL    HW142830   5.430   4.357   3.439 -0.6081 -1.1704  0.4418
13654SOL    HW242831   5.307   4.359   3.351 -1.1168 -1.4513  1.1369
13655SOL     OW42832   4.273   5.878   5.036  0.6516 -0.6466  0.2182
13655SOL    HW142833   4.313   5.951   4.990  0.9962 -0.6814  0.4628
13655SOL    HW242834   4.310   5.800   4.994 -0.0539 -0.6918 -0.3444
13656SOL     OW42835   0.488   2.778   4.664  0.1309 -0.0414 -0.1652
13656SOL    HW142836   0.493   2.762   4.759 -0.4246  0.2152 -0.0938
13656SOL    HW242837   0.490   2.690   4.626  1.2228 -0.1235  0.0367
13657SOL     OW42838   1.675   1.945   8.517  0.0863 -0.0370  0.6719
13657SOL    HW142839   1.596   1.895   8.496  0.0742 -0.5966  1.9881
13657SOL    HW242840   1.723   1.949   8.434 -0.4284 -1.3210  0.2800
13658SOL     OW42841   0.927   3.316   6.402  0.8835 -0.1473 -0.3172
13658SOL    HW142842   0.887   3.306   6.316 -2.2497  1.7485  0.7687
13658SOL    HW242843   0.994   3.383   6.390  2.4333 -1.8238 -1.7231
13659SOL     OW42844   7.007   6.076   6.196 -0.0116  0.1464 -0.4677
13659SOL    HW142845   7.061   6.078   6.117 -1.0644 -0.3477 -1.2374
13659SOL    HW242846   6.922   6.044   6.165 -0.2711 -0.6437  0.9766
13660SOL     OW42847   7.964   5.161   0.854 -0.1948 -0.3766 -0.0123
13660SOL    HW142848   8.022   5.192   0.923 -0.6249 -1.5875  0.9381
13660SOL    HW242849   8.022   5.119   0.791  0.0133 -1.2662  0.7552
13661SOL     OW42850   0.005   1.531   2.110  0.3195 -0.2583 -0.6736
13661SOL    HW142851  -0.044   1.595   2.162 -0.8073 -1.0595 -0.7025
13661SOL    HW242852   0.069   1.495   2.172  0.4606  0.3535 -0.4525
13662SOL     OW42853   5.637   3.133   3.234 -0.0003 -0.0210  0.4674
13662SOL    HW142854   5.635   3.211   3.178  2.2653  0.8779  1.5003
13662SOL    HW242855   5.621   3.168   3.322  1.4638 -0.6090  0.9985
13663SOL     OW42856   8.966   2.945   6.375  0.1331 -0.2788 -0.2938
13663SOL    HW142857   8.968   2.934   6.280 -1.2029  0.1950 -0.3939
13663SOL    HW242858   8.912   2.873   6.406  0.1370 -0.1288  0.0616
13664SOL     OW42859   8.435   8.941   2.291 -0.1246 -0.4134  0.3582
13664SOL    HW142860   8.508   8.933   2.230  0.4479 -2.2438  1.1984
13664SOL    HW242861   8.433   9.033   2.315 -0.5055  0.4031 -2.5366
13665SOL     OW42862   2.568   4.485   5.919 -0.5652 -0.5318 -0.2444
13665SOL    HW142863   2.531   4.550   5.860  1.5652  0.4771 -0.5487
13665SOL    HW242864   2.511   4.409   5.909 -3.0900  1.1844  0.0377
13666SOL     OW42865   0.988   1.147   6.077 -0.1327 -0.1620 -0.0002
13666SOL    HW142866   1.015   1.107   6.159 -1.6841  0.9856  1.1271
13666SOL    HW242867   0.894   1.160   6.086 -0.2312  0.6125 -1.6908
13667SOL     OW42868   4.790   3.673   1.933  0.0966 -0.5571 -0.0738
13667SOL    HW142869   4.697   3.690   1.918  0.2575 -0.2644 -0.7930
13667SOL    HW242870   4.831   3.690   1.848  0.8122 -0.6477  0.2489
13668SOL     OW42871   2.922   4.030   4.758  0.0996 -0.5620  0.0232
13668SOL    HW142872   2.976   3.956   4.786  1.8095 -0.4886 -2.6900
13668SOL    HW242873   2.875   3.997   4.682 -0.7750  0.5320  0.0666
13669SOL     OW42874   2.308   2.642   0.810 -0.3239  0.0491  0.1324
13669SOL    HW142875   2.339   2.614   0.896 -2.0165 -0.8755  0.4742
13669SOL    HW242876   2.310   2.562   0.757 -0.3345  0.3785 -0.3731
13670SOL     OW42877   7.256   8.838   5.743 -0.2737 -0.0727  0.3723
13670SOL    HW142878   7.202   8.761   5.763  1.0115 -1.2340 -0.4420
13670SOL    HW242879   7.346   8.804   5.744  0.4018  1.6453  0.9514
13671SOL     OW42880   1.627   3.730   4.098  0.1494 -0.2991 -0.3028
13671SOL    HW142881   1.618   3.825   4.104  1.4300 -0.1876  0.1369
13671SOL    HW242882   1.709   3.711   4.144 -0.3573 -1.6751  0.0654
13672SOL     OW42883   4.654   1.633   1.622 -0.5101  0.7333  0.4477
13672SOL    HW142884   4.639   1.556   1.677  1.8236 -0.8116 -0.9149
13672SOL    HW242885   4.568   1.652   1.585 -1.1503 -1.3103  0.7320
13673SOL     OW42886   7.215   0.177   4.644  0.1139 -1.4272 -0.0475
13673SOL    HW142887   7.260   0.141   4.568 -0.1599 -1.7629 -0.0517
13673SOL    HW242888   7.283   0.179   4.712  0.8024  0.3902 -0.7336
13674SOL     OW42889   2.771   4.950   5.154  0.1779  0.0246  0.2823
13674SOL    HW142890   2.781   4.937   5.060  0.6229  1.3857  0.1245
13674SOL    HW242891   2.795   4.865   5.192  0.0389 -0.5296 -0.8155
13675SOL     OW42892   6.496   1.730   2.966 -0.0464  0.4136 -0.6035
13675SOL    HW142893   6.440   1.673   2.913  1.3616 -2.1026  0.4582
13675SOL    HW242894   6.436   1.771   3.028 -0.9219 -1.2283 -0.3155
13676SOL     OW42895   8.162   3.829   7.246  0.1535  0.3244 -0.4859
13676SOL    HW142896   8.176   3.885   7.322  0.7671 -1.5189  0.8043
13676SOL    HW242897   8.248   3.792   7.227 -0.0792  0.4205 -1.8254
13677SOL     OW42898   8.016   8.568   6.305  0.0700 -0.0241  0.4547
13677SOL    HW142899   8.025   8.616   6.387 -0.0705  0.2927  0.2858
13677SOL    HW242900   8.041   8.478   6.327  2.0440  0.4670  0.3836
13678SOL     OW42901   2.646   8.403   1.539 -0.2398 -0.5987  0.4774
13678SOL    HW142902   2.704   8.410   1.463  0.4692 -0.8111  0.9910
13678SOL    HW242903   2.652   8.488   1.582 -2.3898  0.3388 -0.9116
13679SOL     OW42904   7.088   4.270   8.149  0.3643 -0.0653 -0.2899
13679SOL    HW142905   7.085   4.317   8.233 -0.5734  0.6890 -0.7273
13679SOL    HW242906   7.027   4.197   8.161 -3.6021  2.6302 -1.7460
13680SOL     OW42907   5.827   4.452   2.404  0.3970 -0.1945 -0.5076
13680SOL    HW142908   5.768   4.524   2.382  0.7799 -0.7113 -3.6427
13680SOL    HW242909   5.776   4.373   2.387  0.6661 -0.7076  0.8894
13681SOL     OW42910   1.644   1.400   1.614  0.2989 -0.6603 -0.1876
13681SOL    HW142911   1.595   1.420   1.535 -1.4348 -0.4163  0.9070
13681SOL    HW242912   1.578   1.382   1.680  1.5772  1.6197  1.8769
13682SOL     OW42913   5.175   6.575   1.554  0.0098 -0.8162 -0.3082
13682SOL    HW142914   5.112   6.528   1.608  1.0897 -0.2126  1.5610
13682SOL    HW242915   5.251   6.587   1.610  0.1926  2.2413 -1.0084
13683SOL     OW42916   2.688   2.485   2.888  0.4067 -0.1986 -0.4194
13683SOL    HW142917   2.642   2.563   2.857  0.8049  0.7889  1.3390
13683SOL    HW242918   2.781   2.503   2.870  0.5548  0.0076  0.4943
13684SOL     OW42919   4.536   7.314   0.233 -0.7280 -0.3983  0.1659
13684SOL    HW142920   4.595   7.251   0.190 -2.1611 -0.3509 -2.0583
13684SOL    HW242921   4.575   7.329   0.319  2.7427 -0.0813 -1.2901
13685SOL     OW42922   0.690   1.422   5.101  0.4999 -0.2558 -0.2249
13685SOL    HW142923   0.637   1.468   5.166  0.1294  0.6847 -1.1676
13685SOL    HW242924   0.671   1.329   5.116  1.0851 -0.1143  1.5545
13686SOL     OW42925   1.884   4.494   6.921 -0.3792  0.2597 -0.3470
13686SOL    HW142926   1.860   4.546   6.998 -0.9558 -0.1901 -0.2081
13686SOL    HW242927   1.975   4.515   6.904 -0.4530  0.8997  0.0359
13687SOL     OW42928   2.069   1.110   3.550  0.5150 -0.4037 -0.0727
13687SOL    HW142929   2.149   1.145   3.511  0.0430  0.9166  0.0805
13687SOL    HW242930   2.090   1.099   3.642  0.2898  0.7799  0.1440
13688SOL     OW42931   7.333   5.248   0.670 -0.2694  0.1594  0.6714
13688SOL    HW142932   7.275   5.193   0.617  1.2595  0.0285 -0.9965
13688SOL    HW242933   7.379   5.302   0.605  0.5564  1.1261  2.0253
13689SOL     OW42934   4.278   4.102   0.025  0.4567  0.1623 -0.0667
13689SOL    HW142935   4.334   4.059  -0.041  0.9048 -0.5727  0.7715
13689SOL    HW242936   4.287   4.047   0.103  0.7083  1.5574  0.9189
13690SOL     OW42937   4.671   2.489   0.461 -0.1590 -0.1225  0.4929
13690SOL    HW142938   4.653   2.397   0.480 -0.8551  0.0775  0.8056
13690SOL    HW242939   4.611   2.538   0.517  0.8190  0.5429  0.9907
13691SOL     OW42940   7.036   8.451   4.332  0.4240 -0.0066  0.1296
13691SOL    HW142941   7.038   8.546   4.323  0.5108  0.3446  2.9799
13691SOL    HW242942   6.943   8.429   4.336  0.4111 -0.0470 -0.2684
13692SOL     OW42943   4.549   5.700   3.560 -0.3583  0.3141  0.3795
13692SOL    HW142944   4.479   5.714   3.624 -0.6903  2.6915 -0.4029
13692SOL    HW242945   4.624   5.670   3.612 -1.5431 -0.9789  1.3992
13693SOL     OW42946   3.042   2.606   3.898  0.6040  0.1719 -0.4584
13693SOL    HW142947   3.045   2.512   3.910 -1.4600  0.1493  0.0804
13693SOL    HW242948   3.099   2.622   3.822  0.4817 -1.5661 -0.9498
13694SOL     OW42949   4.402   2.909   5.792  0.3225 -0.6906  0.1813
13694SOL    HW142950   4.383   2.928   5.701  1.8603 -0.1189 -0.0528
13694SOL    HW242951   4.495   2.929   5.802  0.2542 -1.0143  1.8043
13695SOL     OW42952   6.934   8.959   5.555 -0.3416 -0.5640 -0.2815
13695SOL    HW142953   6.909   8.960   5.463  1.2510  1.5549 -0.8003
13695SOL    HW242954   6.866   9.011   5.599 -1.1690 -1.6792 -0.2183
13696SOL     OW42955   6.513   2.570   7.690 -0.2489 -0.4158 -0.1251
13696SOL    HW142956   6.462   2.539   7.615 -0.6593 -1.4038  0.5452
13696SOL    HW242957   6.526   2.664   7.673  1.3744 -0.9701 -2.3875
13697SOL     OW42958   4.779   7.637   6.104 -0.0945  0.6150  0.2509
13697SOL    HW142959   4.864   7.667   6.136 -0.6137  1.7790  0.5854
13697SOL    HW242960   4.725   7.716   6.101 -0.3868  0.3892 -2.5833
13698SOL     OW42961   5.354   8.624   2.877 -0.1163 -0.0410 -0.4964
13698SOL    HW142962   5.425   8.586   2.929  0.6296  0.5142 -1.0904
13698SOL    HW242963   5.275   8.606   2.928  0.4132 -0.9165  0.0382
13699SOL     OW42964   1.769   0.478   1.646 -0.2422 -0.0941 -0.1013
13699SOL    HW142965   1.856   0.459   1.680 -0.2662 -1.9605 -0.9374
13699SOL    HW242966   1.756   0.571   1.663  0.9148 -0.2829  2.2365
13700SOL     OW42967   0.439   5.208   3.939 -0.2726 -0.0985 -0.5405
13700SOL    HW142968   0.405   5.167   3.860  0.3780 -0.5588 -0.5930
13700SOL    HW242969   0.419   5.301   3.929  0.1731 -0.0909 -1.4424
13701SOL     OW42970   6.416   7.099   7.657 -0.1332 -1.0536 -0.1725
13701SOL    HW142971   6.416   7.130   7.748  1.1386  0.7456 -0.7385
13701SOL    HW242972   6.327   7.118   7.626 -0.1345 -0.2693  0.2657
13702SOL     OW42973   6.747   4.530   5.106 -0.6107  0.3777 -0.5699
13702SOL    HW142974   6.657   4.543   5.074 -0.4952 -1.2040 -1.5873
13702SOL    HW242975   6.767   4.439   5.086 -0.0993 -0.4477  2.9902
13703SOL     OW42976   1.632   3.251   0.084  0.0022 -0.3963 -0.3727
13703SOL    HW142977   1.647   3.285   0.172 -0.7999 -1.1413  0.0684
13703SOL    HW242978   1.714   3.270   0.037 -0.2124  1.6416 -0.0186
13704SOL     OW42979   6.256   2.901   3.997  0.1006  0.1941 -0.0835
13704SOL    HW142980   6.196   2.867   4.063 -0.7762  0.3294 -0.7870
13704SOL    HW242981   6.327   2.941   4.047  0.2124 -1.0248  0.7543
13705SOL     OW42982   1.966   4.864   8.610 -0.5607  0.3032 -0.2211
13705SOL    HW142983   1.951   4.793   8.548  1.5674 -0.1652 -0.2826
13705SOL    HW242984   1.918   4.838   8.688 -0.3093 -0.9260 -0.4542
13706SOL     OW42985   8.291   3.892   3.418  0.3089 -0.4905  0.5891
13706SOL    HW142986   8.213   3.947   3.421 -0.0200 -0.6752 -2.0188
13706SOL    HW242987   8.364   3.954   3.412  0.3171 -0.3317  2.0494
13707SOL     OW42988   4.582   4.078   1.689  0.4727 -0.6208 -0.1547
13707SOL    HW142989   4.666   4.088   1.643 -0.2219  0.0670 -1.3367
13707SOL    HW242990   4.578   4.155   1.747  0.1521 -0.0212 -0.9577
13708SOL     OW42991   3.098   6.650   7.692 -0.3442 -0.3089 -0.1237
13708SOL    HW142992   3.043   6.728   7.690 -0.4186 -0.3640 -0.1920
13708SOL    HW242993   3.078   6.608   7.776 -1.3437 -1.0158 -0.7055
13709SOL     OW42994   1.341   2.695   0.918 -0.3116 -0.0372  0.2456
13709SOL    HW142995   1.271   2.722   0.978  0.0767  0.0482  0.6652
13709SOL    HW242996   1.322   2.741   0.837 -0.3257  0.5736  0.5899
13710SOL     OW42997   8.219   1.438   1.182  0.4111  0.3294  0.1360
13710SOL    HW142998   8.136   1.476   1.153  1.4287  1.5105 -1.3359
13710SOL    HW242999   8.220   1.351   1.143  0.2033  0.6001 -0.4823
13711SOL     OW43000   2.392   5.794   5.023  0.0065  0.0581  0.2099
13711SOL    HW143001   2.343   5.851   4.965  0.0397 -0.2716 -0.1467
13711SOL    HW243002   2.332   5.775   5.095  0.1097  0.7983  0.4945
13712SOL     OW43003   2.714   4.578   3.926 -0.0119  0.5140 -0.0134
13712SOL    HW143004   2.744   4.668   3.915  0.6072  0.6031  1.9792
13712SOL    HW243005   2.621   4.587   3.950  0.1637  0.6635  0.6312
13713SOL     OW43006   3.459   5.344   0.316 -0.2679 -0.0948  0.0979
13713SOL    HW143007   3.373   5.373   0.285 -0.2773 -0.5563 -0.3157
13713SOL    HW243008   3.494   5.292   0.244  0.4790  0.3158  0.1572
13714SOL     OW43009   4.652   7.963   3.523  0.3512 -0.3654  0.4531
13714SOL    HW143010   4.567   7.923   3.538 -0.5825  2.0477  2.2443
13714SOL    HW243011   4.707   7.927   3.593 -0.0680  0.3185  1.1488
13715SOL     OW43012   1.242   5.081   3.217 -0.3657  0.7344  0.1590
13715SOL    HW143013   1.227   4.988   3.201 -0.0941  0.9428 -1.5259
13715SOL    HW243014   1.195   5.125   3.147 -1.7086  1.9755  1.7609
13716SOL     OW43015   7.576   0.597   4.452 -0.0088 -0.3819  0.2161
13716SOL    HW143016   7.627   0.555   4.522  2.5368 -0.4701 -1.5438
13716SOL    HW243017   7.551   0.525   4.394  0.5042  0.0077 -0.4999
13717SOL     OW43018   4.320   6.482   8.912  0.2309  0.0206  0.4921
13717SOL    HW143019   4.239   6.451   8.872  1.8741 -1.4662 -1.9698
13717SOL    HW243020   4.337   6.566   8.869  0.2492  0.0901  0.6354
13718SOL     OW43021   4.980   6.069   6.961 -0.0370  0.1572 -0.1430
13718SOL    HW143022   4.986   6.165   6.957 -1.8735  0.3860  1.2089
13718SOL    HW243023   4.903   6.048   6.907 -0.9342 -0.3228  1.2673
13719SOL     OW43024   2.035   4.477   1.269 -0.3576  0.4830 -0.4874
13719SOL    HW143025   1.942   4.455   1.270 -0.1744 -0.3416  0.2782
13719SOL    HW243026   2.079   4.393   1.286  0.4640  1.0907  0.4930
13720SOL     OW43027   5.293   2.057   3.459  0.1766  0.0772 -0.1845
13720SOL    HW143028   5.350   1.988   3.424 -0.9625 -0.9815 -0.0044
13720SOL    HW243029   5.210   2.044   3.414 -0.4265  0.5491  0.7666
13721SOL     OW43030   8.514   7.739   8.676 -0.0597 -0.0724  0.0215
13721SOL    HW143031   8.544   7.652   8.649  0.3152  0.1303 -0.2206
13721SOL    HW243032   8.514   7.790   8.595  0.8536  0.4816  0.3545
13722SOL     OW43033   7.782   5.797   4.228 -0.8170  0.1744 -0.0141
13722SOL    HW143034   7.747   5.882   4.253  0.5326  0.8467 -0.3131
13722SOL    HW243035   7.804   5.807   4.135 -1.9417 -0.9590 -0.4246
13723SOL     OW43036   3.474   8.877   0.928 -0.0518  0.1375  0.5691
13723SOL    HW143037   3.476   8.784   0.907 -0.4877  0.0257  1.0220
13723SOL    HW243038   3.514   8.919   0.852 -2.7795 -0.1484 -1.1625
13724SOL     OW43039   8.625   7.672   5.580 -0.0492  0.3123  0.2288
13724SOL    HW143040   8.611   7.685   5.487  1.7626  1.6370  0.0896
13724SOL    HW243041   8.642   7.760   5.614  0.0005 -0.2258  1.6805
13725SOL     OW43042   0.726   2.205   1.569  0.3916  0.0151 -0.2958
13725SOL    HW143043   0.767   2.184   1.652  0.2969  0.8397 -0.0259
13725SOL    HW243044   0.797   2.234   1.512  0.6331 -1.6987 -0.9169
13726SOL     OW43045   6.988   3.778   7.684  0.0947  0.1210  0.2781
13726SOL    HW143046   6.977   3.840   7.611 -0.7633  1.5680  1.5934
13726SOL    HW243047   7.075   3.796   7.718  0.5314 -0.6163 -0.4107
13727SOL     OW43048   8.734   5.540   2.255  0.3990  0.1301 -0.1024
13727SOL    HW143049   8.695   5.504   2.175  0.8274 -0.5808 -0.0058
13727SOL    HW243050   8.827   5.519   2.247  0.8373  2.0543 -0.4611
13728SOL     OW43051   5.516   0.789   4.173  0.2564  0.4376  0.6072
13728SOL    HW143052   5.456   0.714   4.177  0.5467  0.2243  1.1698
13728SOL    HW243053   5.466   0.858   4.129  0.1506 -0.2411 -0.3679
13729SOL     OW43054   7.807   4.676   4.536 -0.3349  0.6338 -0.2040
13729SOL    HW143055   7.732   4.691   4.593 -0.1696  0.8472 -0.0399
13729SOL    HW243056   7.790   4.590   4.497 -0.6201  0.6418 -0.1021
13730SOL     OW43057   6.509   4.948   6.086 -0.0382  0.1614 -0.0437
13730SOL    HW143058   6.529   5.041   6.079 -0.5139  0.3291  0.7063
13730SOL    HW243059   6.424   4.945   6.130  0.7968 -0.6543  1.5833
13731SOL     OW43060   4.575   5.022   1.604  0.0745  0.2283 -0.4203
13731SOL    HW143061   4.529   5.011   1.521 -0.6610 -0.6060  0.0727
13731SOL    HW243062   4.515   4.986   1.669  0.4373  1.2774  0.5353
13732SOL     OW43063   2.684   8.025   0.783 -0.6337 -0.2267  0.2233
13732SOL    HW143064   2.598   8.016   0.823 -1.9098  1.3236 -1.9560
13732SOL    HW243065   2.666   8.049   0.692  2.1141 -0.2276 -0.4134
13733SOL     OW43066   5.466   5.739   6.042  0.0573 -0.7723 -0.1519
13733SOL    HW143067   5.405   5.700   6.105  0.0207 -0.4811 -0.0066
13733SOL    HW243068   5.415   5.806   5.997 -0.5935 -2.4456 -2.0759
13734SOL     OW43069   4.999   1.516   4.214 -0.0580  0.5057 -0.4370
13734SOL    HW143070   5.088   1.505   4.248 -0.3300  1.2379  0.5875
13734SOL    HW243071   5.000   1.473   4.128  0.8929 -0.7005  0.1481
13735SOL     OW43072   3.875   3.746   5.021 -0.9747  0.5635 -0.9229
13735SOL    HW143073   3.887   3.808   5.093 -0.0684 -0.5763 -0.0485
13735SOL    HW243074   3.857   3.662   5.064 -3.3518  0.3988 -2.0926
13736SOL     OW43075   7.892   6.443   3.091 -0.5299  0.7520  0.3074
13736SOL    HW143076   7.963   6.449   3.155 -1.6306 -1.2508  1.8830
13736SOL    HW243077   7.853   6.530   3.090  0.7157  1.3499  0.8988
13737SOL     OW43078   1.949   3.243   6.799  0.3754 -0.1007 -0.1032
13737SOL    HW143079   1.897   3.178   6.753  0.1990 -1.0284  1.3418
13737SOL    HW243080   2.039   3.227   6.770  0.7226 -2.7193  2.0597
13738SOL     OW43081   5.929   5.452   8.321  0.1637 -0.4362  0.5333
13738SOL    HW143082   6.009   5.431   8.272  0.3264  1.3650 -0.0798
13738SOL    HW243083   5.861   5.456   8.255  0.2980  1.5723  0.4446
13739SOL     OW43084   1.417   0.899   5.694  0.0994  0.1361 -0.3296
13739SOL    HW143085   1.456   0.949   5.765  0.2457 -1.1235  0.4991
13739SOL    HW243086   1.478   0.827   5.678 -1.1822 -1.0830  0.0542
13740SOL     OW43087   5.997   0.678   5.419  0.0615 -0.3072  0.4436
13740SOL    HW143088   6.053   0.713   5.350 -0.4103  0.1550  0.2836
13740SOL    HW243089   5.916   0.729   5.412 -0.2100 -0.6563  0.9587
13741SOL     OW43090   3.254   5.288   3.484 -0.3870 -0.1311  0.1442
13741SOL    HW143091   3.208   5.226   3.428  0.6026  0.7202 -1.7290
13741SOL    HW243092   3.346   5.275   3.462 -0.0044  0.4994  1.3305
13742SOL     OW43093   0.761   2.050   7.667  0.1791  0.2200  0.4527
13742SOL    HW143094   0.832   2.112   7.686  0.6691 -0.5225  1.1275
13742SOL    HW243095   0.776   2.024   7.576  1.2930 -0.5332  0.8149
13743SOL     OW43096   6.171   4.231   2.225  0.4904  0.1019  0.2160
13743SOL    HW143097   6.143   4.308   2.275  2.4505  1.0759 -0.0751
13743SOL    HW243098   6.266   4.235   2.227  0.6567 -0.2969 -2.8847
13744SOL     OW43099   8.807   0.167   7.308  0.0209  0.4389 -0.1162
13744SOL    HW143100   8.743   0.179   7.238  0.8218  0.9443 -0.7758
13744SOL    HW243101   8.812   0.253   7.350  1.0727  0.7054 -0.7711
13745SOL     OW43102   2.896   0.933   3.222 -0.1529  0.5482  0.0948
13745SOL    HW143103   2.821   0.937   3.163  0.4378  1.8109 -0.6320
13745SOL    HW243104   2.951   1.007   3.195  2.2258 -1.3305 -0.5539
13746SOL     OW43105   8.529   0.796   7.525 -0.5288  0.5779  0.0964
13746SOL    HW143106   8.494   0.738   7.457 -0.0952 -0.4453  0.7227
13746SOL    HW243107   8.619   0.815   7.497 -0.1054 -0.4269  0.7186
13747SOL     OW43108   0.011   2.124   1.975 -0.2019  0.5483  0.4225
13747SOL    HW143109  -0.001   2.029   1.982 -0.2300  0.2547 -2.3036
13747SOL    HW243110  -0.020   2.159   2.058  2.0189 -1.9688  2.4748
13748SOL     OW43111   5.768   8.912   1.802 -0.5118  0.1072  0.5250
13748SOL    HW143112   5.802   8.949   1.884 -0.8363 -0.1872  0.7953
13748SOL    HW243113   5.699   8.974   1.776 -3.7198 -2.0683  2.9362
13749SOL     OW43114   8.454   3.116   3.693 -0.5593  0.3186  0.4696
13749SOL    HW143115   8.388   3.140   3.628  0.0387 -1.2311 -0.7868
13749SOL    HW243116   8.482   3.028   3.666  2.3292  1.0999  0.6842
13750SOL     OW43117   1.459   4.556   7.177  0.5629 -0.7890  0.9497
13750SOL    HW143118   1.516   4.490   7.215  0.7262 -0.5107  1.1920
13750SOL    HW243119   1.371   4.519   7.183  0.7999 -1.5938 -0.2200
13751SOL     OW43120   4.944   6.722   6.866  0.0367 -1.1478 -0.4033
13751SOL    HW143121   5.006   6.672   6.920  0.4521 -1.4564 -1.1434
13751SOL    HW243122   4.873   6.660   6.849  0.2291 -1.2748 -0.7609
13752SOL     OW43123   3.636   0.499   7.180 -0.1891  0.6084  0.2508
13752SOL    HW143124   3.639   0.531   7.089 -0.5790  0.3586  0.1510
13752SOL    HW243125   3.648   0.405   7.172  3.0753  0.8723  0.6781
13753SOL     OW43126   3.494   3.112   5.738 -0.0979  0.1762 -0.5029
13753SOL    HW143127   3.552   3.152   5.802 -0.6873 -1.8204  1.3980
13753SOL    HW243128   3.417   3.169   5.736 -0.6757 -0.4368  1.7087
13754SOL     OW43129   2.189   4.378   0.509 -0.0136 -0.2381  0.8814
13754SOL    HW143130   2.128   4.377   0.436  1.4172 -1.1041 -0.3670
13754SOL    HW243131   2.191   4.287   0.541  3.2978 -1.2349 -1.5608
13755SOL     OW43132   3.794   6.868   2.281 -0.2390  0.3077 -0.3174
13755SOL    HW143133   3.849   6.927   2.229  0.6441 -0.3478 -0.1657
13755SOL    HW243134   3.855   6.800   2.311 -0.8655  0.2891  0.9847
13756SOL     OW43135   5.783   1.842   1.508 -0.2466 -0.2342 -0.1443
13756SOL    HW143136   5.754   1.898   1.437 -0.5317  0.8159  0.7756
13756SOL    HW243137   5.704   1.823   1.558  0.0174 -0.6222  0.1347
13757SOL     OW43138   1.496   2.759   0.555  0.3827  0.0355  0.2280
13757SOL    HW143139   1.479   2.665   0.554 -3.5618  0.6140  0.5321
13757SOL    HW243140   1.456   2.792   0.475 -0.3722  1.7016  1.2369
13758SOL     OW43141   2.477   6.580   6.957 -0.0047  0.2985 -0.5298
13758SOL    HW143142   2.388   6.611   6.944 -0.3077 -0.1614  0.4108
13758SOL    HW243143   2.527   6.622   6.887 -1.2977 -0.9636 -2.3274
13759SOL     OW43144   1.617   7.594   5.111 -0.1653  0.2283 -0.7194
13759SOL    HW143145   1.619   7.526   5.044 -0.9246 -0.1382 -0.3741
13759SOL    HW243146   1.569   7.556   5.184  0.0839  0.8564 -0.2114
13760SOL     OW43147   0.169   2.472   6.257  0.3876 -0.0050 -0.1487
13760SOL    HW143148   0.136   2.540   6.316  1.7684 -0.0250  0.6761
13760SOL    HW243149   0.127   2.392   6.289  0.4839  0.1144  0.2871
13761SOL     OW43150   2.214   7.512   5.007  0.1815  0.7156  0.7347
13761SOL    HW143151   2.120   7.498   4.999  0.2643  0.2990  0.4689
13761SOL    HW243152   2.225   7.606   4.998 -0.1192  0.6713 -0.1894
13762SOL     OW43153   0.814   2.426   8.672 -0.6532 -0.3470  0.1021
13762SOL    HW143154   0.897   2.415   8.625 -0.9472 -1.7023 -0.1279
13762SOL    HW243155   0.803   2.345   8.721 -2.0282 -0.3410 -0.1696
13763SOL     OW43156   5.350   0.634   2.841 -0.0034  0.5844  0.2930
13763SOL    HW143157   5.304   0.682   2.773 -1.7462  0.0450  1.0357
13763SOL    HW243158   5.281   0.603   2.900  1.2014 -1.3372  0.7909
13764SOL     OW43159   2.517   7.631   3.855  0.6195  0.0596 -0.0383
13764SOL    HW143160   2.569   7.551   3.853  0.1772 -0.2466 -2.0702
13764SOL    HW243161   2.426   7.600   3.853  0.4201  0.6062  0.3347
13765SOL     OW43162   2.868   8.216   5.933 -0.1347  0.2838 -0.2436
13765SOL    HW143163   2.943   8.275   5.943  0.3773 -0.6225  1.9194
13765SOL    HW243164   2.812   8.258   5.868  0.7846  2.5410  0.3314
13766SOL     OW43165   5.470   4.231   3.022 -0.7927 -0.2431 -0.2097
13766SOL    HW143166   5.427   4.308   2.984 -0.1380 -0.0276 -0.5229
13766SOL    HW243167   5.398   4.180   3.060 -1.1256  1.2271  1.3084
13767SOL     OW43168   3.972   6.952   4.599 -0.5254  0.2140  0.2241
13767SOL    HW143169   3.940   6.935   4.687  0.6489 -0.2434  0.5772
13767SOL    HW243170   4.061   6.986   4.611  0.6371 -2.1800 -0.8061
13768SOL     OW43171   1.203   2.325   5.482  0.0989 -0.4658 -0.3085
13768SOL    HW143172   1.193   2.411   5.441 -1.4330 -0.4485  0.0421
13768SOL    HW243173   1.194   2.342   5.576  2.8658 -0.6058  0.0556
13769SOL     OW43174   0.805   6.036   6.021 -0.5847 -0.5382  0.0228
13769SOL    HW143175   0.771   5.947   6.031  0.6801 -0.9007  1.6129
13769SOL    HW243176   0.892   6.032   6.061 -0.7620  1.5686  0.7169
13770SOL     OW43177   0.486   0.214   7.898  0.6762 -0.2760  0.1844
13770SOL    HW143178   0.436   0.196   7.978  0.0859  1.1825  0.1760
13770SOL    HW243179   0.569   0.250   7.930  0.5704 -0.0015  0.1544
13771SOL     OW43180   4.196   4.328   3.653  0.4478  0.0953  0.0176
13771SOL    HW143181   4.207   4.423   3.652  0.3765  0.1362  1.5721
13771SOL    HW243182   4.168   4.306   3.564 -3.2922  1.9719  0.5502
13772SOL     OW43183   8.784   2.582   8.577 -0.2854 -0.2079  0.3356
13772SOL    HW143184   8.762   2.489   8.588  0.0071 -0.6504 -2.2253
13772SOL    HW243185   8.877   2.582   8.556 -0.1188  0.7584  1.0258
13773SOL     OW43186   6.721   8.499   0.190 -0.5270  0.0359 -0.6132
13773SOL    HW143187   6.730   8.559   0.264 -1.7266 -1.5587  0.9229
13773SOL    HW243188   6.720   8.555   0.113 -1.7523  2.0074  0.7420
13774SOL     OW43189   7.195   6.593   0.917  0.1388 -0.1224 -0.0259
13774SOL    HW143190   7.237   6.664   0.868  0.1595 -0.3250 -0.3085
13774SOL    HW243191   7.250   6.581   0.994  1.8449 -1.7765 -1.3876
13775SOL     OW43192   0.853   5.953   1.001 -0.4869 -0.3919  0.2972
13775SOL    HW143193   0.812   5.980   1.083 -0.8377 -0.6086  0.1927
13775SOL    HW243194   0.912   6.026   0.979 -0.0971 -0.5028  0.9384
13776SOL     OW43195   3.399   0.056   3.947 -0.1154  0.3654 -0.2590
13776SOL    HW143196   3.424   0.020   4.033 -1.7817  0.8483  0.4767
13776SOL    HW243197   3.308   0.029   3.936 -0.2099  1.1303 -1.4410
13777SOL     OW43198   8.255   1.278   1.854 -0.5432 -0.1401 -0.0474
13777SOL    HW143199   8.188   1.247   1.793  0.0123 -1.6318  0.0589
13777SOL    HW243200   8.315   1.329   1.800  0.2215 -1.8663 -0.8992
13778SOL     OW43201   6.291   6.955   4.023  0.1085 -0.3255  0.2512
13778SOL    HW143202   6.334   6.870   4.019  1.0070  0.1465 -1.0791
13778SOL    HW243203   6.281   6.981   3.931  0.0938  1.1041  0.6337
13779SOL     OW43204   6.978   4.676   8.585 -0.0010  0.0501  0.0440
13779SOL    HW143205   7.046   4.627   8.630  0.4369 -0.2297 -0.9013
13779SOL    HW243206   6.920   4.707   8.655 -0.3119 -1.8407  0.6760
13780SOL     OW43207   6.672   6.953   7.477  0.4104 -0.3713  0.5484
13780SOL    HW143208   6.768   6.956   7.480  0.4704 -0.6452 -0.5088
13780SOL    HW243209   6.646   6.934   7.567  1.4146 -1.4353  0.6497
13781SOL     OW43210   4.767   1.328   3.193  0.0073  0.0950  0.2777
13781SOL    HW143211   4.829   1.258   3.213  1.5487  1.5311  0.7739
13781SOL    HW243212   4.746   1.315   3.100 -0.4987 -1.5497  0.5819
13782SOL     OW43213   0.067   1.314   4.629  0.1723 -0.1210  0.2952
13782SOL    HW143214   0.031   1.368   4.700 -0.4559  0.3510 -0.3735
13782SOL    HW243215   0.034   1.226   4.647 -1.0223  0.2299 -0.0877
13783SOL     OW43216   1.903   5.035   5.379 -0.6245  0.1521  0.1721
13783SOL    HW143217   1.946   5.023   5.294 -0.5071 -0.8394  0.3561
13783SOL    HW243218   1.952   5.107   5.420  1.8359 -1.8046  0.9389
13784SOL     OW43219   2.278   3.332   7.062 -0.1903 -0.1016  0.3683
13784SOL    HW143220   2.265   3.371   7.149 -1.8123 -1.6197  0.8567
13784SOL    HW243221   2.198   3.355   7.014  0.6258  0.5821 -0.6960
13785SOL     OW43222   5.167   8.581   7.460 -0.4040  0.7786 -0.2366
13785SOL    HW143223   5.077   8.605   7.484 -1.1896 -2.3686  0.3660
13785SOL    HW243224   5.205   8.546   7.541  0.2401 -0.9060 -1.2189
13786SOL     OW43225   0.456   5.239   6.885  0.0517 -0.2200 -0.2664
13786SOL    HW143226   0.535   5.291   6.873  0.8081 -1.4046 -0.6717
13786SOL    HW243227   0.387   5.287   6.839  0.0139  1.9123  1.8418
13787SOL     OW43228   4.348   3.460   6.036 -0.0032  1.2101  0.4992
13787SOL    HW143229   4.370   3.386   5.980  1.3352  1.1267  1.0796
13787SOL    HW243230   4.308   3.524   5.976  0.6559  0.8094 -0.4059
13788SOL     OW43231   5.393   2.685   7.693 -0.0423 -0.5805  0.5784
13788SOL    HW143232   5.434   2.606   7.658 -0.0050 -0.3735  0.1513
13788SOL    HW243233   5.323   2.652   7.749 -0.4522 -0.9117 -0.1173
13789SOL     OW43234   6.824   5.917   3.778  0.3528 -0.0364  0.2544
13789SOL    HW143235   6.877   5.853   3.825 -1.9736 -1.4030  1.1903
13789SOL    HW243236   6.797   5.872   3.698  1.0530  0.8505 -0.4969
13790SOL     OW43237   6.850   8.029   7.847  0.4190  0.0975 -0.2082
13790SOL    HW143238   6.910   7.957   7.826  0.0616 -0.2271 -0.1369
13790SOL    HW243239   6.881   8.103   7.795  0.3432 -0.3188 -0.8547
13791SOL     OW43240   2.410   1.240   2.349 -1.1095  0.0933 -0.1365
13791SOL    HW143241   2.494   1.234   2.304  0.9891 -0.5427  3.4695
13791SOL    HW243242   2.345   1.249   2.278  1.8149 -0.5330 -3.1526
13792SOL     OW43243   6.295   7.895   2.057  0.1497 -0.6414  0.2565
13792SOL    HW143244   6.344   7.854   2.129 -0.2665  0.4360  1.1826
13792SOL    HW243245   6.216   7.841   2.048  0.2904 -0.8869  0.4734
13793SOL     OW43246   7.824   0.504   1.933 -0.3092 -0.0833  0.1428
13793SOL    HW143247   7.916   0.527   1.938 -0.5708  0.7168  2.5987
13793SOL    HW243248   7.817   0.422   1.980 -0.9047  0.0690  0.3320
13794SOL     OW43249   3.996   0.565   1.952 -0.2603 -0.0457 -0.3519
13794SOL    HW143250   3.970   0.486   1.999  0.0346  0.7823  1.2940
13794SOL    HW243251   4.000   0.538   1.860 -2.3389 -1.3693 -0.1421
13795SOL     OW43252   3.232   3.140   2.050  0.4382  0.0509  0.2066
13795SOL    HW143253   3.250   3.230   2.075  1.1922 -0.0451  0.0350
13795SOL    HW243254   3.184   3.103   2.124 -0.2790  0.7160  0.0838
13796SOL     OW43255   4.610   3.408   3.859 -0.4421  0.0707  0.0172
13796SOL    HW143256   4.696   3.375   3.831 -0.0106  1.9878 -1.0832
13796SOL    HW243257   4.621   3.425   3.953  0.0817 -0.5881  0.0853
13797SOL     OW43258   6.356   8.615   6.096 -1.2060 -0.2871 -0.1579
13797SOL    HW143259   6.333   8.556   6.168  0.7471 -0.3738  0.4621
13797SOL    HW243260   6.425   8.569   6.048 -0.1641  1.1373 -0.1117
13798SOL     OW43261   7.983   7.670   4.503  0.0857  0.1052 -0.2695
13798SOL    HW143262   7.968   7.730   4.429  2.8428  2.1827  0.6949
13798SOL    HW243263   8.061   7.621   4.479 -0.2647 -0.8025  0.3732
13799SOL     OW43264   7.505   2.815   8.065 -0.9070 -0.7301  0.0298
13799SOL    HW143265   7.459   2.829   8.148  0.0416  1.2002  0.2968
13799SOL    HW243266   7.526   2.722   8.064 -0.7969 -0.7626  2.0419
13800SOL     OW43267   2.953   4.430   7.455  0.3969  0.2194  0.4382
13800SOL    HW143268   2.982   4.477   7.534  0.9264 -0.3293  0.5782
13800SOL    HW243269   3.034   4.402   7.412  0.1259  1.0422 -0.6375
13801SOL     OW43270   2.460   8.243   0.478  0.3087  0.0248  0.1434
13801SOL    HW143271   2.449   8.308   0.409  1.6116  0.1926  0.0666
13801SOL    HW243272   2.394   8.266   0.543 -0.6647  0.1115 -0.8425
13802SOL     OW43273   7.140   4.324   6.392  0.1325 -0.2485 -0.3056
13802SOL    HW143274   7.074   4.294   6.454  0.1196 -0.2857 -0.3367
13802SOL    HW243275   7.128   4.419   6.388  2.4740  0.3301  2.5310
13803SOL     OW43276   3.046   5.610   8.660  0.3548  0.4599 -0.0787
13803SOL    HW143277   3.036   5.705   8.649  3.1639  0.8758  0.0407
13803SOL    HW243278   3.010   5.573   8.580  0.5413  1.7608 -0.8058
13804SOL     OW43279   7.578   2.392   5.068 -1.0114 -0.1832 -0.2641
13804SOL    HW143280   7.590   2.344   4.986  0.2428 -0.2582 -0.0568
13804SOL    HW243281   7.653   2.452   5.072 -1.0198 -0.2258  0.8433
13805SOL     OW43282   3.159   6.671   1.771  0.4683  0.4385 -0.2438
13805SOL    HW143283   3.235   6.722   1.742  0.6842 -0.1194 -0.6776
13805SOL    HW243284   3.122   6.635   1.690  1.2798 -1.4338  0.1772
13806SOL     OW43285   5.849   1.269   0.184  0.2925  0.0499  0.3832
13806SOL    HW143286   5.848   1.328   0.259  0.0016  1.1344 -0.4533
13806SOL    HW243287   5.935   1.281   0.145  1.2406 -2.0232  1.6688
13807SOL     OW43288   6.599   4.739   8.962  0.3339  0.2766  0.4491
13807SOL    HW143289   6.629   4.664   9.014 -1.1915 -0.0172  0.9309
13807SOL    HW243290   6.550   4.700   8.890  1.9974  0.7071 -0.9989
13808SOL     OW43291   4.114   4.398   1.061  0.4262  0.3395 -0.4729
13808SOL    HW143292   4.064   4.466   1.016  1.0013  1.1264  0.0373
13808SOL    HW243293   4.072   4.392   1.147  1.2991  1.1349  0.0225
13809SOL     OW43294   7.087   5.107   4.328 -0.2781  0.4010  0.1348
13809SOL    HW143295   7.026   5.181   4.325  0.6369  1.2220  1.1550
13809SOL    HW243296   7.061   5.052   4.254 -0.8044  1.8698 -0.8208
13810SOL     OW43297   3.529   6.005   4.176  0.0316  0.0225  0.8345
13810SOL    HW143298   3.448   5.984   4.222 -0.1032 -0.0157  0.5803
13810SOL    HW243299   3.585   6.044   4.243  0.2602 -1.0837  1.3120
13811SOL     OW43300   7.692   6.415   8.953  0.0511  0.3441  0.3414
13811SOL    HW143301   7.645   6.414   9.037 -1.2236  0.2508 -0.3461
13811SOL    HW243302   7.677   6.329   8.915 -0.4817  0.8155 -0.5572
13812SOL     OW43303   8.357   2.311   5.794 -0.3413  0.0510 -0.3596
13812SOL    HW143304   8.276   2.261   5.810 -0.2987 -0.6067 -2.0010
13812SOL    HW243305   8.328   2.402   5.790 -0.6379  0.0538  1.2871
13813SOL     OW43306   2.551   2.760   8.129 -0.3241 -0.3729  0.0151
13813SOL    HW143307   2.574   2.668   8.140  1.4022 -0.2282 -1.8761
13813SOL    HW243308   2.458   2.759   8.104  0.3657 -1.8853 -2.8725
13814SOL     OW43309   7.425   2.337   3.400  0.5620 -0.3637  0.1632
13814SOL    HW143310   7.470   2.256   3.424  0.2211 -0.5880  0.0593
13814SOL    HW243311   7.335   2.310   3.384  0.0532  0.2956  1.7392
13815SOL     OW43312   3.132   7.288   3.903 -0.1638  0.2135 -0.3933
13815SOL    HW143313   3.124   7.208   3.955  1.4586  1.5073  2.0297
13815SOL    HW243314   3.171   7.258   3.820  2.2803 -1.3532  1.1942
13816SOL     OW43315   2.430   5.143   2.729  0.2438  0.0896  0.0489
13816SOL    HW143316   2.420   5.222   2.675 -0.2843 -0.3199 -0.4653
13816SOL    HW243317   2.351   5.140   2.782 -1.0072 -1.4429 -1.7521
13817SOL     OW43318   4.307   3.477   6.630  0.1053 -0.1290  0.2856
13817SOL    HW143319   4.379   3.416   6.641 -0.6854 -0.9372  1.1509
13817SOL    HW243320   4.271   3.456   6.544  1.9964  1.5285 -1.0157
13818SOL     OW43321   3.937   7.258   6.884 -0.3228  0.0879 -0.0159
13818SOL    HW143322   3.921   7.164   6.877  1.5865 -0.3932  1.3986
13818SOL    HW243323   4.028   7.269   6.857 -0.8413  1.7278 -1.2718
13819SOL     OW43324   6.642   3.235   4.379 -0.3557 -0.0741 -0.1785
13819SOL    HW143325   6.587   3.215   4.456 -1.7230 -1.1627 -1.3698
13819SOL    HW243326   6.580   3.265   4.313  0.6451 -0.2568 -1.2285
13820SOL     OW43327   4.876   4.196   6.714 -0.9435  0.7945  0.1728
13820SOL    HW143328   4.903   4.268   6.657 -1.8549 -0.0626 -1.3906
13820SOL    HW243329   4.850   4.126   6.655  1.0230 -1.3291  1.5931
13821SOL     OW43330   5.923   3.690   7.320 -0.2314 -0.2639  0.0880
13821SOL    HW143331   5.959   3.642   7.245 -0.6934 -1.6853  0.7440
13821SOL    HW243332   5.853   3.634   7.353 -2.2940  1.8215 -0.3976
13822SOL     OW43333   2.758   3.038   2.298  0.6303  0.5035  0.4629
13822SOL    HW143334   2.696   3.080   2.238  0.7032  2.2524  1.5188
13822SOL    HW243335   2.703   2.989   2.359  0.5245 -0.7981 -0.6457
13823SOL     OW43336   4.823   1.561   3.344  0.2569 -0.2663  0.6284
13823SOL    HW143337   4.739   1.576   3.387 -0.1070  0.1354 -0.2211
13823SOL    HW243338   4.811   1.480   3.295  0.5679 -0.5453  1.0066
13824SOL     OW43339   6.713   8.302   2.882 -0.0281  0.4169  0.1172
13824SOL    HW143340   6.658   8.358   2.828 -0.5076 -0.1062  0.0474
13824SOL    HW243341   6.651   8.257   2.940  0.4630  0.9121  1.0615
13825SOL     OW43342   8.417   6.608   0.900 -0.8461  0.2255  0.1356
13825SOL    HW143343   8.497   6.631   0.852 -0.7903 -0.4034 -0.0785
13825SOL    HW243344   8.357   6.680   0.880 -0.7770  0.0418 -0.7666
13826SOL     OW43345   5.384   0.959   4.839  0.1146  0.0576 -0.3139
13826SOL    HW143346   5.406   1.017   4.766  0.5018  0.1342 -0.1427
13826SOL    HW243347   5.298   0.924   4.818 -1.3782  2.7600  0.8483
13827SOL     OW43348   0.325   0.492   1.517  0.1348  0.0310 -0.6954
13827SOL    HW143349   0.281   0.565   1.561  1.9553  0.2775  0.8769
13827SOL    HW243350   0.268   0.417   1.532 -0.1233  0.4721  0.6811
13828SOL     OW43351   2.257   7.198   3.694 -0.2685  0.0850  0.3681
13828SOL    HW143352   2.209   7.280   3.687  2.3846  1.7234  0.3242
13828SOL    HW243353   2.275   7.188   3.787 -1.6311 -1.1725  0.5444
13829SOL     OW43354   2.432   0.715   2.076  0.2158  0.3866  0.6307
13829SOL    HW143355   2.342   0.703   2.108  0.4216 -2.0032  0.5321
13829SOL    HW243356   2.482   0.735   2.155 -0.4400  2.1730  0.6260
13830SOL     OW43357   4.028   2.500   8.624  0.0391 -0.4631 -0.1919
13830SOL    HW143358   4.014   2.445   8.701 -0.3568  0.6611  0.5661
13830SOL    HW243359   4.121   2.521   8.626 -0.1264  0.2604  0.4858
13831SOL     OW43360   1.848   8.036   0.777  0.0095  0.1840 -0.0353
13831SOL    HW143361   1.777   8.083   0.733 -0.4713  0.7714  1.2840
13831SOL    HW243362   1.911   8.104   0.800  0.4623 -0.1723 -0.2119
13832SOL     OW43363   7.272   5.093   7.652  0.5452  0.1454  0.6044
13832SOL    HW143364   7.231   5.165   7.605 -0.1927 -1.0985 -0.7323
13832SOL    HW243365   7.226   5.089   7.736 -1.9808 -1.0491 -0.7466
13833SOL     OW43366   7.625   4.214   4.242  0.3127 -0.0114 -0.0894
13833SOL    HW143367   7.643   4.171   4.158 -0.5683  0.2363 -0.4152
13833SOL    HW243368   7.558   4.278   4.222  0.0248 -0.0115  0.8353
13834SOL     OW43369   2.516   6.754   4.093 -0.3157  0.4666  0.2464
13834SOL    HW143370   2.542   6.664   4.110  1.0250  1.0164  1.3711
13834SOL    HW243371   2.588   6.791   4.043 -1.9653  0.2878 -2.4319
13835SOL     OW43372   1.197   5.764   3.846  0.2829  0.2322  0.1289
13835SOL    HW143373   1.110   5.735   3.876  1.0592 -1.5505  0.7759
13835SOL    HW243374   1.228   5.821   3.915  0.2606 -0.3872  0.6639
13836SOL     OW43375   7.252   1.607   3.786  0.2533  0.2011 -0.2254
13836SOL    HW143376   7.297   1.679   3.829  0.3783  0.8284 -1.3773
13836SOL    HW243377   7.159   1.622   3.805  0.1293  1.5595 -1.7213
13837SOL     OW43378   0.131   7.991   6.931 -0.3659  0.2971 -0.6812
13837SOL    HW143379   0.102   7.932   6.861  1.0635  0.2055 -1.2376
13837SOL    HW243380   0.078   7.967   7.007 -1.3239 -0.2134 -1.4926
13838SOL     OW43381   4.089   8.306   5.160 -0.3275 -0.5338  0.0581
13838SOL    HW143382   4.069   8.352   5.078  0.6298 -0.4965 -0.1629
13838SOL    HW243383   4.005   8.299   5.204 -0.7933 -0.2098 -0.7540
13839SOL     OW43384   5.808   7.616   1.803  0.3025  0.5445  0.3448
13839SOL    HW143385   5.813   7.616   1.899  0.3976 -1.7113  0.3852
13839SOL    HW243386   5.773   7.530   1.781 -1.7372  1.7923 -1.6039
13840SOL     OW43387   8.007   3.130   6.076  0.5138 -0.2718  0.0909
13840SOL    HW143388   7.922   3.160   6.108  1.0450 -0.9226  2.2761
13840SOL    HW243389   7.986   3.053   6.022 -0.3470  0.3645 -0.5188
13841SOL     OW43390   7.699   0.366   7.750  0.4337 -0.1309  0.6261
13841SOL    HW143391   7.794   0.356   7.756  0.5895 -1.0149 -1.9390
13841SOL    HW243392   7.683   0.458   7.771  1.9877  0.2586  0.2365
13842SOL     OW43393   0.966   3.365   4.649  0.2640  0.5436 -0.3564
13842SOL    HW143394   0.984   3.278   4.683 -1.9326  0.3995  0.6043
13842SOL    HW243395   0.944   3.351   4.556 -0.1016  0.0753 -0.2014
13843SOL     OW43396   0.812   1.049   0.324  0.4138 -0.3557  0.4328
13843SOL    HW143397   0.857   1.027   0.242 -1.3537 -1.1956 -0.3762
13843SOL    HW243398   0.787   0.964   0.361 -2.1445  0.0471 -0.1569
13844SOL     OW43399   5.995   1.958   3.236 -0.0196 -0.1486 -0.1235
13844SOL    HW143400   6.070   2.002   3.195 -1.0384  0.8431 -0.9709
13844SOL    HW243401   6.000   1.985   3.328  0.1754  0.6342 -0.3520
13845SOL     OW43402   5.157   6.977   8.903 -0.2492  0.1173 -0.5444
13845SOL    HW143403   5.144   7.056   8.852 -1.4534 -0.9232 -1.9312
13845SOL    HW243404   5.246   6.949   8.882  0.0710  0.9181 -0.2838
13846SOL     OW43405   5.268   4.256   6.968 -0.4900 -0.6434  0.1198
13846SOL    HW143406   5.173   4.271   6.965 -0.6753 -1.7817 -0.2525
13846SOL    HW243407   5.286   4.232   7.059 -0.2792  1.1143  0.5834
13847SOL     OW43408   1.302   6.811   6.624  0.4624  0.2156 -0.4767
13847SOL    HW143409   1.381   6.833   6.575  0.1869 -0.7763 -1.4085
13847SOL    HW243410   1.334   6.774   6.706  1.0059 -0.5571 -1.0128
13848SOL     OW43411   8.887   7.379   1.007  0.4979  0.0763 -0.6881
13848SOL    HW143412   8.841   7.408   0.928  1.4889  0.3929 -1.1551
13848SOL    HW243413   8.903   7.286   0.992  0.5039  0.0911 -0.7756
13849SOL     OW43414   7.048   3.999   4.149  0.0622 -0.1614 -0.4609
13849SOL    HW143415   7.126   3.944   4.146 -0.2069 -0.6410  0.7290
13849SOL    HW243416   6.998   3.973   4.072  1.1938  0.3510 -1.3973
13850SOL     OW43417   5.309   1.069   4.145 -0.0783  0.1321 -0.3077
13850SOL    HW143418   5.221   1.044   4.117 -0.2225 -0.4724  0.6168
13850SOL    HW243419   5.300   1.161   4.171 -0.8122 -0.3039  1.1198
13851SOL     OW43420   6.948   5.183   7.836  0.1454  0.3839  0.6655
13851SOL    HW143421   6.988   5.136   7.909 -0.5633  0.8735  1.3969
13851SOL    HW243422   6.866   5.135   7.820  0.2063  0.3959  0.3204
13852SOL     OW43423   8.561   5.809   1.878  0.4664  0.4241  0.4248
13852SOL    HW143424   8.633   5.746   1.889 -0.3397 -1.1434 -2.3636
13852SOL    HW243425   8.500   5.765   1.819 -1.9815  2.4097  1.3313
13853SOL     OW43426   0.784   5.230   3.190  0.1000 -0.7055  0.3081
13853SOL    HW143427   0.787   5.158   3.128  1.6421 -0.5849  0.1938
13853SOL    HW243428   0.793   5.189   3.276 -0.7742 -0.7751  0.3711
13854SOL     OW43429   0.349   8.162   6.837  0.6721  0.1326  0.3439
13854SOL    HW143430   0.382   8.108   6.766 -1.0691  0.0179 -0.4383
13854SOL    HW243431   0.266   8.120   6.861 -0.1906  1.8424  0.4519
13855SOL     OW43432   6.099   5.891   5.292 -0.2606 -0.2137 -0.0769
13855SOL    HW143433   6.065   5.809   5.256 -1.2322 -0.9899  2.4201
13855SOL    HW243434   6.023   5.949   5.294 -0.6596 -0.7488  2.1827
13856SOL     OW43435   2.276   4.693   1.545 -0.1441 -0.6450 -0.0885
13856SOL    HW143436   2.209   4.643   1.593 -0.4050  0.3095  0.5767
13856SOL    HW243437   2.332   4.627   1.505 -1.6477 -1.4863 -0.9034
13857SOL     OW43438   2.329   7.262   0.346 -0.4835  0.5559  0.7465
13857SOL    HW143439   2.398   7.317   0.310 -1.8054  0.3994 -2.3586
13857SOL    HW243440   2.309   7.200   0.276 -2.6460 -0.4404  2.1447
13858SOL     OW43441   1.220   7.312   5.302  0.7152 -0.0013 -0.4433
13858SOL    HW143442   1.244   7.227   5.337  0.7163  0.3818  0.5172
13858SOL    HW243443   1.170   7.292   5.223 -1.4488 -0.9892  1.0835
13859SOL     OW43444   4.482   8.064   8.831 -0.1360  0.4880  0.0705
13859SOL    HW143445   4.533   8.146   8.834 -1.5638  1.4014  0.3593
13859SOL    HW243446   4.433   8.070   8.748  1.0309 -0.9070 -0.7584
13860SOL     OW43447   7.952   4.031   5.930  0.0047  0.0150  0.1837
13860SOL    HW143448   8.005   3.993   6.001 -0.9092  0.6774  1.2518
13860SOL    HW243449   7.975   3.980   5.853  0.0412 -1.6355  1.2385
13861SOL     OW43450   7.952   5.617   7.585  0.6000  0.1679  0.2364
13861SOL    HW143451   8.005   5.548   7.545 -0.0464 -0.3371  0.2191
13861SOL    HW243452   7.862   5.583   7.580  0.3674  0.6701  0.9469
13862SOL     OW43453   4.046   1.175   8.167  0.7199  0.1325  0.1844
13862SOL    HW143454   3.997   1.201   8.245  0.6345  0.7261 -0.0582
13862SOL    HW243455   4.095   1.097   8.193 -0.5915 -0.6586  0.3434
13863SOL     OW43456   6.380   0.796   1.469  0.3747 -0.4486 -0.4436
13863SOL    HW143457   6.294   0.760   1.487 -0.0637  0.1235 -1.3000
13863SOL    HW243458   6.414   0.742   1.397  1.5431 -1.8735  1.1060
13864SOL     OW43459   5.832   0.426   5.876 -0.4367 -0.0512 -0.3194
13864SOL    HW143460   5.886   0.379   5.814  0.4680  1.0632 -0.4073
13864SOL    HW243461   5.742   0.410   5.846 -0.0500 -0.0198 -1.5583
13865SOL     OW43462   6.179   7.220   4.565 -0.2991  0.4203 -0.1917
13865SOL    HW143463   6.126   7.192   4.490 -0.7881 -1.1471  0.6825
13865SOL    HW243464   6.267   7.234   4.529 -0.1373 -1.8282 -0.8410
13866SOL     OW43465   3.397   1.415   5.379  0.1019  0.1911  0.2959
13866SOL    HW143466   3.492   1.426   5.378  0.0199  0.8711 -0.0407
13866SOL    HW243467   3.368   1.447   5.294 -0.4685  0.3480  0.5492
13867SOL     OW43468   2.203   1.747   8.635  0.2543 -0.0910  0.2228
13867SOL    HW143469   2.268   1.809   8.602 -0.1719  0.9429  1.2645
13867SOL    HW243470   2.252   1.667   8.653  1.1840  0.5807  0.7104
13868SOL     OW43471   0.243   6.308   1.614 -0.1101  0.5538 -0.2388
13868SOL    HW143472   0.246   6.347   1.527 -1.5038  2.3633  0.4559
13868SOL    HW243473   0.322   6.341   1.658  0.0708  0.4623 -0.4948
13869SOL     OW43474   5.205   6.483   2.895  0.3086  0.1955  0.6673
13869SOL    HW143475   5.210   6.391   2.921 -0.1381  0.0168  0.1169
13869SOL    HW243476   5.186   6.530   2.976 -0.2715 -0.2789  0.8093
13870SOL     OW43477   6.540   3.149   2.486 -0.3945 -0.3779 -0.3347
13870SOL    HW143478   6.573   3.236   2.509  1.1351 -1.5776  2.5550
13870SOL    HW243479   6.450   3.148   2.517 -0.5437  0.2923 -0.7365
13871SOL     OW43480   2.389   1.781   7.786 -0.5896 -0.1371 -0.4571
13871SOL    HW143481   2.319   1.759   7.725 -0.7493  2.1734 -1.2230
13871SOL    HW243482   2.345   1.828   7.857  0.2739  3.3725 -2.0349
13872SOL     OW43483   1.713   5.262   7.712  0.3074  0.0424  0.2442
13872SOL    HW143484   1.734   5.176   7.749  0.1860 -0.0135  0.1841
13872SOL    HW243485   1.627   5.250   7.671 -0.6606  0.7159  1.9834
13873SOL     OW43486   2.184   2.343   3.198  0.3213  0.6751  0.4531
13873SOL    HW143487   2.251   2.409   3.214  0.3483  0.5853  0.7295
13873SOL    HW243488   2.225   2.261   3.227 -0.6101  0.8894  2.5369
13874SOL     OW43489   7.554   2.446   3.196 -0.5584  0.5453  0.7271
13874SOL    HW143490   7.504   2.420   3.274 -0.0898  0.3802  0.9721
13874SOL    HW243491   7.621   2.379   3.186 -0.3537  0.7914  0.4242
13875SOL     OW43492   1.697   3.276   5.790 -0.3596 -0.3106 -0.4322
13875SOL    HW143493   1.713   3.359   5.745  0.7298 -0.2797 -0.0184
13875SOL    HW243494   1.622   3.293   5.847 -0.0115  0.4509 -0.1979
13876SOL     OW43495   5.302   0.341   4.473 -0.2542 -0.7221 -0.1576
13876SOL    HW143496   5.254   0.308   4.549 -1.6656 -0.3749 -0.8781
13876SOL    HW243497   5.329   0.262   4.426 -1.2029 -0.9065 -0.4033
13877SOL     OW43498   1.347   4.312   2.940 -0.2935 -0.8880  0.1878
13877SOL    HW143499   1.433   4.271   2.949 -0.0701 -0.3726  0.4171
13877SOL    HW243500   1.298   4.284   3.018 -0.7450 -2.1419 -0.5200
13878SOL     OW43501   7.935   5.360   2.723 -0.4509 -0.4630 -0.1325
13878SOL    HW143502   7.883   5.433   2.690  0.4431  0.9857  1.4975
13878SOL    HW243503   7.927   5.365   2.818  1.8281 -0.7674  0.1470
13879SOL     OW43504   6.846   5.463   5.072  0.3672 -0.3351 -0.5060
13879SOL    HW143505   6.861   5.539   5.127  1.6010  0.7952 -2.2860
13879SOL    HW243506   6.752   5.445   5.081 -0.0331  1.6153 -0.2910
13880SOL     OW43507   5.501   7.332   1.782 -0.2196 -0.4565  0.2649
13880SOL    HW143508   5.571   7.318   1.847 -0.3664  0.8206  0.7270
13880SOL    HW243509   5.516   7.264   1.716  2.3929  0.6628 -0.4277
13881SOL     OW43510   7.797   1.263   5.186  0.1305  0.5446  0.2276
13881SOL    HW143511   7.726   1.326   5.177  0.3186  0.8087  0.5421
13881SOL    HW243512   7.874   1.307   5.150 -0.0297 -0.0613 -0.9050
13882SOL     OW43513   8.789   0.540   1.194 -0.0453 -0.0348 -0.6928
13882SOL    HW143514   8.827   0.465   1.148  0.0723  0.8148 -2.0319
13882SOL    HW243515   8.825   0.616   1.150  1.6979  0.9300  2.1286
13883SOL     OW43516   5.627   0.023   0.603 -0.0525  0.1405 -0.0520
13883SOL    HW143517   5.647   0.011   0.696  0.3071  2.5178  0.2330
13883SOL    HW243518   5.658  -0.058   0.562 -0.6000 -1.1647  1.9103
13884SOL     OW43519   5.832   3.164   2.032 -0.4746 -0.3128 -0.4843
13884SOL    HW143520   5.858   3.091   1.977 -0.7521 -0.5063 -0.3615
13884SOL    HW243521   5.807   3.233   1.971  0.3389 -0.1188 -0.6043
13885SOL     OW43522   2.578   5.158   3.303 -0.1424  0.3725 -0.0443
13885SOL    HW143523   2.486   5.178   3.320 -0.0960 -0.2744  1.0493
13885SOL    HW243524   2.626   5.236   3.332 -0.3833  1.0484 -1.3849
13886SOL     OW43525   0.987   0.064   5.634 -0.4985  0.1565 -0.5133
13886SOL    HW143526   0.994  -0.031   5.628 -1.1235  0.1092 -0.5834
13886SOL    HW243527   0.925   0.088   5.565 -1.0229  0.5238  0.0788
13887SOL     OW43528   0.754   5.060   1.552  0.2871 -0.0777  0.1205
13887SOL    HW143529   0.824   5.009   1.593  2.7645  1.5059 -1.8851
13887SOL    HW243530   0.742   5.019   1.466 -0.7995  0.0828  0.1834
13888SOL     OW43531   7.029   6.956   2.619  0.0882  0.3529 -0.1566
13888SOL    HW143532   6.975   6.923   2.546  0.8005 -0.4254 -0.3543
13888SOL    HW243533   7.032   6.883   2.681  0.5486  0.5476  0.0544
13889SOL     OW43534   1.364   2.864   8.389 -0.1264  0.1751 -0.3061
13889SOL    HW143535   1.383   2.822   8.473  0.6165 -0.3482 -0.7284
13889SOL    HW243536   1.446   2.906   8.364 -0.3801  0.4391 -0.7066
13890SOL     OW43537   4.787   5.514   2.261  0.3907 -0.6012 -0.4599
13890SOL    HW143538   4.837   5.446   2.216 -2.1675 -0.4264 -4.0499
13890SOL    HW243539   4.823   5.596   2.228 -0.7548 -0.4347 -1.3500
13891SOL     OW43540   5.648   1.447   4.605  0.6234 -0.1140  0.0956
13891SOL    HW143541   5.738   1.422   4.626  0.8975  1.1014  0.4725
13891SOL    HW243542   5.653   1.484   4.517  0.2204 -1.3387 -0.4652
13892SOL     OW43543   8.810   3.897   1.024  0.3554  0.5016  0.1950
13892SOL    HW143544   8.824   3.985   0.989  1.9797 -0.6287 -2.2908
13892SOL    HW243545   8.729   3.868   0.983  0.4528  0.3959  0.0791
13893SOL     OW43546   3.120   6.224   8.528  0.2016 -0.5171 -0.2864
13893SOL    HW143547   3.166   6.150   8.566  0.0735 -1.3628 -1.7335
13893SOL    HW243548   3.108   6.285   8.601  0.6389 -1.7460  0.8349
13894SOL     OW43549   6.919   3.199   2.594 -0.6385  0.4931  0.2809
13894SOL    HW143550   6.912   3.132   2.526 -0.6528 -0.6806  1.3999
13894SOL    HW243551   7.009   3.192   2.626 -0.8972  0.3815  1.0130
13895SOL     OW43552   7.208   7.232   1.485  0.1394  0.6315  0.5733
13895SOL    HW143553   7.175   7.321   1.495  1.0005  0.8937  1.1689
13895SOL    HW243554   7.294   7.243   1.445  0.0137  0.0263  0.1145
13896SOL     OW43555   2.224   4.134   8.733  0.0071  0.1785  0.3554
13896SOL    HW143556   2.242   4.062   8.793  0.7452  0.2585  0.2347
13896SOL    HW243557   2.167   4.193   8.783 -1.5763 -1.0233  0.0707
13897SOL     OW43558   3.514   7.740   3.117 -0.2045 -0.0541 -0.9672
13897SOL    HW143559   3.504   7.834   3.132  1.9688  0.2350 -1.0465
13897SOL    HW243560   3.548   7.706   3.200  1.2175 -0.3448 -1.6404
13898SOL     OW43561   1.593   1.527   6.774  0.0985  0.7674  0.5378
13898SOL    HW143562   1.566   1.618   6.790  0.9821  1.1674 -0.1095
13898SOL    HW243563   1.512   1.481   6.751 -0.3685  1.3809  0.9258
13899SOL     OW43564   7.878   6.405   5.426 -0.5220 -0.1895  0.3145
13899SOL    HW143565   7.818   6.351   5.477  0.6801 -1.5899  0.3024
13899SOL    HW243566   7.944   6.344   5.394  1.0040  1.3035  0.4536
13900SOL     OW43567   4.556   4.163   5.824  0.0208  0.2843 -0.5774
13900SOL    HW143568   4.599   4.079   5.806 -0.4221  0.0800 -0.7042
13900SOL    HW243569   4.628   4.224   5.839  0.3378 -0.2552  0.1411
13901SOL     OW43570   7.150   3.640   4.396  0.0953 -0.4732  1.0645
13901SOL    HW143571   7.082   3.691   4.439  0.8204  2.8091 -1.3142
13901SOL    HW243572   7.105   3.595   4.324  0.1762  0.9702  0.0585
13902SOL     OW43573   0.221   0.014   4.543 -0.2527 -0.3502 -0.2063
13902SOL    HW143574   0.129   0.012   4.571 -0.4736 -0.6315 -0.9381
13902SOL    HW243575   0.218   0.045   4.453  0.4165  0.0842 -0.0880
13903SOL     OW43576   8.152   1.707   0.043  0.4656 -0.2010 -0.4903
13903SOL    HW143577   8.068   1.663   0.053 -0.0439  1.0503  1.2637
13903SOL    HW243578   8.204   1.648  -0.012 -1.8058 -0.6081 -2.3523
13904SOL     OW43579   0.450   1.637   8.746  0.2119  0.6633 -0.3993
13904SOL    HW143580   0.482   1.702   8.809  1.2573 -0.1149 -0.0924
13904SOL    HW243581   0.493   1.660   8.664  1.9159 -0.5604  0.0810
13905SOL     OW43582   1.897   7.499   8.512  0.0761  0.0739  0.0095
13905SOL    HW143583   1.837   7.564   8.549 -0.6120  1.0622 -2.6017
13905SOL    HW243584   1.957   7.551   8.458  0.4696 -1.3319 -0.9495
13906SOL     OW43585   4.281   5.999   2.967  0.3119 -0.4392 -0.5503
13906SOL    HW143586   4.327   5.917   2.985 -0.8116 -0.9549  0.0154
13906SOL    HW243587   4.195   5.973   2.934  0.3370  0.5166 -1.4441
13907SOL     OW43588   2.148   4.221   3.688 -0.1960  0.1408 -0.2035
13907SOL    HW143589   2.090   4.295   3.669  0.1217  0.4037 -0.1601
13907SOL    HW243590   2.126   4.156   3.622 -0.4207  0.3061 -0.2952
13908SOL     OW43591   4.167   0.514   6.139  0.1063  0.4582  0.9961
13908SOL    HW143592   4.139   0.493   6.228  2.5084  0.8712  1.9163
13908SOL    HW243593   4.257   0.482   6.134 -0.0116  0.3086 -1.3596
13909SOL     OW43594   6.199   4.552   7.508  0.3479  0.0269  0.1273
13909SOL    HW143595   6.169   4.497   7.579  1.1172 -0.0881  0.3687
13909SOL    HW243596   6.182   4.501   7.429  1.4981 -0.7737  0.3797
13910SOL     OW43597   6.089   4.440   2.357  0.2681 -0.4641  0.9337
13910SOL    HW143598   6.127   4.515   2.403  0.3632 -1.1110  1.9351
13910SOL    HW243599   5.995   4.453   2.364  0.2831 -0.5318  1.2704
13911SOL     OW43600   8.001   2.098   7.588  0.7019  0.1421  0.4835
13911SOL    HW143601   7.959   2.146   7.660  0.7247  0.8019  0.0676
13911SOL    HW243602   7.931   2.082   7.526  0.7842  0.0119  0.4249
13912SOL     OW43603   2.627   5.988   6.954 -0.1057 -0.2524 -0.6792
13912SOL    HW143604   2.649   6.076   6.984 -0.0512 -0.7907  0.9431
13912SOL    HW243605   2.531   5.989   6.945 -0.5685 -0.9789  2.8150
13913SOL     OW43606   7.946   0.114   0.088  0.8586 -0.0329 -0.3327
13913SOL    HW143607   7.985   0.199   0.109  1.5229 -0.0688 -1.3446
13913SOL    HW243608   7.945   0.112  -0.008  0.5930 -1.0564 -0.3136
13914SOL     OW43609   7.642   2.953   7.090  0.0503 -0.0223  0.2692
13914SOL    HW143610   7.567   2.904   7.056  0.4946  0.2123 -1.1096
13914SOL    HW243611   7.691   2.888   7.142 -0.1670 -0.6548 -0.2954
13915SOL     OW43612   6.136   1.613   0.162  0.1189 -0.2455 -0.0607
13915SOL    HW143613   6.154   1.531   0.115 -1.7478 -1.3187  0.9835
13915SOL    HW243614   6.127   1.587   0.254  1.1569  1.4200  0.5537
13916SOL     OW43615   5.253   5.252   6.947 -0.1575  0.5957 -0.4440
13916SOL    HW143616   5.299   5.170   6.927 -0.2333  0.0425  1.4534
13916SOL    HW243617   5.168   5.243   6.904  0.2828  0.2140 -1.2584
13917SOL     OW43618   4.999   8.412   3.836 -0.4929  0.2675  0.4050
13917SOL    HW143619   5.043   8.327   3.834 -0.3073  0.3358  1.2319
13917SOL    HW243620   4.981   8.432   3.744  1.8179  0.5455 -0.0515
13918SOL     OW43621   5.761   8.902   2.285  0.1444  0.4548  0.0812
13918SOL    HW143622   5.829   8.839   2.259  2.1103  1.3669  2.5484
13918SOL    HW243623   5.700   8.851   2.337 -0.3752 -0.1093 -1.0447
13919SOL     OW43624   7.287   2.076   7.655  0.4511 -0.6455 -0.3300
13919SOL    HW143625   7.258   2.158   7.615 -2.9477 -1.6749 -0.2676
13919SOL    HW243626   7.263   2.084   7.747  2.5393 -0.7635  0.2925
13920SOL     OW43627   8.324   5.506   5.469 -0.1221 -0.4082  0.3610
13920SOL    HW143628   8.379   5.429   5.454  2.2845  1.0052  1.4351
13920SOL    HW243629   8.307   5.505   5.563 -0.1843  0.2846  0.3615
13921SOL     OW43630   2.606   1.941   7.733  0.0955  0.4713  0.3923
13921SOL    HW143631   2.560   2.020   7.704  1.0803  0.8791 -0.0804
13921SOL    HW243632   2.538   1.874   7.735 -0.4840  1.0075 -0.5331
13922SOL     OW43633   4.232   5.684   6.137  0.4369 -0.1028  0.0314
13922SOL    HW143634   4.216   5.607   6.191 -0.7622 -0.1451 -0.3400
13922SOL    HW243635   4.314   5.666   6.092  0.5621 -0.8141  0.5269
13923SOL     OW43636   1.440   3.917   3.171  0.1773 -0.4318  0.3037
13923SOL    HW143637   1.403   3.984   3.228 -1.1142 -1.4265  0.6911
13923SOL    HW243638   1.532   3.942   3.160 -0.4748  1.9478 -0.3960
13924SOL     OW43639   6.490   5.117   5.171  0.5923 -0.0670 -0.5090
13924SOL    HW143640   6.496   5.022   5.164 -0.7853 -0.1222 -1.3810
13924SOL    HW243641   6.397   5.134   5.188  1.2538  0.9911  2.6829
13925SOL     OW43642   6.283   3.591   4.862  0.1022 -0.4079  0.4790
13925SOL    HW143643   6.215   3.647   4.823  0.4901 -0.2704 -0.0133
13925SOL    HW243644   6.263   3.591   4.955 -0.5725 -0.3613  0.3403
13926SOL     OW43645   6.654   5.826   8.797  0.0788 -0.4968 -0.2985
13926SOL    HW143646   6.563   5.834   8.770 -0.0228 -0.1700  0.1379
13926SOL    HW243647   6.655   5.754   8.860  0.2203 -0.8791 -0.7345
13927SOL     OW43648   7.800   5.141   0.523 -0.7612  0.3575 -0.7026
13927SOL    HW143649   7.877   5.197   0.529 -0.6377  0.1448 -0.2935
13927SOL    HW243650   7.827   5.068   0.468 -0.1498 -0.5558  0.7465
13928SOL     OW43651   8.972   5.919   6.668 -0.1436  0.0128 -0.3404
13928SOL    HW143652   9.030   5.982   6.710 -0.0571  0.2392 -0.7867
13928SOL    HW243653   9.022   5.887   6.593 -0.0400 -0.8780  0.1006
13929SOL     OW43654   3.545   3.482   2.783 -0.4833 -0.1763  0.8161
13929SOL    HW143655   3.629   3.484   2.827 -1.0254 -0.7107  1.9134
13929SOL    HW243656   3.539   3.395   2.744  0.2287  0.4739 -0.8496
13930SOL     OW43657   6.535   1.755   3.929 -0.5292  0.0328 -0.5195
13930SOL    HW143658   6.531   1.661   3.910 -0.5578 -0.0723 -0.0092
13930SOL    HW243659   6.446   1.787   3.913 -0.1963  0.2486 -2.0552
13931SOL     OW43660   2.937   6.714   1.360  0.5722 -0.2327  0.0036
13931SOL    HW143661   2.888   6.663   1.424  0.7036 -0.4790 -0.0906
13931SOL    HW243662   2.963   6.794   1.407 -0.1990  0.0541 -0.0427
13932SOL     OW43663   3.105   6.147   4.025 -0.2542  0.0343 -0.1242
13932SOL    HW143664   3.153   6.207   3.967  0.8535  0.4349  1.1333
13932SOL    HW243665   3.168   6.077   4.043 -0.9861 -0.6761 -0.3047
13933SOL     OW43666   3.586   6.395   7.400 -0.7561  0.3262 -0.3790
13933SOL    HW143667   3.665   6.448   7.389 -0.1919 -0.7274 -1.7222
13933SOL    HW243668   3.531   6.446   7.460  0.1787  1.9298 -0.8172
13934SOL     OW43669   1.389   1.006   8.583  0.4314 -1.0170 -0.0595
13934SOL    HW143670   1.321   0.974   8.642 -1.1074 -0.6255 -1.5232
13934SOL    HW243671   1.349   1.081   8.539  1.6771 -1.0076 -1.2498
13935SOL     OW43672   7.870   8.772   7.018  0.0578 -0.4607 -0.1315
13935SOL    HW143673   7.788   8.808   7.051  1.4055  0.9690  1.9728
13935SOL    HW243674   7.924   8.760   7.097  1.6195 -2.0344 -1.3561
13936SOL     OW43675   7.859   5.163   5.379  0.0475  0.1469  0.0275
13936SOL    HW143676   7.864   5.157   5.474  0.6958  0.7299  0.0442
13936SOL    HW243677   7.873   5.074   5.348  3.2581  0.4092  0.3916
13937SOL     OW43678   7.039   1.958   3.448 -0.7213  0.0881 -0.4699
13937SOL    HW143679   7.048   1.865   3.471  0.4327  0.1602 -0.5831
13937SOL    HW243680   6.986   1.995   3.518  0.9995 -0.1328  1.0298
13938SOL     OW43681   1.428   7.184   0.029 -0.3844 -0.3268  0.2985
13938SOL    HW143682   1.510   7.191   0.078 -0.2085  0.5498 -0.0949
13938SOL    HW243683   1.384   7.268   0.045 -0.5402 -0.2146 -0.6376
13939SOL     OW43684   8.337   7.727   6.819 -0.0396 -0.5011 -0.2673
13939SOL    HW143685   8.301   7.685   6.741 -1.0853  0.5615 -0.3868
13939SOL    HW243686   8.395   7.795   6.785  0.2372 -0.6572 -0.1077
13940SOL     OW43687   8.192   6.497   8.584  0.0965  0.2801 -0.0550
13940SOL    HW143688   8.201   6.439   8.659  0.3189  0.6117  0.1830
13940SOL    HW243689   8.112   6.546   8.601 -0.7406 -0.7706 -0.8343
13941SOL     OW43690   0.281   7.621   0.212  0.2338  0.1779 -0.9101
13941SOL    HW143691   0.265   7.638   0.305 -0.7257  0.0222 -1.0303
13941SOL    HW243692   0.199   7.646   0.169 -0.3867 -2.3237 -1.3725
13942SOL     OW43693   3.137   8.801   2.027 -0.0214  0.1317  0.1741
13942SOL    HW143694   3.078   8.847   1.967  1.6172  0.0139 -1.6216
13942SOL    HW243695   3.222   8.803   1.983  1.0378 -0.8431  2.0666
13943SOL     OW43696   5.787   3.487   4.643  0.6972  0.0034 -0.2257
13943SOL    HW143697   5.779   3.500   4.548  0.3660  0.7792 -0.1000
13943SOL    HW243698   5.860   3.426   4.653 -0.2259 -1.2958 -1.0538
13944SOL     OW43699   8.412   6.019   8.722 -0.4234 -0.8940  0.1374
13944SOL    HW143700   8.400   5.948   8.659 -0.4462 -0.7741  0.0061
13944SOL    HW243701   8.342   6.006   8.787 -1.7252  0.1842 -0.9818
13945SOL     OW43702   2.530   1.305   4.296  0.4482 -0.6419  0.3652
13945SOL    HW143703   2.443   1.265   4.294 -0.7886  1.6353  2.4598
13945SOL    HW243704   2.544   1.336   4.207 -1.6037  0.2400  0.2886
13946SOL     OW43705   1.667   1.933   1.179  0.3832  0.2152  0.4816
13946SOL    HW143706   1.665   1.843   1.148  1.4186  0.5391 -0.5854
13946SOL    HW243707   1.595   1.976   1.132 -0.0555 -0.0233  0.9259
13947SOL     OW43708   7.368   6.795   0.750 -0.5496  0.0527  0.2328
13947SOL    HW143709   7.447   6.814   0.700 -0.3482  1.1732  0.9542
13947SOL    HW243710   7.307   6.865   0.726 -0.3208  0.8335  1.7927
13948SOL     OW43711   4.599   3.136   0.175  0.1335  0.1151  0.1840
13948SOL    HW143712   4.579   3.119   0.083  0.5132  1.5262 -0.1824
13948SOL    HW243713   4.630   3.052   0.209  1.0082 -0.1771 -1.2533
13949SOL     OW43714   2.888   4.385   3.866 -0.4752  0.5310 -0.0551
13949SOL    HW143715   2.816   4.447   3.857 -0.0871  0.8292 -1.1726
13949SOL    HW243716   2.955   4.433   3.916  0.1832  1.3641 -1.6630
13950SOL     OW43717   5.733   4.072   7.767  0.1147  0.0794  0.2134
13950SOL    HW143718   5.658   4.095   7.713 -0.5924  0.9166  1.5075
13950SOL    HW243719   5.757   3.983   7.738 -1.1322 -0.0546 -0.4685
13951SOL     OW43720   6.994   1.305   7.771  0.1173  0.0647  0.1304
13951SOL    HW143721   6.910   1.280   7.811 -0.1185 -0.3532 -0.6064
13951SOL    HW243722   6.979   1.298   7.677 -0.4420  4.5173 -0.3091
13952SOL     OW43723   2.375   7.759   0.003 -0.1850  0.0921 -0.1221
13952SOL    HW143724   2.302   7.794   0.055 -1.1522 -1.8057 -0.1006
13952SOL    HW243725   2.335   7.690  -0.049  1.4813 -0.4824 -0.6809
13953SOL     OW43726   7.449   0.052   2.861  1.0644 -0.0032  0.1150
13953SOL    HW143727   7.358   0.079   2.848  0.8159 -0.6945  0.3695
13953SOL    HW243728   7.479   0.102   2.936  0.4030 -0.8790  0.9896
13954SOL     OW43729   5.153   4.101   8.299  0.2150  0.3293 -0.2370
13954SOL    HW143730   5.088   4.168   8.280 -0.1251  0.7905  2.2062
13954SOL    HW243731   5.193   4.128   8.381  1.7328 -1.2661 -0.3715
13955SOL     OW43732   6.002   7.640   6.502  0.3408  0.3599 -0.6094
13955SOL    HW143733   6.000   7.705   6.432  0.7033  2.4720  1.2384
13955SOL    HW243734   5.935   7.576   6.477  0.2945  1.1491 -2.7197
13956SOL     OW43735   5.588   7.300   5.522  0.0197  0.1406  0.5396
13956SOL    HW143736   5.592   7.287   5.617  1.4455 -0.0282  0.4729
13956SOL    HW243737   5.673   7.336   5.499 -1.2584  2.8587 -0.3088
13957SOL     OW43738   7.925   2.345   4.736  0.0732  0.2488 -0.7083
13957SOL    HW143739   7.884   2.407   4.676 -2.3962 -0.5527  0.0055
13957SOL    HW243740   7.934   2.265   4.685 -1.2830 -0.1958 -0.2882
13958SOL     OW43741   8.640   7.757   2.129  0.4543  1.1560 -0.2533
13958SOL    HW143742   8.629   7.677   2.181  0.2381  0.9086 -0.6674
13958SOL    HW243743   8.635   7.726   2.039  0.1377  1.6700 -0.4116
13959SOL     OW43744   8.295   3.160   7.579  0.4357 -0.2194 -0.2011
13959SOL    HW143745   8.259   3.158   7.490  1.7330  0.0938 -0.7575
13959SOL    HW243746   8.366   3.225   7.574  0.2065  0.1520  1.1890
13960SOL     OW43747   1.956   5.314   5.543 -0.1842  0.3399  0.1064
13960SOL    HW143748   1.892   5.374   5.581  0.6598  0.2508  1.7666
13960SOL    HW243749   2.022   5.303   5.612  0.0525 -1.9328 -0.4146
13961SOL     OW43750   4.602   0.457   0.087  0.7033  0.2290 -0.0146
13961SOL    HW143751   4.518   0.413   0.076  0.7086 -0.1972  1.4683
13961SOL    HW243752   4.667   0.395   0.052  0.4349  0.4768 -0.9764
13962SOL     OW43753   4.049   2.545   8.934  0.1042  0.2974 -0.1777
13962SOL    HW143754   4.105   2.499   8.996 -0.1692  1.3376  0.8775
13962SOL    HW243755   3.962   2.506   8.946  0.7664 -2.4806 -2.9724
13963SOL     OW43756   8.507   8.122   1.852  0.0061  0.4996  0.0570
13963SOL    HW143757   8.498   8.100   1.945 -0.0588  0.1509 -0.0317
13963SOL    HW243758   8.457   8.204   1.842  1.5562  1.5796  0.7118
13964SOL     OW43759   2.709   6.273   7.113 -0.5362  0.1017 -0.1470
13964SOL    HW143760   2.655   6.258   7.191  0.5152  0.8800  0.7647
13964SOL    HW243761   2.716   6.368   7.107 -0.0219  0.0276 -0.7730
13965SOL     OW43762   2.735   2.212   2.810 -0.6430  0.0429 -0.0127
13965SOL    HW143763   2.724   2.173   2.896  0.0626 -0.5965 -0.1992
13965SOL    HW243764   2.706   2.303   2.820 -1.6688 -0.3403  0.5992
13966SOL     OW43765   4.773   6.446   8.071  0.0136 -0.4918 -0.3433
13966SOL    HW143766   4.741   6.480   8.154  1.8246 -1.8756  1.0119
13966SOL    HW243767   4.743   6.355   8.069 -2.5895  0.2823 -2.7115
13967SOL     OW43768   1.251   5.865   0.279  0.3171 -0.3986 -0.0854
13967SOL    HW143769   1.287   5.948   0.248 -1.4055  0.0067 -1.1146
13967SOL    HW243770   1.206   5.887   0.360 -1.5380  0.0493 -1.1870
13968SOL     OW43771   2.121   7.999   1.434 -0.5481 -0.1125  0.2216
13968SOL    HW143772   2.152   8.081   1.474  1.7808 -0.8870  0.1533
13968SOL    HW243773   2.030   8.017   1.411 -0.3003  2.2467  0.7813
13969SOL     OW43774   8.662   0.686   7.027  0.7581 -0.0330 -0.6412
13969SOL    HW143775   8.753   0.714   7.043  1.0395  0.4751 -2.8390
13969SOL    HW243776   8.670   0.599   6.989  0.1796 -0.8041  0.9264
13970SOL     OW43777   6.741   0.794   8.946 -0.4277 -0.4959  0.1382
13970SOL    HW143778   6.650   0.799   8.973 -0.5562 -1.0007 -0.2046
13970SOL    HW243779   6.740   0.753   8.860  0.1204 -0.5036  0.1267
13971SOL     OW43780   0.284   4.980   5.869  0.4181 -0.3168  1.1592
13971SOL    HW143781   0.216   5.031   5.827  1.5652 -0.1456 -0.5980
13971SOL    HW243782   0.337   5.044   5.917  0.6682 -0.1219  0.6312
13972SOL     OW43783   4.642   5.129   0.255  0.2557  0.2395  0.3949
13972SOL    HW143784   4.653   5.119   0.350  1.0528 -2.2512  0.1240
13972SOL    HW243785   4.566   5.186   0.245  0.6448  1.2197  2.5091
13973SOL     OW43786   4.943   8.836   5.179  0.3078  0.2952 -0.0041
13973SOL    HW143787   4.959   8.812   5.270 -0.4276  0.6781  0.2295
13973SOL    HW243788   4.983   8.922   5.169 -0.4805  0.6960  0.2360
13974SOL     OW43789   3.441   6.911   6.338  0.5824  0.1042  0.5501
13974SOL    HW143790   3.488   6.869   6.266  0.5715  0.1988  0.4877
13974SOL    HW243791   3.365   6.855   6.354  0.2463  0.4202  0.0716
13975SOL     OW43792   5.191   0.189   1.886 -0.2787 -0.0329 -0.0295
13975SOL    HW143793   5.197   0.119   1.821  1.8838  1.6295 -1.8114
13975SOL    HW243794   5.253   0.255   1.855 -0.5264  1.6794  2.7980
13976SOL     OW43795   4.343   4.323   8.209  0.1809  0.4654  0.2607
13976SOL    HW143796   4.289   4.361   8.278 -2.0132 -0.2136 -1.0058
13976SOL    HW243797   4.359   4.234   8.238  1.5313  0.9429  1.0959
13977SOL     OW43798   5.760   0.243   0.064 -0.3697  0.4210 -0.1339
13977SOL    HW143799   5.778   0.316   0.124 -1.7937  0.7776 -0.0932
13977SOL    HW243800   5.846   0.216   0.032  0.4770  0.0682  2.2446
13978SOL     OW43801   0.568   0.965   1.453 -0.8521  0.7413  0.5812
13978SOL    HW143802   0.547   0.992   1.542  0.7780 -0.6484  1.4621
13978SOL    HW243803   0.532   0.877   1.446  0.2178  0.2969  0.3905
13979SOL     OW43804   5.986   0.983   4.261 -0.7669  0.2379  0.4885
13979SOL    HW143805   6.018   0.962   4.349 -2.4956  1.1486  1.3959
13979SOL    HW243806   5.897   0.948   4.259 -0.3900 -0.7367 -1.3256
13980SOL     OW43807   5.546   7.866   2.988  0.1891 -0.7149  0.5121
13980SOL    HW143808   5.566   7.815   2.910  0.1326 -2.7837  1.7639
13980SOL    HW243809   5.556   7.804   3.060  2.7237  1.6675  2.4494
13981SOL     OW43810   8.487   1.739   6.810  0.4036 -0.0160 -0.7659
13981SOL    HW143811   8.482   1.827   6.774  2.1580  0.8422  0.9444
13981SOL    HW243812   8.398   1.720   6.841 -0.1828  0.7815 -1.8774
13982SOL     OW43813   5.915   1.637   7.670  0.1506  0.0253  0.0541
13982SOL    HW143814   5.850   1.693   7.713  0.6759 -1.1252  2.5498
13982SOL    HW243815   5.877   1.549   7.674  0.2006 -0.1281 -2.0057
13983SOL     OW43816   7.097   0.865   0.547 -0.1946 -0.3725 -0.0927
13983SOL    HW143817   7.094   0.778   0.509  1.2608  0.3013 -1.9052
13983SOL    HW243818   7.006   0.895   0.546 -0.7777 -1.9921  0.9717
13984SOL     OW43819   7.434   2.462   4.038 -0.3217 -0.3259 -0.8453
13984SOL    HW143820   7.394   2.529   4.093  0.4287 -0.9841  0.5504
13984SOL    HW243821   7.432   2.382   4.091  3.6120 -0.2163 -0.2197
13985SOL     OW43822   8.549   0.962   3.029 -0.2296  0.3506 -0.0758
13985SOL    HW143823   8.566   1.006   3.112  0.4055 -1.1188  0.6020
13985SOL    HW243824   8.469   1.003   2.996 -1.3889 -0.1053  2.0346
13986SOL     OW43825   6.555   1.876   1.112 -0.6307 -0.2184 -0.0042
13986SOL    HW143826   6.575   1.923   1.031 -0.0083 -1.1612 -0.4124
13986SOL    HW243827   6.632   1.887   1.167 -0.1221 -1.4368 -0.4364
13987SOL     OW43828   2.541   6.914   4.633 -0.5009 -0.1369  0.5722
13987SOL    HW143829   2.628   6.879   4.619 -0.4443 -0.7644  2.2959
13987SOL    HW243830   2.482   6.839   4.621 -0.7618  0.1506  0.0059
13988SOL     OW43831   8.403   0.606   6.375 -0.4782  0.6600 -0.2204
13988SOL    HW143832   8.332   0.568   6.427  0.2158 -0.8444 -0.2912
13988SOL    HW243833   8.360   0.651   6.303 -1.4139  1.7428  0.9737
13989SOL     OW43834   5.513   0.685   5.198  0.0228 -0.2950 -0.1860
13989SOL    HW143835   5.553   0.706   5.114 -1.1802  0.2558 -0.6468
13989SOL    HW243836   5.483   0.769   5.233 -1.0444 -0.7221 -0.0399
13990SOL     OW43837   1.391   4.134   1.732  0.3260  0.4211 -0.2076
13990SOL    HW143838   1.486   4.134   1.746  0.5522  2.1792 -1.4508
13990SOL    HW243839   1.358   4.194   1.799  0.0347 -0.4142  0.4123
13991SOL     OW43840   1.676   3.063   8.867 -0.0097  0.0776  0.2214
13991SOL    HW143841   1.765   3.026   8.871  0.6289  1.4731 -0.3116
13991SOL    HW243842   1.648   3.067   8.959  0.1388 -1.0986  0.3430
13992SOL     OW43843   8.315   3.718   2.014  0.1469 -0.3355  0.2262
13992SOL    HW143844   8.239   3.775   2.025 -0.4825 -0.9930 -0.6335
13992SOL    HW243845   8.390   3.775   2.032 -0.4837  0.6577 -0.2068
13993SOL     OW43846   6.809   4.056   5.588  0.4345 -0.0194 -0.1799
13993SOL    HW143847   6.842   4.001   5.658 -0.1830  0.0144  0.1487
13993SOL    HW243848   6.724   4.087   5.620  1.2538  2.0524  0.1431
13994SOL     OW43849   0.023   2.485   2.370 -0.6868  0.2449  0.5630
13994SOL    HW143850  -0.042   2.431   2.325  0.8619  0.0625 -1.6295
13994SOL    HW243851   0.105   2.436   2.363 -0.0632  0.9414  2.3409
13995SOL     OW43852   4.664   8.275   6.652  0.3599 -0.2845  0.2301
13995SOL    HW143853   4.719   8.268   6.730  0.8918 -0.4151 -0.1514
13995SOL    HW243854   4.577   8.250   6.681  0.7655 -1.3467  0.5514
13996SOL     OW43855   4.967   8.058   0.390  0.3367  0.4315  0.0332
13996SOL    HW143856   4.922   7.995   0.334  0.8454  0.5228 -0.4946
13996SOL    HW243857   4.905   8.129   0.403  0.1019  0.2589 -0.1545
13997SOL     OW43858   4.853   1.894   1.936 -0.0834  0.2465 -0.1631
13997SOL    HW143859   4.865   1.989   1.935 -0.7598  0.3648  0.9009
13997SOL    HW243860   4.807   1.874   1.854 -2.2710  1.2135  0.7392
13998SOL     OW43861   7.702   8.860   2.214  0.2303  0.0564  0.0517
13998SOL    HW143862   7.689   8.906   2.296  0.9818  1.5566 -0.6275
13998SOL    HW243863   7.791   8.883   2.187 -0.1578 -0.0450 -1.3912
13999SOL     OW43864   5.800   6.688   5.567  0.9216  0.1606  0.1289
13999SOL    HW143865   5.883   6.667   5.524 -0.0011 -1.4999 -0.9619
13999SOL    HW243866   5.785   6.615   5.627  0.3001  0.5063  0.4022
14000SOL     OW43867   1.558   2.309   2.456 -0.2152 -0.8788 -0.0143
14000SOL    HW143868   1.538   2.307   2.362 -1.4820  0.9225  0.1738
14000SOL    HW243869   1.492   2.251   2.495  0.5729 -1.9619 -0.2479
14001SOL     OW43870   7.852   7.649   8.379 -0.0554  0.4292 -0.4218
14001SOL    HW143871   7.765   7.609   8.381  0.2662 -0.2819  1.1273
14001SOL    HW243872   7.850   7.713   8.450 -0.5069  3.2184 -2.7425
14002SOL     OW43873   4.873   8.170   1.459 -0.0028  0.2754  0.3251
14002SOL    HW143874   4.846   8.162   1.550 -0.5722  1.9349  0.3345
14002SOL    HW243875   4.965   8.145   1.458 -0.3632 -1.1470  1.0863
14003SOL     OW43876   4.887   4.945   2.377 -0.0262  0.1947  0.9732
14003SOL    HW143877   4.966   4.994   2.352 -0.2273  0.3963  0.7264
14003SOL    HW243878   4.825   4.962   2.306 -0.4077  0.3027  1.3329
14004SOL     OW43879   8.821   2.635   2.494 -0.1745  0.2080  0.2344
14004SOL    HW143880   8.873   2.586   2.430 -0.2830  0.0466  0.2682
14004SOL    HW243881   8.886   2.675   2.552  0.0020  1.6097 -0.8667
14005SOL     OW43882   4.438   3.453   8.074  0.2664  0.0274 -0.2413
14005SOL    HW143883   4.500   3.385   8.099 -1.2016 -0.7567  1.4720
14005SOL    HW243884   4.451   3.464   7.980  1.6082 -1.5003 -0.2753
14006SOL     OW43885   2.129   1.612   3.711  0.2030  0.2184  0.1854
14006SOL    HW143886   2.168   1.659   3.784  1.5966  2.3943 -1.7939
14006SOL    HW243887   2.200   1.558   3.676 -0.6745 -1.4385  0.8516
14007SOL     OW43888   5.911   0.000   6.538  0.0126  0.2025 -0.1534
14007SOL    HW143889   5.888  -0.018   6.629  0.5123  0.2625 -0.0120
14007SOL    HW243890   5.901   0.095   6.530 -3.0360 -0.0958 -1.0133
14008SOL     OW43891   6.054   5.917   1.123 -0.1801 -0.7948 -0.2157
14008SOL    HW143892   6.081   5.988   1.065 -1.0286 -0.7477 -0.5736
14008SOL    HW243893   5.992   5.865   1.071 -3.4190  0.9820  1.5102
14009SOL     OW43894   6.945   8.647   2.769  0.1579 -0.9386  0.7275
14009SOL    HW143895   7.034   8.610   2.766 -0.2793 -2.0545  1.0584
14009SOL    HW243896   6.918   8.638   2.861 -0.9864 -2.3439  0.2933
14010SOL     OW43897   1.371   2.437   2.737  0.8879  0.1126 -0.5239
14010SOL    HW143898   1.341   2.403   2.653  0.7454 -1.5902  0.1713
14010SOL    HW243899   1.439   2.375   2.766  0.8364  0.5743  0.6721
14011SOL     OW43900   6.294   8.885   8.268  0.4908 -0.0058  0.3450
14011SOL    HW143901   6.357   8.858   8.201  0.5222 -0.8142  0.6955
14011SOL    HW243902   6.344   8.886   8.349 -0.0002 -0.8994  0.6671
14012SOL     OW43903   7.509   6.505   7.913  0.3493 -0.2356  0.4006
14012SOL    HW143904   7.504   6.419   7.955  0.3988  0.4953  1.9671
14012SOL    HW243905   7.454   6.497   7.835  0.2647 -1.6460  0.5801
14013SOL     OW43906   8.745   2.423   5.120 -0.8861 -0.5381  0.2135
14013SOL    HW143907   8.698   2.467   5.192 -0.2264 -0.8311  0.8410
14013SOL    HW243908   8.729   2.479   5.044 -1.5646 -0.1938  0.5970
14014SOL     OW43909   2.602   7.214   3.633 -0.0719  0.1319 -0.1966
14014SOL    HW143910   2.512   7.212   3.602 -0.8621 -1.2336  1.9678
14014SOL    HW243911   2.622   7.124   3.657  1.2895  0.6724  0.8805
14015SOL     OW43912   5.556   2.024   2.883  0.7640  0.4755  0.3888
14015SOL    HW143913   5.577   1.933   2.863 -1.8039  0.1144 -1.1727
14015SOL    HW243914   5.517   2.058   2.802 -1.9065  1.7366  2.0415
14016SOL     OW43915   2.930   2.056   1.126  0.3215 -0.2897  0.5453
14016SOL    HW143916   2.885   2.088   1.204  0.3739 -0.0606  0.4803
14016SOL    HW243917   2.877   2.086   1.052  1.6077  1.6857  0.3655
14017SOL     OW43918   6.466   5.244   8.353  0.1678  0.0471 -0.5387
14017SOL    HW143919   6.557   5.267   8.368  1.5241 -3.7574 -1.6147
14017SOL    HW243920   6.453   5.256   8.259 -0.3656  0.3236 -0.4339
14018SOL     OW43921   4.321   0.140   6.619  0.5322 -0.4603  0.4696
14018SOL    HW143922   4.375   0.197   6.564 -0.4829 -0.3933 -0.4913
14018SOL    HW243923   4.274   0.200   6.677  1.8797 -0.5530  1.7099
14019SOL     OW43924   8.933   3.022   7.156 -0.0046  0.6122  0.3776
14019SOL    HW143925   8.941   3.054   7.067 -2.1714  0.9942  0.2654
14019SOL    HW243926   9.016   3.044   7.198  1.4761 -0.5042 -1.7823
14020SOL     OW43927   5.248   3.065   3.237  0.3003  0.4366 -0.3664
14020SOL    HW143928   5.205   3.016   3.307  1.0159  2.3988  1.5758
14020SOL    HW243929   5.195   3.048   3.159 -1.0098 -1.1891  0.8111
14021SOL     OW43930   6.285   6.315   2.031 -0.0253 -0.0544 -0.2540
14021SOL    HW143931   6.363   6.273   2.067  0.0278  0.2045 -0.0626
14021SOL    HW243932   6.226   6.323   2.106  0.1221  0.5705 -0.1989
14022SOL     OW43933   3.269   8.194   8.360  0.3753 -0.3829 -0.1585
14022SOL    HW143934   3.316   8.115   8.386  0.2878 -0.3907 -0.0246
14022SOL    HW243935   3.193   8.162   8.312 -0.6751 -0.4674  1.4865
14023SOL     OW43936   1.253   3.773   3.382 -0.0057  0.3441 -0.4357
14023SOL    HW143937   1.200   3.779   3.461 -0.8533 -1.5985 -0.8128
14023SOL    HW243938   1.318   3.842   3.392 -0.5313  0.6040  1.6137
14024SOL     OW43939   2.138   3.925   4.100 -0.0899 -0.3721 -0.0455
14024SOL    HW143940   2.159   3.946   4.009  1.3537 -0.4132  0.2521
14024SOL    HW243941   2.188   3.845   4.118  0.6217  0.2999  1.1294
14025SOL     OW43942   4.476   8.926   3.865  0.0211 -0.5194  0.0731
14025SOL    HW143943   4.564   8.922   3.827 -0.5542 -1.7180 -1.2033
14025SOL    HW243944   4.463   9.019   3.885  1.6575 -0.3559  0.5256
14026SOL     OW43945   3.867   8.200   5.812  0.2893  0.2052  0.3816
14026SOL    HW143946   3.798   8.155   5.860 -0.2575  1.3568  0.7176
14026SOL    HW243947   3.854   8.174   5.721  0.8700 -1.4103  0.7275
14027SOL     OW43948   1.053   6.707   6.085 -0.5439 -0.1847  0.1203
14027SOL    HW143949   1.099   6.720   6.169  1.8027 -1.0692 -0.9423
14027SOL    HW243950   0.990   6.779   6.082 -1.0958 -0.4150  2.8526
14028SOL     OW43951   5.775   2.305   7.510 -0.1770 -0.2239 -0.0051
14028SOL    HW143952   5.734   2.249   7.575 -1.0585  0.8722  0.4114
14028SOL    HW243953   5.849   2.346   7.556  0.6524 -1.2252 -0.3940
14029SOL     OW43954   3.290   6.960   0.116  0.0061 -0.2116  0.1497
14029SOL    HW143955   3.318   7.003   0.197  0.0307 -0.2641  0.1691
14029SOL    HW243956   3.362   6.975   0.055  0.8763 -1.8418  0.7175
14030SOL     OW43957   1.422   7.820   7.207  0.0241 -0.5286 -0.2831
14030SOL    HW143958   1.392   7.739   7.166 -0.2426 -0.3760 -0.3929
14030SOL    HW243959   1.386   7.817   7.295 -0.2141 -0.4078 -0.3726
14031SOL     OW43960   6.941   7.668   7.122 -0.4693  0.2832 -0.1322
14031SOL    HW143961   6.931   7.754   7.163  0.7433  0.7103 -0.6542
14031SOL    HW243962   6.852   7.635   7.112 -1.1291  2.2132 -1.4073
14032SOL     OW43963   4.841   5.215   6.032 -0.6192 -0.4548 -0.2533
14032SOL    HW143964   4.760   5.251   5.996 -0.9357 -1.0632 -0.1491
14032SOL    HW243965   4.826   5.121   6.038 -0.4568 -0.4063  1.2073
14033SOL     OW43966   1.495   5.375   2.415 -0.2747 -0.3346 -0.3444
14033SOL    HW143967   1.499   5.389   2.321  0.0740 -0.9965 -0.4398
14033SOL    HW243968   1.405   5.348   2.432 -0.5599  0.5886 -0.3621
14034SOL     OW43969   0.205   1.800   5.591  0.3723 -0.2374 -0.1262
14034SOL    HW143970   0.141   1.821   5.523 -1.1956 -1.0297  1.0170
14034SOL    HW243971   0.154   1.755   5.659  2.4502 -2.4951  0.1083
14035SOL     OW43972   8.695   5.334   0.134  0.2584  0.5224 -0.6441
14035SOL    HW143973   8.642   5.266   0.093 -0.7604  1.5933 -1.1693
14035SOL    HW243974   8.662   5.416   0.098  1.9109  1.2786 -0.5475
14036SOL     OW43975   6.116   5.912   8.328  0.3725  0.8998 -0.1812
14036SOL    HW143976   6.192   5.946   8.281  0.7519  1.4351  0.7938
14036SOL    HW243977   6.079   5.847   8.268  1.2478  1.0493 -0.9219
14037SOL     OW43978   1.513   8.251   8.169 -0.3298 -0.4727  0.4338
14037SOL    HW143979   1.598   8.214   8.194 -0.5268 -1.1906  0.0578
14037SOL    HW243980   1.531   8.301   8.090 -0.3024 -0.8459  0.2018
14038SOL     OW43981   7.468   4.559   5.369  0.3142  0.7128  0.1562
14038SOL    HW143982   7.437   4.507   5.295 -1.6812 -1.6634  2.5004
14038SOL    HW243983   7.564   4.556   5.361  0.1732  0.1796 -2.0365
14039SOL     OW43984   6.127   0.908   1.233 -0.4327  0.0697 -0.3700
14039SOL    HW143985   6.079   0.885   1.313  0.5446  1.3498  0.6233
14039SOL    HW243986   6.184   0.980   1.259  0.3427  0.1237 -2.0929
14040SOL     OW43987   0.684   8.257   8.266  0.1310  0.2050 -0.0054
14040SOL    HW143988   0.599   8.242   8.225 -0.3699 -2.5935  1.7867
14040SOL    HW243989   0.668   8.329   8.327 -1.3831 -1.0679  1.2109
14041SOL     OW43990   0.580   7.951   8.213 -0.3913 -0.3565 -0.0598
14041SOL    HW143991   0.575   7.887   8.284 -0.1760 -0.9159 -0.5408
14041SOL    HW243992   0.511   8.014   8.232  0.3659  0.1087  1.2364
14042SOL     OW43993   6.548   8.517   3.253 -0.3753 -0.2195 -0.4327
14042SOL    HW143994   6.554   8.423   3.238 -0.3464 -0.1732 -0.7266
14042SOL    HW243995   6.636   8.550   3.234 -0.0773 -0.2735  0.7638
14043SOL     OW43996   8.143   7.144   1.062 -0.1079  0.0273  0.4476
14043SOL    HW143997   8.109   7.180   0.980 -1.6341 -0.4030  0.8692
14043SOL    HW243998   8.086   7.179   1.130 -0.9559 -2.2047  0.9890
14044SOL     OW43999   8.593   2.172   2.634 -0.0052  0.8018  0.0607
14044SOL    HW144000   8.529   2.100   2.628  0.4551  0.4146 -0.3153
14044SOL    HW244001   8.602   2.188   2.727  2.1232 -1.6943  0.4141
14045SOL     OW44002   5.741   3.467   0.930  0.0835 -0.2166 -0.1444
14045SOL    HW144003   5.732   3.525   1.006 -1.3750 -1.5448  0.7582
14045SOL    HW244004   5.675   3.498   0.868  0.2782 -0.0317 -0.2590
14046SOL     OW44005   1.876   2.211   4.136 -0.2652 -0.0410  0.3464
14046SOL    HW144006   1.856   2.202   4.229  1.0876  0.5365  0.7157
14046SOL    HW244007   1.906   2.124   4.109  0.9956  0.2048  0.8904
14047SOL     OW44008   3.244   7.207   4.896 -0.1504 -1.0856  0.1473
14047SOL    HW144009   3.255   7.157   4.977  0.6890  0.9430  1.3473
14047SOL    HW244010   3.177   7.272   4.916  1.5778  0.8518  0.0056
14048SOL     OW44011   7.928   7.603   1.845 -0.3303 -0.1328 -0.3248
14048SOL    HW144012   7.841   7.641   1.858 -0.9355 -1.0584 -1.4591
14048SOL    HW244013   7.944   7.552   1.925 -0.6521  0.3531  0.0551
14049SOL     OW44014   4.106   2.409   7.399  0.2940 -0.2737  0.5507
14049SOL    HW144015   4.134   2.367   7.481  0.0868 -0.5828  0.4639
14049SOL    HW244016   4.084   2.499   7.425  0.7164 -0.2174  0.7410
14050SOL     OW44017   3.942   6.082   7.117  0.3362  0.0009 -0.1946
14050SOL    HW144018   3.889   6.136   7.176 -0.5586 -1.4574  0.3880
14050SOL    HW244019   3.953   5.999   7.163  0.9196 -0.6426 -1.4308
14051SOL     OW44020   8.832   0.124   2.179  0.1260 -0.1432 -0.8239
14051SOL    HW144021   8.810   0.100   2.088  1.3078  0.8760 -1.4126
14051SOL    HW244022   8.790   0.209   2.191 -0.1865 -0.3625 -0.3330
14052SOL     OW44023   4.592   7.709   7.858  0.6880 -0.4585  0.7407
14052SOL    HW144024   4.618   7.782   7.914  2.6740  0.3462 -1.0773
14052SOL    HW244025   4.578   7.749   7.772  0.8291 -2.0669 -0.0709
14053SOL     OW44026   5.140   6.786   5.678 -0.8275 -0.1402 -0.3656
14053SOL    HW144027   5.141   6.722   5.606  0.1909  0.0610 -0.5432
14053SOL    HW244028   5.047   6.803   5.692 -1.1728 -2.1502  0.1410
14054SOL     OW44029   8.672   6.865   4.170 -0.5131  0.0694  0.3656
14054SOL    HW144030   8.670   6.898   4.260 -0.3431  2.0551 -0.3072
14054SOL    HW244031   8.594   6.903   4.129 -0.7760 -1.0967 -0.2545
14055SOL     OW44032   6.601   2.173   1.632  0.2656  0.2064  0.1513
14055SOL    HW144033   6.633   2.092   1.592 -1.3103 -1.1345  1.4230
14055SOL    HW244034   6.677   2.232   1.632  2.0270 -1.9078  0.8072
14056SOL     OW44035   8.582   2.289   1.827  0.1969 -0.0231 -0.2820
14056SOL    HW144036   8.585   2.210   1.772  0.0893  0.4762 -1.0132
14056SOL    HW244037   8.494   2.324   1.814  0.5018  0.6458 -0.5782
14057SOL     OW44038   2.392   1.183   0.773 -0.2283 -0.0346 -0.1107
14057SOL    HW144039   2.348   1.212   0.693 -0.3281  1.2390  0.3829
14057SOL    HW244040   2.448   1.257   0.798  0.1397 -0.5862  0.7580
14058SOL     OW44041   0.965   1.836   1.735 -0.2217  0.0375 -0.2245
14058SOL    HW144042   0.976   1.887   1.655 -1.7780  0.6831 -0.0561
14058SOL    HW244043   1.054   1.823   1.768  0.4403 -0.2000 -2.0154
14059SOL     OW44044   0.734   3.133   6.808  0.1482  0.1480  0.5005
14059SOL    HW144045   0.794   3.149   6.735 -1.5277  1.9430 -0.5648
14059SOL    HW244046   0.730   3.037   6.814 -0.1094 -0.0668 -2.1704
14060SOL     OW44047   3.866   7.707   7.392  0.6215 -0.0951  0.6884
14060SOL    HW144048   3.887   7.636   7.453  1.0488  0.0652  0.7314
14060SOL    HW244049   3.783   7.680   7.352  1.0034 -0.8326  0.3745
14061SOL     OW44050   4.399   0.734   3.732  0.3860  0.3592 -0.0931
14061SOL    HW144051   4.345   0.738   3.811  1.5274 -1.0892  0.8290
14061SOL    HW244052   4.457   0.810   3.739 -1.2881  1.7714 -0.9594
14062SOL     OW44053   3.967   3.727   7.836  0.5769 -0.4698 -0.5514
14062SOL    HW144054   3.992   3.667   7.906 -1.0470  0.1931  0.6535
14062SOL    HW244055   4.024   3.803   7.848 -0.9955  0.4797  1.3411
14063SOL     OW44056   2.101   8.951   0.447  0.2128  0.0106 -0.3612
14063SOL    HW144057   2.067   8.923   0.532 -0.4430  1.2654 -0.1876
14063SOL    HW244058   2.123   8.869   0.402  1.0877 -0.6619  1.2036
14064SOL     OW44059   1.203   5.045   1.900  0.5862 -0.1014  0.2049
14064SOL    HW144060   1.245   4.959   1.911 -3.1065 -1.8776  1.8880
14064SOL    HW244061   1.164   5.041   1.813  1.0535  0.2370 -0.0280
14065SOL     OW44062   2.959   0.887   6.345  0.2524 -0.3745 -0.0657
14065SOL    HW144063   3.017   0.866   6.418  0.2133  0.8700  0.3467
14065SOL    HW244064   2.973   0.981   6.330 -0.5397 -0.3855 -0.9488
14066SOL     OW44065   8.944   3.295   5.189  0.2712  0.9813 -0.3898
14066SOL    HW144066   8.942   3.225   5.254 -1.6385  0.1833 -1.2333
14066SOL    HW244067   8.987   3.256   5.112 -0.2418  0.9152 -0.6487
14067SOL     OW44068   2.560   7.654   6.873 -0.2780  0.3213 -0.3724
14067SOL    HW144069   2.580   7.748   6.875  2.8087 -0.2166 -0.7074
14067SOL    HW244070   2.581   7.623   6.961  0.3118 -0.2776 -0.7102
14068SOL     OW44071   4.466   8.210   5.155  0.5744  0.8920 -0.3731
14068SOL    HW144072   4.406   8.257   5.213  1.5174 -1.8954  3.2110
14068SOL    HW244073   4.411   8.149   5.107  0.1962 -0.6186  1.8163
14069SOL     OW44074   1.768   6.955   2.070 -0.5184  0.3081  0.1360
14069SOL    HW144075   1.793   6.920   1.984  1.0247  0.1999  0.5974
14069SOL    HW244076   1.851   6.960   2.119 -0.9252  2.9125  0.7159
14070SOL     OW44077   7.995   2.595   5.178  0.1065 -0.3541 -0.3482
14070SOL    HW144078   7.956   2.618   5.094 -0.3390 -0.1712 -0.0955
14070SOL    HW244079   8.033   2.508   5.165 -2.4160 -1.6137  0.0301
14071SOL     OW44080   3.651   3.902   3.924  0.2011  0.5428  0.1594
14071SOL    HW144081   3.677   3.840   3.993  0.7795 -1.0949 -1.4620
14071SOL    HW244082   3.559   3.919   3.942 -0.1189 -1.2019  0.3758
14072SOL     OW44083   8.708   8.409   0.355  0.8919  0.0717  0.2544
14072SOL    HW144084   8.658   8.474   0.305  0.0125 -0.9129 -0.1781
14072SOL    HW244085   8.786   8.456   0.384  0.2419  1.3378  0.0067
14073SOL     OW44086   3.107   0.474   1.422 -0.6283 -0.6350 -0.3420
14073SOL    HW144087   3.168   0.534   1.465 -1.7057  1.6799 -1.8362
14073SOL    HW244088   3.162   0.400   1.394  1.0847  0.3861  0.1779
14074SOL     OW44089   3.861   0.684   3.126 -0.3733 -0.5055 -0.2883
14074SOL    HW144090   3.787   0.628   3.147 -1.2334  0.4719 -0.6332
14074SOL    HW244091   3.927   0.661   3.192 -1.4567 -0.4845  0.8470
14075SOL     OW44092   4.604   2.564   8.255 -0.0606  0.3255  0.7259
14075SOL    HW144093   4.610   2.559   8.160 -1.1381 -0.2992  0.6785
14075SOL    HW244094   4.640   2.650   8.277 -1.2109  1.1218 -0.3851
14076SOL     OW44095   7.700   8.632   0.884 -0.2962 -0.3450 -0.0190
14076SOL    HW144096   7.771   8.573   0.860  0.0614 -0.3806  1.0712
14076SOL    HW244097   7.676   8.675   0.802 -0.5476 -1.9631 -0.8351
14077SOL     OW44098   0.071   8.067   6.031 -0.0362  0.2406 -0.0523
14077SOL    HW144099   0.073   7.988   6.084  2.2134  0.0313 -0.3616
14077SOL    HW244100   0.092   8.137   6.093  1.5986  0.1151 -0.4247
14078SOL     OW44101   2.463   4.164   3.545 -0.2907 -0.2884 -0.0862
14078SOL    HW144102   2.549   4.153   3.505 -0.1158 -3.3378  0.8653
14078SOL    HW244103   2.419   4.227   3.489  2.7503  1.9937 -0.1815
14079SOL     OW44104   4.237   8.385   7.207  0.0848  0.4971  0.1661
14079SOL    HW144105   4.193   8.371   7.123  0.0646  0.1056  0.2437
14079SOL    HW244106   4.166   8.399   7.270  0.0767  0.0779  0.2514
14080SOL     OW44107   4.797   3.840   4.698 -0.0910  0.0585 -0.3182
14080SOL    HW144108   4.859   3.769   4.683  0.5116  0.6007 -0.4856
14080SOL    HW244109   4.733   3.832   4.628  0.4430  0.1712 -0.8323
14081SOL     OW44110   1.018   1.594   2.988 -0.1482  0.3068  0.2397
14081SOL    HW144111   0.974   1.631   2.912  0.2702  0.9089  0.2879
14081SOL    HW244112   1.106   1.632   2.987 -0.1871  0.4547  1.1110
14082SOL     OW44113   7.673   1.331   2.251  0.0742 -0.4211  0.3973
14082SOL    HW144114   7.752   1.383   2.269 -0.5391  0.2331  1.3010
14082SOL    HW244115   7.601   1.385   2.282 -0.8194 -0.6629 -1.1552
14083SOL     OW44116   8.091   6.089   4.161  0.7792  0.2908 -0.1002
14083SOL    HW144117   8.148   6.014   4.147 -0.1672 -0.2985 -0.9016
14083SOL    HW244118   8.072   6.122   4.073 -0.0043  0.5654  0.1639
14084SOL     OW44119   3.388   8.431   6.737 -0.1871  0.3877 -0.5656
14084SOL    HW144120   3.369   8.338   6.738 -2.4883  0.7954  1.1681
14084SOL    HW244121   3.337   8.465   6.663 -0.6786  0.4909 -0.1836
14085SOL     OW44122   4.219   8.572   1.076 -0.1781  0.2937 -0.3838
14085SOL    HW144123   4.238   8.640   1.012 -0.9172 -0.0751 -1.0122
14085SOL    HW244124   4.124   8.576   1.087  0.0348  1.1889  1.6426
14086SOL     OW44125   6.518   0.709   5.662 -0.5010 -0.5368  0.2644
14086SOL    HW144126   6.475   0.748   5.586 -1.1500  0.5360  1.1432
14086SOL    HW244127   6.611   0.710   5.640 -0.7411 -0.9996 -0.8409
14087SOL     OW44128   0.440   7.979   7.230 -0.1737 -0.4444 -0.6147
14087SOL    HW144129   0.415   7.951   7.143 -0.1243  0.8819 -1.0662
14087SOL    HW244130   0.385   7.927   7.289 -1.7929  0.2246 -1.4878
14088SOL     OW44131   3.552   6.320   4.784 -0.3363 -0.3230  0.0878
14088SOL    HW144132   3.616   6.336   4.714 -0.8095 -0.9904 -0.5157
14088SOL    HW244133   3.570   6.389   4.849  1.0264 -0.5262 -0.0317
14089SOL     OW44134   6.614   8.562   1.650 -0.7351 -0.0019 -0.5563
14089SOL    HW144135   6.583   8.472   1.645  0.5428 -0.4638 -0.4825
14089SOL    HW244136   6.537   8.612   1.679 -1.4769 -1.0412 -0.6653
14090SOL     OW44137   0.199   7.192   7.103 -0.0176  0.3092 -0.1849
14090SOL    HW144138   0.106   7.200   7.081 -0.4173  1.0155  1.5937
14090SOL    HW244139   0.204   7.217   7.195  1.4962 -2.5555  0.6435
14091SOL     OW44140   6.760   4.936   4.959  0.4389  0.3143 -0.0320
14091SOL    HW144141   6.774   4.989   5.038  0.1883  1.4970 -0.7416
14091SOL    HW244142   6.848   4.912   4.929  0.5591  0.3783  0.2764
14092SOL     OW44143   8.538   5.474   5.102  0.0187 -0.2145 -0.1575
14092SOL    HW144144   8.446   5.454   5.120  0.5378 -1.5799  1.2099
14092SOL    HW244145   8.565   5.528   5.176  0.4559 -0.2864 -0.2633
14093SOL     OW44146   3.906   0.452   3.566  0.2435  0.4640 -0.1024
14093SOL    HW144147   3.951   0.483   3.645 -1.4556  0.6113  0.8655
14093SOL    HW244148   3.949   0.498   3.494  1.4043  0.8217  0.7803
14094SOL     OW44149   4.470   6.458   2.194 -0.4284 -0.2135 -1.5473
14094SOL    HW144150   4.555   6.416   2.207 -0.1180  0.0444 -2.6972
14094SOL    HW244151   4.412   6.387   2.167 -1.0740 -0.7520  0.9834
14095SOL     OW44152   0.567   2.591   5.512 -0.5835  0.5640  0.1646
14095SOL    HW144153   0.651   2.634   5.500  0.6077 -1.3684  1.1690
14095SOL    HW244154   0.578   2.504   5.473 -2.3390  0.4857 -0.2684
14096SOL     OW44155   7.019   2.247   6.526 -0.3541  0.0444  0.5236
14096SOL    HW144156   7.091   2.304   6.501 -1.3145  0.9909 -0.1973
14096SOL    HW244157   6.943   2.305   6.528 -0.7791 -0.4913  3.2896
14097SOL     OW44158   6.711   6.901   1.313 -0.3403  0.5978 -0.4684
14097SOL    HW144159   6.653   6.937   1.380  1.2762  2.1940  0.1393
14097SOL    HW244160   6.655   6.841   1.263 -2.0069  0.6445  1.2393
14098SOL     OW44161   5.744   0.741   5.366 -0.0824 -0.7673 -0.2942
14098SOL    HW144162   5.680   0.729   5.296 -1.6067  2.0033  0.4908
14098SOL    HW244163   5.692   0.755   5.445  1.4148  1.0329  0.4675
14099SOL     OW44164   3.854   4.282   2.352  0.5360  0.7637 -0.3455
14099SOL    HW144165   3.840   4.295   2.258 -0.1139  0.8576 -0.2418
14099SOL    HW244166   3.942   4.315   2.368  1.2481 -0.6903 -1.1910
14100SOL     OW44167   8.627   5.039   8.724 -0.1238 -0.0455  0.0325
14100SOL    HW144168   8.639   4.954   8.682 -1.1267  0.1883 -0.7502
14100SOL    HW244169   8.592   5.095   8.656  0.4934  0.9982  0.5569
14101SOL     OW44170   3.338   6.377   0.769 -0.7978  0.3409 -0.6046
14101SOL    HW144171   3.390   6.298   0.754 -1.7676 -0.5437  0.3874
14101SOL    HW244172   3.293   6.392   0.686 -1.2963 -0.7132 -0.5501
14102SOL     OW44173   2.838   7.479   7.254  0.0619 -0.6858 -0.1788
14102SOL    HW144174   2.835   7.427   7.334 -1.5938  1.0794  1.0065
14102SOL    HW244175   2.879   7.561   7.280  0.3512 -0.4179 -1.3934
14103SOL     OW44176   5.860   4.484   4.299  0.5215 -0.1817  0.2060
14103SOL    HW144177   5.943   4.498   4.344  0.4847  0.9567 -0.0459
14103SOL    HW244178   5.816   4.417   4.351  1.6890 -0.9898  0.1968
14104SOL     OW44179   0.880   5.923   5.687  0.4897 -0.3576  0.1130
14104SOL    HW144180   0.964   5.968   5.694  0.4226 -0.1435 -0.4048
14104SOL    HW244181   0.855   5.932   5.595 -0.7410  0.7583  0.5196
14105SOL     OW44182   6.145   5.814   6.737  0.2057 -0.0299  0.2546
14105SOL    HW144183   6.187   5.750   6.679  1.3728 -1.0055  2.0977
14105SOL    HW244184   6.166   5.784   6.825 -1.2171  1.6113  1.2113
14106SOL     OW44185   1.429   3.920   1.321  0.3296 -0.2917 -0.0520
14106SOL    HW144186   1.511   3.938   1.367 -0.3360  1.2792  0.6026
14106SOL    HW244187   1.449   3.938   1.229  0.9026 -0.6219  0.0070
14107SOL     OW44188   2.229   5.664   6.106  0.6812  0.4634 -0.2146
14107SOL    HW144189   2.283   5.733   6.145  1.4749 -0.8271  1.0756
14107SOL    HW244190   2.288   5.618   6.046  0.2444  0.6818 -0.8283
14108SOL     OW44191   1.518   6.833   7.097 -0.1217  0.0688 -0.3681
14108SOL    HW144192   1.486   6.747   7.071 -0.0096  0.4300 -1.7918
14108SOL    HW244193   1.614   6.823   7.100 -0.1739 -0.2695  1.1217
14109SOL     OW44194   6.221   7.372   2.901 -0.0484  0.1882 -0.2442
14109SOL    HW144195   6.157   7.304   2.920  0.3802  0.1275  1.1062
14109SOL    HW244196   6.270   7.339   2.826 -0.3079 -0.6661 -0.0442
14110SOL     OW44197   8.376   4.218   7.259  0.1409 -0.0778  0.0249
14110SOL    HW144198   8.298   4.195   7.209 -0.6942 -0.8014  1.6053
14110SOL    HW244199   8.403   4.137   7.302  1.9185  0.1020 -0.6580
14111SOL     OW44200   3.316   4.597   7.566 -0.0233 -0.1305 -0.5392
14111SOL    HW144201   3.395   4.544   7.555  0.9791  1.4517 -1.3600
14111SOL    HW244202   3.337   4.658   7.637 -0.0277  1.0531 -1.5050
14112SOL     OW44203   8.008   1.609   4.236  0.1324  0.3377 -0.2014
14112SOL    HW144204   7.940   1.574   4.179  0.3340 -0.2286 -0.1034
14112SOL    HW244205   8.074   1.643   4.175 -1.0666  2.6405 -0.3225
14113SOL     OW44206   1.939   5.278   3.049 -0.3423 -0.4635  0.1814
14113SOL    HW144207   1.978   5.341   3.110 -0.1159 -1.3845  1.0071
14113SOL    HW244208   1.961   5.193   3.086 -1.0238 -1.0246 -0.6915
14114SOL     OW44209   2.740   4.989   1.809  0.0806 -0.5167 -0.7852
14114SOL    HW144210   2.648   4.983   1.834  0.1572  1.3099  0.1332
14114SOL    HW244211   2.784   4.927   1.867 -0.5042 -1.0284 -0.8763
14115SOL     OW44212   3.731   2.983   4.296  0.5000  0.5097 -0.0650
14115SOL    HW144213   3.786   3.048   4.340  1.5121  0.0970 -0.6617
14115SOL    HW244214   3.789   2.907   4.285 -0.0057  0.2753 -1.2713
14116SOL     OW44215   1.249   6.869   0.918 -0.0001 -0.3196  0.1846
14116SOL    HW144216   1.308   6.836   0.850  0.9935  0.3423  0.7060
14116SOL    HW244217   1.204   6.791   0.951  1.2124 -0.9557  0.3603
14117SOL     OW44218   8.018   3.091   6.978 -0.4292  0.1762  0.1773
14117SOL    HW144219   8.026   3.022   7.044  0.1843 -1.3545 -1.4311
14117SOL    HW244220   8.107   3.126   6.971 -0.7892  1.3838  1.1805
14118SOL     OW44221   3.043   8.796   2.583 -0.4748  0.1970  0.4425
14118SOL    HW144222   3.034   8.730   2.514 -3.6937  0.3463  0.5753
14118SOL    HW244223   3.079   8.748   2.657 -1.9505 -1.3014  0.2622
14119SOL     OW44224   4.978   7.931   3.762 -0.7239 -0.0061  0.5045
14119SOL    HW144225   5.067   7.898   3.763 -0.8046 -0.2257  0.5803
14119SOL    HW244226   4.973   7.991   3.836 -1.5239 -2.3963  2.5201
14120SOL     OW44227   7.829   1.722   0.054 -0.0065  0.1333 -0.0661
14120SOL    HW144228   7.859   1.632   0.054 -0.2176  0.0478  1.2153
14120SOL    HW244229   7.851   1.756   0.141 -0.0492  1.2721 -0.4735
14121SOL     OW44230   7.251   2.695   6.254  0.0471 -0.2890 -0.4131
14121SOL    HW144231   7.157   2.694   6.232 -0.1299 -0.1551  0.3118
14121SOL    HW244232   7.272   2.787   6.265 -0.5478 -0.4065  2.6625
14122SOL     OW44233   1.115   7.970   5.257 -0.5936 -0.0042 -0.6148
14122SOL    HW144234   1.046   8.024   5.294  2.2022  3.5993 -0.1640
14122SOL    HW244235   1.106   7.981   5.162  0.0536  1.4706 -0.5200
14123SOL     OW44236   2.693   0.397   7.741 -0.4703 -0.3011 -0.2631
14123SOL    HW144237   2.666   0.430   7.656  0.6544 -1.1537 -0.9921
14123SOL    HW244238   2.730   0.473   7.786 -1.7368  0.3144 -0.2290
14124SOL     OW44239   2.581   3.606   4.904  0.1853 -0.0757  0.2527
14124SOL    HW144240   2.588   3.629   4.811  1.1824 -0.4560  0.2189
14124SOL    HW244241   2.547   3.516   4.903 -1.1322  0.4031  0.3090
14125SOL     OW44242   4.282   7.971   3.365 -0.4761 -0.2519  0.1560
14125SOL    HW144243   4.307   8.060   3.341  1.0874 -0.4478  0.9577
14125SOL    HW244244   4.342   7.915   3.317  1.1379 -0.7152  2.5283
14126SOL     OW44245   5.543   2.573   2.572  0.1228 -0.3367 -0.0927
14126SOL    HW144246   5.522   2.549   2.662 -0.4941  2.2898  0.5650
14126SOL    HW244247   5.637   2.589   2.573  0.2827 -1.2513 -0.1728
14127SOL     OW44248   6.404   3.130   6.066  0.1515 -0.4551  0.0544
14127SOL    HW144249   6.376   3.122   5.975  2.4912 -0.5959 -0.7317
14127SOL    HW244250   6.329   3.101   6.117 -1.9301  1.5132 -1.7122
14128SOL     OW44251   5.117   5.190   8.200 -0.0083 -0.1064 -0.2954
14128SOL    HW144252   5.144   5.246   8.127 -2.3681  0.9431 -0.4699
14128SOL    HW244253   5.152   5.234   8.278 -2.3057  2.1313 -0.3668
14129SOL     OW44254   1.113   7.677   0.340 -0.2175 -0.0956  0.9435
14129SOL    HW144255   1.092   7.731   0.416 -3.6286  0.5839 -0.2998
14129SOL    HW244256   1.160   7.736   0.281 -0.7261  0.4733  1.0934
14130SOL     OW44257   0.893   7.870   4.699  0.5755  0.6429  0.2507
14130SOL    HW144258   0.914   7.946   4.754  0.6463  1.0037 -0.2617
14130SOL    HW244259   0.888   7.797   4.760 -0.6761  1.2648  0.9385
14131SOL     OW44260   0.264   7.838   7.403 -0.2943 -0.1119 -0.0386
14131SOL    HW144261   0.288   7.760   7.352  0.6279  1.6668 -2.5409
14131SOL    HW244262   0.185   7.813   7.450  0.7582 -2.9800  0.4019
14132SOL     OW44263   6.103   8.897   7.329 -0.1790 -0.2168 -0.1320
14132SOL    HW144264   6.039   8.825   7.327  1.3099 -1.6104 -0.3281
14132SOL    HW244265   6.114   8.917   7.422 -1.6081  0.7322 -0.1470
14133SOL     OW44266   3.967   8.456   8.605 -0.3064  0.4938  0.4738
14133SOL    HW144267   3.926   8.465   8.691  0.5630  1.7326  0.7933
14133SOL    HW244268   3.898   8.420   8.549 -1.5027  1.5081  1.2328
14134SOL     OW44269   1.651   0.597   6.907  0.2330 -0.4483  0.2596
14134SOL    HW144270   1.573   0.645   6.932  0.4789 -0.1179  0.4020
14134SOL    HW244271   1.690   0.569   6.990  1.5109  1.3840  0.3406
14135SOL     OW44272   6.089   1.177   6.650  0.4138 -0.2376  0.8582
14135SOL    HW144273   6.147   1.110   6.614 -0.9539 -2.3378  2.3390
14135SOL    HW244274   6.038   1.207   6.575  2.5212  0.8153 -0.2396
14136SOL     OW44275   5.730   5.790   6.003 -0.0708  0.1447 -0.3883
14136SOL    HW144276   5.643   5.762   6.030  0.2982 -0.7928 -0.1232
14136SOL    HW244277   5.730   5.885   6.016 -0.4009 -0.0761  1.5422
14137SOL     OW44278   8.046   5.686   2.685 -0.1453  0.1320  0.4946
14137SOL    HW144279   8.016   5.751   2.749 -0.0457 -0.8595  1.5744
14137SOL    HW244280   8.138   5.673   2.705 -1.0117 -3.3984  3.1617
14138SOL     OW44281   0.351   0.459   4.617 -0.5101  0.2464 -0.0894
14138SOL    HW144282   0.356   0.382   4.674 -0.2576 -0.5453 -1.1538
14138SOL    HW244283   0.390   0.430   4.534  1.2610  2.0677  0.0412
14139SOL     OW44284   0.161   1.993   6.571  0.1305  0.7120 -0.1217
14139SOL    HW144285   0.077   1.951   6.555  0.1330  0.4269  0.6050
14139SOL    HW244286   0.152   2.034   6.657  1.1270 -0.3371  0.5178
14140SOL     OW44287   8.836   3.339   8.257 -0.2223  0.4256  0.2117
14140SOL    HW144288   8.922   3.380   8.258 -0.3020  0.6088 -0.2155
14140SOL    HW244289   8.818   3.318   8.349 -0.0206  0.9994  0.3863
14141SOL     OW44290   7.892   8.800   2.500 -0.0209 -0.5927  0.5418
14141SOL    HW144291   7.865   8.822   2.411 -0.2146 -2.9682 -0.0355
14141SOL    HW244292   7.979   8.840   2.509  0.2527 -0.8111 -0.9142
14142SOL     OW44293   4.082   7.901   3.777  0.0504 -0.5578  0.5231
14142SOL    HW144294   4.061   7.915   3.685 -0.9503  0.4187  0.8755
14142SOL    HW244295   4.149   7.967   3.797  0.5841 -1.0524  0.3998
14143SOL     OW44296   7.393   7.634   2.864 -0.5089  0.1078  0.0075
14143SOL    HW144297   7.410   7.728   2.867  0.1861 -0.0293  1.7934
14143SOL    HW244298   7.477   7.594   2.841 -0.6333 -0.1097 -0.0754
14144SOL     OW44299   2.375   2.627   8.924 -0.3615 -0.3040  0.0012
14144SOL    HW144300   2.395   2.618   8.831 -1.3892 -0.4089 -0.2195
14144SOL    HW244301   2.281   2.613   8.930 -0.2044 -1.0339  1.1602
14145SOL     OW44302   6.000   3.290   5.528 -0.0467  0.4377  0.0499
14145SOL    HW144303   5.949   3.277   5.608 -0.0629 -0.8286 -0.1515
14145SOL    HW244304   6.036   3.204   5.508  1.1555  1.0482 -0.5084
14146SOL     OW44305   6.422   6.899   2.842 -0.1536 -0.0584  0.1365
14146SOL    HW144306   6.508   6.858   2.830 -0.1797  0.1788 -1.0168
14146SOL    HW244307   6.369   6.830   2.882  0.4067 -0.4151  0.2871
14147SOL     OW44308   0.508   7.762   6.494 -0.0889  0.8095 -0.1158
14147SOL    HW144309   0.587   7.710   6.480 -0.7698 -0.4965  0.6328
14147SOL    HW244310   0.507   7.825   6.423  0.1745 -0.9879 -1.7881
14148SOL     OW44311   0.240   4.329   0.932 -0.1759 -0.0918 -0.2505
14148SOL    HW144312   0.221   4.358   0.843  2.2994  0.1577 -0.7775
14148SOL    HW244313   0.256   4.235   0.924  2.5969  0.3324 -0.6416
14149SOL     OW44314   3.304   7.560   8.925 -0.2784  0.3253 -0.1339
14149SOL    HW144315   3.390   7.540   8.886  0.0217 -0.5251  0.9016
14149SOL    HW244316   3.273   7.476   8.959 -0.8621  0.8850  0.7766
14150SOL     OW44317   5.673   1.314   7.211 -0.1197 -0.1547  0.1285
14150SOL    HW144318   5.638   1.298   7.299 -1.0273  1.2184  0.0575
14150SOL    HW244319   5.764   1.285   7.215  0.2531  1.1208  1.9218
14151SOL     OW44320   3.854   7.357   7.822 -0.5855 -0.1969  0.2092
14151SOL    HW144321   3.884   7.409   7.896 -0.4431  0.3178 -0.2050
14151SOL    HW244322   3.893   7.270   7.837  0.5044  0.2484  0.0778
14152SOL     OW44323   3.034   8.901   7.420  0.4327 -0.1756 -0.1695
14152SOL    HW144324   3.000   8.824   7.374  1.8021 -0.1596 -1.2890
14152SOL    HW244325   3.124   8.909   7.389  0.8368  0.9272  1.1842
14153SOL     OW44326   5.107   4.498   5.691 -0.0900  0.4069 -0.7321
14153SOL    HW144327   5.055   4.423   5.720  0.4616  0.3300  0.0960
14153SOL    HW244328   5.163   4.463   5.622  0.2958  0.0043 -0.2224
14154SOL     OW44329   1.611   0.872   0.713  0.2987  0.2631 -0.2407
14154SOL    HW144330   1.547   0.839   0.776  1.1075 -0.8279  0.0364
14154SOL    HW244331   1.570   0.861   0.628  0.1401 -0.5197 -0.0707
14155SOL     OW44332   8.487   0.547   8.126 -0.0736  0.2540  0.0334
14155SOL    HW144333   8.573   0.519   8.094 -0.2247  0.3643 -0.4786
14155SOL    HW244334   8.507   0.605   8.199  0.3215  0.9672 -0.6269
14156SOL     OW44335   4.894   8.885   6.500  0.2603  0.1912  0.2617
14156SOL    HW144336   4.809   8.904   6.461 -0.2700 -2.1330  0.0922
14156SOL    HW244337   4.957   8.930   6.444 -0.7244 -0.1414 -1.1773
14157SOL     OW44338   2.885   5.871   2.383 -0.2950  0.1242 -0.2047
14157SOL    HW144339   2.920   5.880   2.472  0.0849 -1.6601 -0.1294
14157SOL    HW244340   2.962   5.879   2.326 -0.5287  1.2036 -0.3812
14158SOL     OW44341   3.737   8.444   0.808 -0.4209  0.1742 -0.1445
14158SOL    HW144342   3.692   8.363   0.831 -1.6899  1.0845  0.6702
14158SOL    HW244343   3.726   8.451   0.713 -0.8686 -0.2685 -0.1260
14159SOL     OW44344   3.711   5.825   3.980 -0.1353 -0.8051  0.3698
14159SOL    HW144345   3.699   5.746   4.031 -3.0939 -2.4412 -2.4808
14159SOL    HW244346   3.676   5.895   4.035 -1.6400 -2.1833  1.2271
14160SOL     OW44347   7.457   3.420   6.851 -0.3133 -0.2252 -0.2074
14160SOL    HW144348   7.372   3.437   6.809 -0.0059  0.6272 -0.4957
14160SOL    HW244349   7.435   3.365   6.926 -1.1661  0.1939 -0.1328
14161SOL     OW44350   0.509   6.245   4.668  0.0645 -0.4045 -0.0219
14161SOL    HW144351   0.564   6.167   4.669 -0.0324 -0.4880  1.6096
14161SOL    HW244352   0.565   6.313   4.707 -0.1454  0.1286 -0.6425
14162SOL     OW44353   2.455   1.490   0.671 -0.0576  0.3450 -0.5098
14162SOL    HW144354   2.402   1.473   0.593  1.6916  1.4387 -2.0234
14162SOL    HW244355   2.544   1.495   0.638  0.5249  3.0803  1.1795
14163SOL     OW44356   4.064   6.399   1.186  0.2941  0.0768 -0.0658
14163SOL    HW144357   4.116   6.458   1.242 -1.4562  1.0070  0.6431
14163SOL    HW244358   3.999   6.456   1.145 -0.0286 -1.0210 -1.1206
14164SOL     OW44359   3.080   2.512   5.369  0.6684 -0.0069 -0.0602
14164SOL    HW144360   3.085   2.504   5.464  0.4106 -0.8184 -0.1014
14164SOL    HW244361   3.027   2.590   5.353  1.4366  0.6234  0.4511
14165SOL     OW44362   2.726   3.383   1.492  0.1078 -0.1023  0.4106
14165SOL    HW144363   2.709   3.446   1.563  0.8008  0.3308  0.2064
14165SOL    HW244364   2.775   3.312   1.534  0.6013  0.1996  0.3527
14166SOL     OW44365   3.394   5.794   6.931  0.1208  0.4601 -0.1836
14166SOL    HW144366   3.369   5.881   6.901  0.1412 -0.2075 -2.2785
14166SOL    HW244367   3.313   5.742   6.926  0.4402 -0.0216 -0.4075
14167SOL     OW44368   7.844   8.396   4.788  0.2246  0.1526  0.7034
14167SOL    HW144369   7.902   8.325   4.763  0.8627  0.5621  1.0031
14167SOL    HW244370   7.760   8.374   4.747 -0.0140 -1.5092  2.0000
14168SOL     OW44371   3.070   6.149   4.441 -0.7321  0.1483  0.6853
14168SOL    HW144372   2.999   6.169   4.381  0.5922  0.5206 -0.8485
14168SOL    HW244373   3.098   6.235   4.474  0.0389  0.1873 -0.0157
14169SOL     OW44374   8.005   1.626   7.758 -0.1359  0.0436  0.0136
14169SOL    HW144375   8.051   1.700   7.718  0.1684  0.3085  0.8242
14169SOL    HW244376   7.937   1.667   7.812 -1.0907 -0.3302 -0.8504
14170SOL     OW44377   6.024   4.889   6.290 -0.0411 -0.3928  0.5731
14170SOL    HW144378   5.961   4.934   6.347  0.0162 -1.5018  1.5604
14170SOL    HW244379   5.971   4.827   6.240 -0.1218  0.7229 -0.7841
14171SOL     OW44380   3.029   6.573   7.933 -1.0354 -0.6470 -0.3538
14171SOL    HW144381   3.106   6.541   7.980  0.2423 -0.6862 -2.3467
14171SOL    HW244382   2.989   6.637   7.992  1.0253  0.0219  0.4073
14172SOL     OW44383   4.462   8.894   6.675 -0.1670  0.1613  0.1499
14172SOL    HW144384   4.419   8.980   6.668  0.1821  0.3372  0.1025
14172SOL    HW244385   4.518   8.890   6.598  0.2633  0.1458  0.4598
14173SOL     OW44386   4.548   0.476   6.023  0.0108 -0.2679  0.6182
14173SOL    HW144387   4.518   0.553   5.974  1.4405  0.5433  0.9659
14173SOL    HW244388   4.507   0.402   5.978 -2.3724  0.7262  0.9814
14174SOL     OW44389   4.649   1.669   8.119  0.0068 -0.2985 -0.1090
14174SOL    HW144390   4.631   1.610   8.192 -0.3382  1.8064  1.6266
14174SOL    HW244391   4.707   1.735   8.157  0.4179  0.4564 -1.9698
14175SOL     OW44392   5.540   8.077   7.343  0.0596  0.0773 -0.0780
14175SOL    HW144393   5.491   8.140   7.289 -0.7834 -1.0817 -0.7115
14175SOL    HW244394   5.599   8.034   7.282 -0.6925 -1.0386 -0.0475
14176SOL     OW44395   4.697   0.853   7.321 -0.7787 -0.2470  0.2246
14176SOL    HW144396   4.675   0.799   7.245  0.0290 -0.3975  0.0794
14176SOL    HW244397   4.652   0.936   7.305 -1.8185 -0.7808  0.3233
14177SOL     OW44398   2.340   1.580   2.039  0.1151  0.3664  0.1528
14177SOL    HW144399   2.297   1.494   2.036  0.9303 -0.0356 -0.9327
14177SOL    HW244400   2.338   1.611   1.948  2.8765 -0.0954 -0.1525
14178SOL     OW44401   5.646   3.590   4.851  0.2934 -0.3104 -0.3334
14178SOL    HW144402   5.699   3.556   4.779  1.1948  1.7018 -0.6797
14178SOL    HW244403   5.686   3.552   4.930  2.2573  1.0638 -0.5984
14179SOL     OW44404   5.421   5.988   5.625  0.4701 -0.5757  0.0571
14179SOL    HW144405   5.481   5.940   5.568 -0.5365 -0.5380 -1.0964
14179SOL    HW244406   5.343   6.002   5.570  0.3233  1.4396  0.7120
14180SOL     OW44407   8.154   1.452   8.612 -0.2656  0.1582  0.1240
14180SOL    HW144408   8.199   1.535   8.629  0.7140 -0.4106  0.3624
14180SOL    HW244409   8.171   1.434   8.520 -1.0681  0.5527 -0.1167
14181SOL     OW44410   0.234   0.229   0.040  0.6632 -0.2301 -0.0502
14181SOL    HW144411   0.199   0.296   0.098 -1.4047 -0.9062 -0.4404
14181SOL    HW244412   0.164   0.211  -0.023  1.7135 -1.6684 -0.8961
14182SOL     OW44413   8.969   0.696   0.565  0.1143  0.2807 -0.1826
14182SOL    HW144414   9.002   0.607   0.575 -0.1067  0.3680  1.5172
14182SOL    HW244415   9.019   0.731   0.490 -1.7380 -2.0898 -2.7131
14183SOL     OW44416   5.271   3.760   6.900  0.2074  0.0410 -0.5266
14183SOL    HW144417   5.356   3.732   6.933 -0.4191  1.2054  2.3748
14183SOL    HW244418   5.291   3.806   6.818  2.1997 -0.6391 -0.4774
14184SOL     OW44419   0.840   1.783   4.445  0.2399 -0.5356  0.2729
14184SOL    HW144420   0.798   1.853   4.395  0.4359 -0.9918 -0.5405
14184SOL    HW244421   0.775   1.714   4.449  0.6003 -0.9080 -0.2518
14185SOL     OW44422   5.396   8.590   3.773  0.0846  0.0424 -0.5353
14185SOL    HW144423   5.396   8.497   3.752  3.3952 -0.4223  0.9336
14185SOL    HW244424   5.465   8.627   3.718  0.3170  1.1729  0.4750
14186SOL     OW44425   0.482   3.217   8.916 -0.7635 -0.2261 -0.1544
14186SOL    HW144426   0.434   3.158   8.859 -0.4808 -0.4331 -0.1812
14186SOL    HW244427   0.574   3.201   8.895 -0.6070 -0.9963  1.0105
14187SOL     OW44428   3.342   6.920   0.470  0.5519  0.3738  0.0469
14187SOL    HW144429   3.411   6.936   0.406 -0.5915  0.3439 -1.2369
14187SOL    HW244430   3.351   6.827   0.492  0.7744  0.3098 -0.3075
14188SOL     OW44431   8.570   2.975   2.452  0.2688  0.0306  0.0963
14188SOL    HW144432   8.621   2.920   2.394  0.3947  0.7020 -0.4413
14188SOL    HW244433   8.529   3.040   2.394  0.2862  0.6215  0.7362
14189SOL     OW44434   6.744   4.055   8.855  0.8618  0.0296  0.2806
14189SOL    HW144435   6.771   4.146   8.838 -0.4966  0.7580  1.7538
14189SOL    HW244436   6.688   4.061   8.932  0.2732 -2.0059  0.0627
14190SOL     OW44437   4.826   3.294   8.838 -0.2891 -0.4546 -0.1397
14190SOL    HW144438   4.863   3.272   8.923  0.7687 -1.6987 -0.8812
14190SOL    HW244439   4.800   3.210   8.800  1.3618 -0.2385 -1.9544
14191SOL     OW44440   7.810   1.039   0.281 -0.0132 -0.2062 -0.1572
14191SOL    HW144441   7.827   1.053   0.374  0.3773  1.3699 -0.4440
14191SOL    HW244442   7.791   0.946   0.274  0.3210 -0.4175  1.4433
14192SOL     OW44443   0.240   3.886   5.142 -0.3321 -0.5485  0.0371
14192SOL    HW144444   0.235   3.917   5.232  0.0498 -0.9856  0.2135
14192SOL    HW244445   0.200   3.956   5.090  3.1562  1.7538  0.1044
14193SOL     OW44446   3.678   3.244   6.718  0.0951 -0.0797 -0.1718
14193SOL    HW144447   3.667   3.155   6.684  0.0905 -0.3000  0.3900
14193SOL    HW244448   3.772   3.252   6.736  0.0592 -0.0628  0.0142
14194SOL     OW44449   1.142   0.971   7.766 -0.0048  0.2061  0.0136
14194SOL    HW144450   1.169   0.934   7.851 -2.4752  0.5643  1.0315
14194SOL    HW244451   1.056   0.933   7.750  0.4782  0.0256 -2.4803
14195SOL     OW44452   1.522   5.320   6.936 -0.0894 -0.0184 -0.8193
14195SOL    HW144453   1.562   5.264   6.869  0.2677 -1.2937  0.4095
14195SOL    HW244454   1.514   5.264   7.013 -0.0521  1.5391  0.3762
14196SOL     OW44455   8.459   7.569   4.388  0.5035  0.5056 -0.1777
14196SOL    HW144456   8.484   7.659   4.407 -0.5874  0.5198  1.3140
14196SOL    HW244457   8.522   7.516   4.436  1.1504  0.4552 -1.0630
14197SOL     OW44458   2.470   0.852   4.594  0.3442  0.2063  0.6101
14197SOL    HW144459   2.559   0.879   4.574  0.2573 -1.1504 -2.1826
14197SOL    HW244460   2.462   0.859   4.689  3.2542  0.7766  0.8795
14198SOL     OW44461   5.469   5.057   4.992  0.2567  0.0692  0.1711
14198SOL    HW144462   5.519   5.031   5.070  0.4506 -3.3893 -0.9465
14198SOL    HW244463   5.379   5.032   5.013  0.3289 -0.9788 -0.7314
14199SOL     OW44464   5.783   3.720   5.751 -0.1172 -0.5799  0.5488
14199SOL    HW144465   5.693   3.735   5.721 -0.0468 -0.3464  0.4531
14199SOL    HW244466   5.830   3.692   5.673  0.1694  0.4646  0.3423
14200SOL     OW44467   6.416   4.566   8.871  0.1392  0.0889  0.0280
14200SOL    HW144468   6.382   4.541   8.785 -1.2189  0.7826  0.3419
14200SOL    HW244469   6.341   4.560   8.930  1.3139 -1.7201  1.4856
14201SOL     OW44470   2.763   7.322   0.326  0.2551  0.0299 -0.2495
14201SOL    HW144471   2.682   7.373   0.323 -1.9049 -3.1095 -0.9288
14201SOL    HW244472   2.790   7.325   0.418 -2.1516 -0.9132  0.5690
14202SOL     OW44473   4.501   2.564   5.478  0.4181  0.2057 -0.0623
14202SOL    HW144474   4.508   2.631   5.411  1.0684  1.8815  1.5829
14202SOL    HW244475   4.575   2.504   5.461 -0.1845 -0.1488 -1.5549
14203SOL     OW44476   2.670   5.438   4.966  0.1163 -0.4133  0.2930
14203SOL    HW144477   2.629   5.397   4.891  1.2558  0.2640 -0.7468
14203SOL    HW244478   2.632   5.394   5.042  2.0669 -4.2223 -0.7034
14204SOL     OW44479   2.717   2.152   2.243 -0.3900 -0.0254 -0.0038
14204SOL    HW144480   2.770   2.081   2.280  0.0012  0.9175  1.3095
14204SOL    HW244481   2.725   2.140   2.148 -0.1781 -1.6017  0.1774
14205SOL     OW44482   2.123   3.726   1.596  0.1721  0.4342  0.1782
14205SOL    HW144483   2.163   3.718   1.683  0.5126 -0.3091 -0.0404
14205SOL    HW244484   2.197   3.741   1.537 -0.0784  1.1443  0.0356
14206SOL     OW44485   7.640   0.194   1.387 -0.6756  0.2860 -0.5940
14206SOL    HW144486   7.693   0.274   1.395 -1.2912  0.6083  0.3032
14206SOL    HW244487   7.665   0.140   1.462  0.9708 -1.1397 -2.0732
14207SOL     OW44488   4.113   8.576   2.304 -0.1250 -0.1811  0.1612
14207SOL    HW144489   4.119   8.527   2.387  1.3481  0.1813  0.2880
14207SOL    HW244490   4.060   8.652   2.325 -1.8980 -1.3468  0.1275
14208SOL     OW44491   2.892   4.669   4.244  0.5643  0.2100 -0.3876
14208SOL    HW144492   2.932   4.590   4.210 -0.0969 -1.2591  2.0042
14208SOL    HW244493   2.964   4.718   4.284  0.8034  0.3189 -0.9403
14209SOL     OW44494   4.163   2.905   6.568 -0.1641 -0.2679  0.4504
14209SOL    HW144495   4.079   2.893   6.523  0.3782  0.2359 -0.7507
14209SOL    HW244496   4.182   2.998   6.559  0.7835 -0.4722  0.2086
14210SOL     OW44497   4.005   1.012   2.582  0.4467  0.3098  0.1491
14210SOL    HW144498   4.066   1.019   2.656 -0.3539 -0.9400  0.9630
14210SOL    HW244499   3.934   1.072   2.604  0.1681 -0.1245  0.4378
14211SOL     OW44500   3.279   2.586   1.818  0.3341 -0.0700  0.0312
14211SOL    HW144501   3.188   2.575   1.790  0.1487  1.1295  0.0913
14211SOL    HW244502   3.273   2.607   1.912  0.8463 -2.3980  0.6356
14212SOL     OW44503   1.739   6.780   3.311  0.7974 -0.3957 -0.2252
14212SOL    HW144504   1.718   6.691   3.339  0.2897 -0.6283 -1.2877
14212SOL    HW244505   1.666   6.805   3.255  0.6341  0.9324  0.5490
14213SOL     OW44506   8.490   6.390   1.983 -0.2966  0.1822  0.0539
14213SOL    HW144507   8.481   6.458   2.049  0.7663  0.4626 -0.0766
14213SOL    HW244508   8.412   6.335   1.994 -0.8087  1.0055  0.6235
14214SOL     OW44509   6.466   5.437   7.425 -0.1949  0.2752 -0.2574
14214SOL    HW144510   6.515   5.432   7.342  0.2063 -1.6478  0.0328
14214SOL    HW244511   6.501   5.514   7.469  0.9093  0.2755 -1.0780
14215SOL     OW44512   4.634   4.566   3.808 -0.3253 -0.3443  0.3211
14215SOL    HW144513   4.680   4.594   3.887  0.3161 -0.7554  0.0977
14215SOL    HW244514   4.542   4.557   3.835  0.1235 -1.9815  1.4188
14216SOL     OW44515   2.260   7.565   4.636 -0.7145 -0.5127 -0.7120
14216SOL    HW144516   2.312   7.487   4.616 -0.7401 -0.6345 -0.3107
14216SOL    HW244517   2.178   7.531   4.671 -0.6038 -0.3022 -0.2385
14217SOL     OW44518   4.321   3.550   4.724  0.1057  0.1586  0.1865
14217SOL    HW144519   4.392   3.610   4.746 -1.0152  1.4435  0.4477
14217SOL    HW244520   4.260   3.603   4.672 -1.4981 -0.4044  1.4118
14218SOL     OW44521   6.151   3.133   8.706 -0.2071  0.0790 -0.2893
14218SOL    HW144522   6.197   3.216   8.723 -0.0116 -0.1521  0.3417
14218SOL    HW244523   6.145   3.129   8.610 -0.0778  0.7454 -0.3346
14219SOL     OW44524   8.035   6.131   7.586 -0.1085 -0.2160 -0.2216
14219SOL    HW144525   8.077   6.216   7.604 -0.5725  0.0663 -0.4607
14219SOL    HW244526   8.086   6.095   7.514 -0.7069  0.4555 -1.0020
14220SOL     OW44527   5.891   4.941   1.109  0.2819 -0.1350  0.6252
14220SOL    HW144528   5.871   5.032   1.130 -0.4743  0.0952 -0.9364
14220SOL    HW244529   5.812   4.893   1.135 -0.2270  0.0004 -0.6109
14221SOL     OW44530   5.491   1.786   6.833 -0.2247 -0.0197 -0.0616
14221SOL    HW144531   5.507   1.845   6.759 -1.2620 -1.7282 -1.6966
14221SOL    HW244532   5.435   1.837   6.892 -0.0733  1.0697 -0.8241
14222SOL     OW44533   7.488   8.271   2.711  0.2244  0.0748  0.5935
14222SOL    HW144534   7.511   8.283   2.619 -1.3854  1.6490  0.3291
14222SOL    HW244535   7.414   8.330   2.725  0.0149 -0.5994  2.7487
14223SOL     OW44536   1.259   1.474   1.527 -0.8309 -0.1995  0.8254
14223SOL    HW144537   1.325   1.506   1.589  1.3229 -0.3694 -1.2116
14223SOL    HW244538   1.199   1.547   1.515  0.3308  0.8232  1.0659
14224SOL     OW44539   3.412   8.827   4.173 -0.7310 -0.4478 -0.8259
14224SOL    HW144540   3.389   8.738   4.199 -0.7449  0.3807  2.4045
14224SOL    HW244541   3.501   8.840   4.207 -1.2389  1.1734 -0.0040
14225SOL     OW44542   5.883   6.857   6.958  0.5957  1.3343  0.3909
14225SOL    HW144543   5.958   6.854   7.018  1.2535  0.8150 -0.4441
14225SOL    HW244544   5.834   6.777   6.978  1.7221  0.2796 -0.8878
14226SOL     OW44545   2.327   1.321   3.817  0.0880  0.6132  0.4065
14226SOL    HW144546   2.419   1.297   3.809 -0.0056  0.7590 -1.5349
14226SOL    HW244547   2.309   1.377   3.741 -1.9448 -0.6082 -0.1111
14227SOL     OW44548   2.920   5.912   8.972  0.1468  0.1256  0.0017
14227SOL    HW144549   2.869   5.899   8.892 -0.1748 -0.1473  0.2500
14227SOL    HW244550   2.953   5.825   8.995 -1.0758 -0.0911  1.0352
14228SOL     OW44551   0.803   6.837   6.061  0.3102  0.5336  0.0832
14228SOL    HW144552   0.736   6.903   6.044  1.1375  1.5709  0.7959
14228SOL    HW244553   0.780   6.765   6.001 -2.5764  0.0082  1.6334
14229SOL     OW44554   4.977   4.938   7.634 -0.2405  0.2275  0.1916
14229SOL    HW144555   4.892   4.925   7.677 -0.1864  0.0656  0.2480
14229SOL    HW244556   5.004   4.851   7.607 -0.6703  0.4279 -0.9219
14230SOL     OW44557   3.702   3.483   6.523 -0.3179 -0.1198  0.6446
14230SOL    HW144558   3.791   3.450   6.516 -0.7762 -1.5886  1.2657
14230SOL    HW244559   3.657   3.419   6.579 -1.7221  0.6594  0.4629
14231SOL     OW44560   1.067   0.333   7.659  0.1077 -0.0430 -0.1603
14231SOL    HW144561   0.977   0.308   7.636 -0.3423  0.0627  1.3753
14231SOL    HW244562   1.061   0.362   7.750  1.1353  2.9283 -0.9338
14232SOL     OW44563   6.037   5.728   4.373  0.1388  0.1250  0.7251
14232SOL    HW144564   6.125   5.749   4.406  0.1452  1.3876 -0.0457
14232SOL    HW244565   5.982   5.725   4.451  0.3067  2.2527  0.9693
14233SOL     OW44566   7.757   2.004   1.383  0.0337 -0.1507 -0.0431
14233SOL    HW144567   7.798   1.953   1.313 -0.3779 -1.2945  0.5217
14233SOL    HW244568   7.727   1.939   1.446  1.8717  0.8676  2.0622
14234SOL     OW44569   7.499   7.618   6.462  0.1285 -0.1063 -0.6572
14234SOL    HW144570   7.500   7.566   6.382  0.0898  0.5813 -1.1089
14234SOL    HW244571   7.504   7.709   6.432  1.6555  0.1042  0.1834
14235SOL     OW44572   7.186   3.963   2.572  0.4662  0.0926 -0.5494
14235SOL    HW144573   7.101   3.972   2.616  0.1221 -0.0861 -1.1657
14235SOL    HW244574   7.240   3.915   2.635  0.6037  1.5539  0.4780
14236SOL     OW44575   1.170   1.763   8.848  0.2557  0.2321  0.0547
14236SOL    HW144576   1.110   1.712   8.903 -1.3142 -0.3087 -2.0628
14236SOL    HW244577   1.135   1.852   8.851 -1.1782 -0.2123 -1.7353
14237SOL     OW44578   4.791   6.127   7.851  0.0785  0.1515  0.1154
14237SOL    HW144579   4.742   6.140   7.932 -0.6188 -0.3356 -0.2116
14237SOL    HW244580   4.757   6.044   7.816  1.1582 -0.2149 -0.1121
14238SOL     OW44581   4.732   1.819   2.523  0.0378 -0.4671 -0.0923
14238SOL    HW144582   4.654   1.765   2.533  1.0975 -2.8900 -3.1605
14238SOL    HW244583   4.723   1.858   2.436  1.2225  1.0235  0.4091
14239SOL     OW44584   8.950   2.001   7.527 -0.2470 -0.2685  0.3000
14239SOL    HW144585   8.871   1.988   7.475  0.4775 -1.3976 -0.5623
14239SOL    HW244586   8.955   2.096   7.539 -0.0850  0.1445 -2.3467
14240SOL     OW44587   1.160   5.873   0.541  0.2917 -0.7330 -0.2013
14240SOL    HW144588   1.076   5.919   0.537  0.2012 -0.9454 -1.2405
14240SOL    HW244589   1.193   5.889   0.629 -0.7894 -0.5532  0.1881
14241SOL     OW44590   5.914   6.171   3.952 -0.1653 -0.0291 -0.5082
14241SOL    HW144591   5.863   6.211   4.023  1.1284 -1.0868  1.1149
14241SOL    HW244592   5.981   6.120   3.998  1.1150 -0.2603 -2.5324
14242SOL     OW44593   7.104   5.719   0.053  0.1900  0.3050 -0.0078
14242SOL    HW144594   7.048   5.772   0.110 -0.3774 -0.0019 -0.2649
14242SOL    HW244595   7.077   5.629   0.070 -0.0829  0.2153 -0.8481
14243SOL     OW44596   8.453   2.699   6.986  0.0723  0.3348  0.2148
14243SOL    HW144597   8.496   2.704   6.901  0.7371 -2.2848  0.3009
14243SOL    HW244598   8.524   2.679   7.048 -0.8050 -0.9450  0.8545
14244SOL     OW44599   5.112   5.701   0.864  0.1576  0.2771 -0.7812
14244SOL    HW144600   5.093   5.759   0.938  1.0704 -1.4828  0.8950
14244SOL    HW244601   5.031   5.702   0.812 -1.0723  0.3894  1.0466
14245SOL     OW44602   7.914   1.276   8.063 -0.4809  0.6607  0.3271
14245SOL    HW144603   7.985   1.328   8.024 -0.0968  1.7319  2.2513
14245SOL    HW244604   7.860   1.249   7.990  0.3365  2.2789 -0.9460
14246SOL     OW44605   3.084   6.830   4.367  0.4165  0.0296  0.0850
14246SOL    HW144606   3.102   6.735   4.369 -0.8760 -0.3953 -2.8669
14246SOL    HW244607   3.171   6.870   4.370  1.1927 -1.4107 -1.2632
14247SOL     OW44608   0.476   4.112   0.035  0.1258 -0.6187 -0.3542
14247SOL    HW144609   0.517   4.026   0.028  1.2934  0.0001 -1.3514
14247SOL    HW244610   0.493   4.139   0.126  0.8530 -0.8967 -0.4025
14248SOL     OW44611   1.548   8.123   7.754  0.2042  0.1301 -0.1213
14248SOL    HW144612   1.562   8.162   7.668 -0.7149  1.2347  0.2064
14248SOL    HW244613   1.498   8.044   7.737  0.8318 -0.1635 -0.6673
14249SOL     OW44614   7.652   6.226   6.252 -0.2318 -0.3670  0.2920
14249SOL    HW144615   7.613   6.214   6.165  0.1609 -0.5276  0.1304
14249SOL    HW244616   7.589   6.188   6.313 -0.5748 -0.1271  0.0867
14250SOL     OW44617   0.496   1.543   5.800  0.0495 -0.3891  0.4949
14250SOL    HW144618   0.481   1.552   5.706 -0.9923 -1.4662  0.5425
14250SOL    HW244619   0.583   1.503   5.806  0.1907 -0.1676  0.0024
14251SOL     OW44620   4.306   0.621   7.010 -0.9841  0.2921 -0.0965
14251SOL    HW144621   4.333   0.533   6.984  1.6193  0.6202  1.1152
14251SOL    HW244622   4.327   0.675   6.933 -1.7291 -0.0008 -0.5121
14252SOL     OW44623   1.118   2.461   5.721 -0.1877  0.0858 -0.2926
14252SOL    HW144624   1.046   2.403   5.745 -0.6289  1.0934  0.9431
14252SOL    HW244625   1.166   2.475   5.802  0.3948  0.7758 -0.7426
14253SOL     OW44626   6.204   0.230   3.768  0.4740 -0.2772  0.0623
14253SOL    HW144627   6.147   0.292   3.724  0.8160  0.0356  0.0564
14253SOL    HW244628   6.266   0.284   3.817  2.1403 -0.5474 -1.6527
14254SOL     OW44629   4.677   2.409   6.101  0.1873 -0.3135  0.2206
14254SOL    HW144630   4.668   2.421   6.195 -1.3555 -0.2917  0.0992
14254SOL    HW244631   4.587   2.409   6.068  0.7213  0.2414 -1.3239
14255SOL     OW44632   8.438   1.484   7.326 -0.6895 -0.1307  0.3320
14255SOL    HW144633   8.368   1.426   7.358 -1.1190 -0.5632 -1.3355
14255SOL    HW244634   8.515   1.427   7.322 -0.3390  0.2131  1.6486
14256SOL     OW44635   4.838   3.379   1.837 -0.4720  0.5667 -0.1609
14256SOL    HW144636   4.877   3.361   1.923  0.9103  2.6939 -0.2562
14256SOL    HW244637   4.775   3.450   1.854 -1.3149 -0.0498 -0.6756
14257SOL     OW44638   0.596   3.196   3.264 -0.4765  0.2839  0.2349
14257SOL    HW144639   0.667   3.260   3.258 -0.5086  0.3257  0.3055
14257SOL    HW244640   0.617   3.131   3.197 -1.4667  1.3912 -1.2202
14258SOL     OW44641   2.686   4.629   7.693  0.3887 -0.2055  0.0667
14258SOL    HW144642   2.635   4.707   7.672  2.8275  1.8773  1.2189
14258SOL    HW244643   2.770   4.642   7.648  0.5630 -2.6604 -0.4507
14259SOL     OW44644   1.716   7.242   0.391  0.1540  0.0787 -0.3994
14259SOL    HW144645   1.780   7.312   0.399 -1.2119  1.4240 -0.8361
14259SOL    HW244646   1.653   7.258   0.461 -0.6146 -0.2105 -0.9977
14260SOL     OW44647   7.437   1.450   0.695  0.8327  0.2835  0.4771
14260SOL    HW144648   7.419   1.532   0.647 -0.4544 -0.7051 -0.8292
14260SOL    HW244649   7.380   1.455   0.772 -2.8202 -1.2549 -1.8606
14261SOL     OW44650   6.761   5.876   6.615 -0.2776  0.1200  0.3507
14261SOL    HW144651   6.839   5.925   6.641  0.0178 -0.1130 -0.0949
14261SOL    HW244652   6.702   5.943   6.580 -0.7772  0.4810  1.7853
14262SOL     OW44653   2.053   0.457   8.560 -0.3344 -0.3796 -0.0608
14262SOL    HW144654   2.131   0.512   8.551 -0.1121 -0.8317 -1.0740
14262SOL    HW244655   2.078   0.391   8.625 -0.9182  1.2013  1.8716
14263SOL     OW44656   3.741   3.955   3.304  0.4381 -0.3036  0.1393
14263SOL    HW144657   3.771   4.003   3.227 -0.0251 -1.6803 -0.9513
14263SOL    HW244658   3.646   3.968   3.306  0.6130  0.9622  1.3855
14264SOL     OW44659   4.521   0.292   1.492 -0.0283  0.1259 -0.5971
14264SOL    HW144660   4.499   0.204   1.524  2.4238  0.1488  1.4539
14264SOL    HW244661   4.491   0.351   1.560 -0.3554  0.7734 -1.2887
14265SOL     OW44662   1.035   4.432   0.313  0.6931  0.6637  0.3088
14265SOL    HW144663   1.022   4.357   0.255 -1.1687 -0.0373  1.5066
14265SOL    HW244664   1.111   4.478   0.278 -0.0525  0.0176 -2.3688
14266SOL     OW44665   5.885   2.641   8.191 -0.1004  0.4710 -0.4594
14266SOL    HW144666   5.946   2.567   8.199  1.5592  1.8922  1.0506
14266SOL    HW244667   5.824   2.630   8.265  2.0400  2.1130  1.7392
14267SOL     OW44668   7.325   3.109   3.018 -0.3422  0.2286  0.2012
14267SOL    HW144669   7.346   3.155   3.099  1.3468 -0.7932  0.3879
14267SOL    HW244670   7.338   3.016   3.040  1.6296  0.0171 -1.6100
14268SOL     OW44671   3.216   5.677   7.599  0.2025 -0.0053  0.1004
14268SOL    HW144672   3.266   5.740   7.547 -1.5285  0.5716 -0.9469
14268SOL    HW244673   3.155   5.637   7.537 -0.7423 -0.5819  1.3501
14269SOL     OW44674   1.985   3.137   8.358  0.4360  0.0023  0.1976
14269SOL    HW144675   2.027   3.070   8.413 -0.0822  0.1600  0.7909
14269SOL    HW244676   2.055   3.200   8.341  1.4346 -1.5205 -1.8076
14270SOL     OW44677   2.681   0.260   6.598  0.2014 -0.2263  0.6027
14270SOL    HW144678   2.759   0.272   6.653 -0.4912 -0.1985  1.6223
14270SOL    HW244679   2.706   0.295   6.513  1.7370 -1.4220  0.5069
14271SOL     OW44680   2.663   4.267   4.663  0.0616 -1.0228  0.0674
14271SOL    HW144681   2.666   4.171   4.657  1.1296 -0.9331 -1.3910
14271SOL    HW244682   2.713   4.297   4.587 -1.0983  0.7129 -0.0587
14272SOL     OW44683   1.961   8.969   0.137 -0.3628 -0.9333 -0.6496
14272SOL    HW144684   1.939   8.880   0.110 -0.9987 -0.7675 -0.7013
14272SOL    HW244685   1.888   8.995   0.194 -0.1707 -0.4523 -0.6212
14273SOL     OW44686   6.583   4.384   3.127 -0.2843 -0.6949 -0.1045
14273SOL    HW144687   6.651   4.450   3.122  0.0429 -1.0504 -0.4910
14273SOL    HW244688   6.522   4.407   3.057  0.0971 -1.0845 -0.5754
14274SOL     OW44689   7.929   3.437   7.929 -0.1393  0.3711 -1.1229
14274SOL    HW144690   7.908   3.530   7.927 -1.7336  0.0392 -1.1389
14274SOL    HW244691   7.999   3.426   7.864  0.5341  1.6437 -0.6330
14275SOL     OW44692   4.503   6.732   4.606  0.3105 -0.1480  0.6890
14275SOL    HW144693   4.440   6.683   4.659 -0.6826 -0.2070 -0.4889
14275SOL    HW244694   4.479   6.711   4.515  1.8821  0.0300  0.2012
14276SOL     OW44695   0.953   1.824   0.970 -0.0976  0.4596 -0.0327
14276SOL    HW144696   0.888   1.798   1.034 -1.4539  1.4336 -0.9574
14276SOL    HW244697   0.960   1.919   0.981  2.3666  0.2222  1.1144
14277SOL     OW44698   8.189   7.087   6.787  0.3082  0.2310  0.5785
14277SOL    HW144699   8.247   7.045   6.851  1.8703  1.3749 -0.0119
14277SOL    HW244700   8.179   7.023   6.717  0.9444  0.0530  0.6468
14278SOL     OW44701   8.139   0.100   2.484 -0.1330 -0.5622  0.6309
14278SOL    HW144702   8.145   0.102   2.579 -1.6315  0.0439  0.7278
14278SOL    HW244703   8.218   0.146   2.454 -0.8189  1.3782  1.6495
14279SOL     OW44704   4.682   7.910   2.909  0.5664  0.4632 -0.1285
14279SOL    HW144705   4.645   7.822   2.915  0.2827  0.5739 -0.2132
14279SOL    HW244706   4.661   7.951   2.993 -1.5786  1.3140 -0.9982
14280SOL     OW44707   3.538   4.395   5.520  0.0726 -0.0645 -0.8179
14280SOL    HW144708   3.538   4.356   5.608  1.1063  1.4106 -0.1208
14280SOL    HW244709   3.500   4.482   5.532  2.0864  0.9626 -1.4022
14281SOL     OW44710   6.728   0.222   0.824 -0.0816  0.0711 -0.2706
14281SOL    HW144711   6.643   0.248   0.861 -0.0898  0.3949 -0.5164
14281SOL    HW244712   6.781   0.199   0.900 -0.2583  0.2614 -0.0880
14282SOL     OW44713   8.746   8.989   4.657 -0.2485  1.0428 -0.1147
14282SOL    HW144714   8.673   9.034   4.614  0.9184  0.9017 -2.3740
14282SOL    HW244715   8.823   9.039   4.631  0.9013 -1.2292 -1.3445
14283SOL     OW44716   3.919   6.886   3.395 -0.3126 -0.0897  0.1849
14283SOL    HW144717   3.945   6.965   3.442 -2.5214  0.2525  0.9720
14283SOL    HW244718   3.836   6.909   3.353  0.1284 -1.3145 -1.4431
14284SOL     OW44719   1.567   6.012   3.587  1.2378 -0.1206  0.5575
14284SOL    HW144720   1.556   6.096   3.632  1.2314 -0.3932  1.0709
14284SOL    HW244721   1.532   5.948   3.648  0.3838 -0.4126 -0.2220
14285SOL     OW44722   4.967   6.050   2.950  0.5699 -0.2648  0.1138
14285SOL    HW144723   4.969   5.954   2.959 -2.9523 -0.3814  1.4279
14285SOL    HW244724   4.926   6.064   2.864  2.5280  0.1650 -0.7917
14286SOL     OW44725   0.942   8.120   8.687  0.6693  0.3680 -0.0661
14286SOL    HW144726   1.037   8.128   8.691  0.6197  0.6913  2.7343
14286SOL    HW244727   0.925   8.028   8.710  0.3120  0.1157 -1.3037
14287SOL     OW44728   2.847   6.465   8.352  0.1243 -0.4147 -1.2252
14287SOL    HW144729   2.864   6.375   8.382 -0.0429  0.0819  0.4760
14287SOL    HW244730   2.934   6.499   8.329  0.8312  0.2032  1.8650
14288SOL     OW44731   3.603   3.939   7.804  0.1588 -0.3726  0.0132
14288SOL    HW144732   3.628   3.946   7.896  0.2096  1.0290 -0.0875
14288SOL    HW244733   3.631   3.851   7.778  1.9109 -0.1061  0.8281
14289SOL     OW44734   3.069   8.571   6.760 -0.6191 -0.1597 -0.3575
14289SOL    HW144735   3.092   8.619   6.681 -2.0018 -1.8748 -1.9131
14289SOL    HW244736   2.974   8.567   6.759 -0.5914 -2.0642  0.1892
14290SOL     OW44737   4.376   5.369   4.924  0.5425  0.0104  0.1859
14290SOL    HW144738   4.342   5.364   4.835  1.6639  2.3241 -0.4380
14290SOL    HW244739   4.369   5.279   4.957 -4.1621 -0.1299 -0.5209
14291SOL     OW44740   3.745   7.072   2.949  0.5023  0.4603 -0.3305
14291SOL    HW144741   3.751   7.143   2.886 -0.9693 -0.3452 -1.4262
14291SOL    HW244742   3.652   7.053   2.956  0.7023 -0.0472  1.4547
14292SOL     OW44743   4.327   0.878   5.165  0.5537  0.3831 -0.5665
14292SOL    HW144744   4.285   0.881   5.078 -1.2231  1.5721  0.2679
14292SOL    HW244745   4.413   0.919   5.151  0.9092 -0.7864 -2.0407
14293SOL     OW44746   5.438   0.821   1.698 -0.0927  0.0752 -0.1106
14293SOL    HW144747   5.407   0.894   1.751 -0.2544 -0.6899  0.8648
14293SOL    HW244748   5.509   0.781   1.749 -0.5802 -0.9687 -0.2154
14294SOL     OW44749   7.375   1.781   8.884  0.1315 -0.0750 -0.0387
14294SOL    HW144750   7.470   1.784   8.872  0.4169 -2.8879  0.7076
14294SOL    HW244751   7.356   1.688   8.898 -2.3491  0.7274  2.8719
14295SOL     OW44752   4.903   6.468   0.285  0.2985  0.7075 -0.1747
14295SOL    HW144753   4.970   6.428   0.230  1.2962 -0.0890  1.5305
14295SOL    HW244754   4.947   6.540   0.329  0.4811 -0.5660  1.8944
14296SOL     OW44755   4.445   4.701   1.136 -0.0603  0.2098  0.6739
14296SOL    HW144756   4.364   4.728   1.092 -0.0031  0.2649  0.6012
14296SOL    HW244757   4.416   4.667   1.221 -0.1769  0.0446  0.5682
14297SOL     OW44758   1.050   2.085   6.133 -0.4918  0.0581 -0.0659
14297SOL    HW144759   1.080   2.081   6.042 -0.0204 -1.3554  0.1241
14297SOL    HW244760   0.998   2.165   6.138  0.6149  0.8763 -1.2232
14298SOL     OW44761   1.370   8.151   6.575 -0.7507 -0.1862  0.1010
14298SOL    HW144762   1.422   8.126   6.651  3.2786 -2.3362 -3.0070
14298SOL    HW244763   1.282   8.118   6.594 -0.0564 -0.2503  3.8850
14299SOL     OW44764   7.116   0.996   6.561 -0.5970  0.9017  0.3005
14299SOL    HW144765   7.193   1.018   6.614  0.6173  1.2616 -1.5195
14299SOL    HW244766   7.079   1.081   6.536  0.0964  0.8153 -1.1294
14300SOL     OW44767   1.756   7.254   8.901  0.2516  0.0776  0.1724
14300SOL    HW144768   1.723   7.202   8.974 -1.2859  1.6242  0.6580
14300SOL    HW244769   1.688   7.245   8.833  1.6433 -1.3210 -1.1220
14301SOL     OW44770   8.939   7.206   7.078 -0.1073 -0.6340 -0.0792
14301SOL    HW144771   8.900   7.284   7.118  2.2700  1.1873 -1.0702
14301SOL    HW244772   8.914   7.134   7.136  0.4926  1.3813  2.9066
14302SOL     OW44773   1.325   5.245   3.759 -0.2663 -0.0497  0.3554
14302SOL    HW144774   1.252   5.288   3.805  0.7563  2.1768  0.0357
14302SOL    HW244775   1.289   5.223   3.673 -0.7357  0.5441  0.3883
14303SOL     OW44776   2.693   2.693   1.233  0.1222 -0.3431  0.1311
14303SOL    HW144777   2.665   2.744   1.157  1.0916 -0.4084 -0.2768
14303SOL    HW244778   2.757   2.749   1.277 -0.4397 -0.2970  0.9249
14304SOL     OW44779   2.703   4.158   3.466  0.3907 -0.1953  0.4561
14304SOL    HW144780   2.742   4.139   3.551 -0.7009  0.6472  1.1718
14304SOL    HW244781   2.706   4.253   3.458 -1.1553 -0.1247  0.3817
14305SOL     OW44782   3.894   5.911   4.704 -0.2301 -0.2029  0.0963
14305SOL    HW144783   3.876   5.862   4.624  0.3466  2.4785 -1.8185
14305SOL    HW244784   3.984   5.888   4.727 -0.1994 -0.5739 -0.3833
14306SOL     OW44785   6.800   8.072   5.522 -0.1941  0.6222  0.2593
14306SOL    HW144786   6.724   8.110   5.478 -0.4171  0.2846  0.3427
14306SOL    HW244787   6.768   7.987   5.554  0.2670  0.4111  0.1576
14307SOL     OW44788   5.379   0.438   6.481 -0.2441  0.6956 -0.2118
14307SOL    HW144789   5.416   0.448   6.393  0.3522  0.3039 -0.0075
14307SOL    HW244790   5.387   0.526   6.519  0.6269  0.5867 -0.1174
14308SOL     OW44791   8.997   4.691   2.838  0.2496 -0.7431  0.0967
14308SOL    HW144792   9.027   4.751   2.770  0.5229  0.2629  1.0666
14308SOL    HW244793   8.915   4.730   2.870  0.3149 -0.9987  0.5878
14309SOL     OW44794   2.916   7.002   2.335 -0.7108 -0.1935  0.1706
14309SOL    HW144795   2.889   7.032   2.248 -1.9096 -0.0670  0.5675
14309SOL    HW244796   2.861   6.926   2.352  1.9216 -2.4757 -0.6056
14310SOL     OW44797   8.937   4.337   0.671 -0.1869  0.1095  0.2720
14310SOL    HW144798   9.027   4.305   0.678 -0.2954 -0.5140 -0.8789
14310SOL    HW244799   8.933   4.375   0.583 -1.2134 -0.4428  0.0658
14311SOL     OW44800   4.709   2.643   2.353  0.5808  0.2414 -0.2791
14311SOL    HW144801   4.616   2.668   2.359  0.9652  2.1721 -1.4203
14311SOL    HW244802   4.724   2.590   2.431 -1.1503  1.0235  0.6634
14312SOL     OW44803   6.018   6.815   5.336 -0.3472 -0.4120 -0.0734
14312SOL    HW144804   6.075   6.880   5.377 -2.2312  1.5841 -0.4811
14312SOL    HW244805   6.078   6.759   5.287  1.4139  0.5889  0.8379
14313SOL     OW44806   1.223   8.410   7.735 -0.2542 -0.6860  0.1623
14313SOL    HW144807   1.259   8.322   7.737  1.2110 -0.2601 -2.5319
14313SOL    HW244808   1.136   8.399   7.696 -0.9811 -1.1222  1.8261
14314SOL     OW44809   0.177   8.864   0.578  0.2993 -0.5732 -0.1956
14314SOL    HW144810   0.182   8.808   0.501  0.2119 -1.6421  0.5588
14314SOL    HW244811   0.267   8.878   0.605  0.4509  1.2454 -1.4772
14315SOL     OW44812   3.821   8.459   2.470 -0.1842 -0.4648 -0.0273
14315SOL    HW144813   3.860   8.444   2.384 -1.3138 -1.6611 -0.3694
14315SOL    HW244814   3.766   8.536   2.458  1.1473  0.5510  0.1657
14316SOL     OW44815   7.385   8.855   4.589  0.3237  0.2597 -0.4403
14316SOL    HW144816   7.452   8.857   4.657 -0.7279  1.0599  0.6060
14316SOL    HW244817   7.425   8.901   4.515  1.5035 -0.6867 -0.4307
14317SOL     OW44818   2.904   2.926   3.938  0.4703  0.2333 -0.3569
14317SOL    HW144819   2.951   3.004   3.967 -0.2133  0.2047  0.8892
14317SOL    HW244820   2.815   2.937   3.972 -0.1128 -0.2908 -1.6234
14318SOL     OW44821   4.845   7.510   4.498 -0.0646  0.3437  0.4833
14318SOL    HW144822   4.775   7.532   4.559  0.0318  1.0775  0.3403
14318SOL    HW244823   4.821   7.556   4.417  0.4741  0.4393  0.3744
14319SOL     OW44824   3.346   8.946   1.149 -0.2810  0.3137 -0.1117
14319SOL    HW144825   3.365   8.908   1.063 -2.4017 -1.5701  0.1389
14319SOL    HW244826   3.396   8.893   1.211 -1.3185 -0.5600  0.0264
14320SOL     OW44827   2.843   5.284   8.139 -0.1299  0.1860  0.4311
14320SOL    HW144828   2.831   5.310   8.048  1.2347 -0.4428  0.0589
14320SOL    HW244829   2.918   5.335   8.170 -0.4425  0.2358  1.1439
14321SOL     OW44830   0.168   7.626   7.967 -0.0853 -0.0128  1.1701
14321SOL    HW144831   0.240   7.567   7.945 -0.2266 -0.5589  2.1351
14321SOL    HW244832   0.204   7.686   8.032  0.2120  1.3388 -0.1695
14322SOL     OW44833   2.046   6.939   8.410 -0.1860  0.2984  1.0929
14322SOL    HW144834   1.980   6.958   8.476 -0.9011  1.7516  0.0281
14322SOL    HW244835   2.022   6.854   8.374 -1.5149  0.8158  0.7066
14323SOL     OW44836   4.076   6.624   0.395  0.2937  0.0993 -0.0995
14323SOL    HW144837   3.990   6.635   0.354  0.9709 -1.6012 -2.1644
14323SOL    HW244838   4.057   6.583   0.479 -1.0158  1.7519  0.4719
14324SOL     OW44839   7.083   7.550   6.398 -0.7064 -0.0394  0.0761
14324SOL    HW144840   7.096   7.599   6.479  0.5916  1.4213 -0.9498
14324SOL    HW244841   7.115   7.462   6.417 -0.1048  0.3800  1.0621
14325SOL     OW44842   3.619   5.986   6.357 -0.6154 -0.1726 -0.4071
14325SOL    HW144843   3.712   5.995   6.377 -0.7229  1.5775 -0.5330
14325SOL    HW244844   3.614   5.913   6.295  0.6784 -0.2077 -0.4868
14326SOL     OW44845   5.511   7.410   0.368  0.3302  0.1295 -0.1748
14326SOL    HW144846   5.479   7.325   0.339  1.3371 -0.2718 -0.1367
14326SOL    HW244847   5.480   7.418   0.459 -1.3486  0.6386 -0.7499
14327SOL     OW44848   3.431   3.618   5.437  0.4945  0.2426 -0.8809
14327SOL    HW144849   3.482   3.630   5.517 -0.8946 -3.0433  0.7000
14327SOL    HW244850   3.466   3.538   5.398 -1.5521 -0.5535 -1.2173
14328SOL     OW44851   8.691   6.637   7.898  0.2090 -0.4015 -0.0722
14328SOL    HW144852   8.692   6.731   7.882  1.1862 -0.5334 -0.8733
14328SOL    HW244853   8.731   6.627   7.985 -0.4054 -0.0488  0.2569
14329SOL     OW44854   5.747   2.017   8.026 -0.4646  0.0680  0.5216
14329SOL    HW144855   5.787   2.046   7.944  0.7631 -0.9970  0.6981
14329SOL    HW244856   5.728   2.098   8.073 -0.7422  0.6805 -0.5988
14330SOL     OW44857   5.454   2.942   1.153  0.1247  0.1619 -0.1436
14330SOL    HW144858   5.390   2.871   1.144  0.3365 -0.4691  2.6783
14330SOL    HW244859   5.406   3.021   1.125  0.0477 -0.9848 -3.8750
14331SOL     OW44860   5.513   2.932   6.322  0.0302  0.1034 -0.2061
14331SOL    HW144861   5.483   3.018   6.294 -1.0460  0.4453  1.8446
14331SOL    HW244862   5.461   2.870   6.270 -2.0524  0.7173  1.0441
14332SOL     OW44863   6.427   0.138   4.485 -0.1378  0.1692 -0.0443
14332SOL    HW144864   6.517   0.172   4.484  0.8796 -2.2803 -0.9177
14332SOL    HW244865   6.420   0.091   4.568  0.1785 -1.4584 -0.9092
14333SOL     OW44866   1.046   8.890   2.533  0.2427 -0.5766  0.1873
14333SOL    HW144867   1.013   8.807   2.571  0.1783 -0.6240  0.0269
14333SOL    HW244868   1.020   8.956   2.597 -0.1211 -0.6210  0.0913
14334SOL     OW44869   0.672   3.956   1.965  0.6224 -0.5461 -0.6160
14334SOL    HW144870   0.703   4.039   1.929 -0.2069  0.0802  0.0822
14334SOL    HW244871   0.737   3.933   2.032  0.9694 -0.5797 -0.9628
14335SOL     OW44872   8.283   4.184   0.509 -0.1165 -0.2806 -0.4190
14335SOL    HW144873   8.233   4.105   0.529  0.4910 -0.7903 -0.9000
14335SOL    HW244874   8.217   4.254   0.506 -0.4903 -0.5147  1.3421
14336SOL     OW44875   4.726   1.713   4.931 -0.0027 -0.1702  0.0224
14336SOL    HW144876   4.668   1.648   4.970  0.4582 -0.2936  0.5040
14336SOL    HW244877   4.676   1.795   4.934 -1.6727 -0.9358 -2.9866
14337SOL     OW44878   0.508   0.816   1.982  0.0681  0.2513 -0.4820
14337SOL    HW144879   0.426   0.767   1.978  0.4280 -0.5069  0.7716
14337SOL    HW244880   0.482   0.902   2.015 -0.4851  0.7468 -2.1222
14338SOL     OW44881   6.237   4.906   2.431 -0.2379 -0.2856  0.1371
14338SOL    HW144882   6.280   4.936   2.510 -1.5642 -1.7196  1.4773
14338SOL    HW244883   6.307   4.868   2.377  0.5177 -0.3721  1.1600
14339SOL     OW44884   8.326   1.862   0.168  0.5932 -0.3684  0.0243
14339SOL    HW144885   8.251   1.813   0.133 -0.6963  1.3015  0.3542
14339SOL    HW244886   8.395   1.796   0.178 -1.4160 -2.4106  1.5519
14340SOL     OW44887   1.792   6.006   0.813  0.0310  0.1594 -0.2207
14340SOL    HW144888   1.776   5.957   0.893  0.2574  1.4389  0.6247
14340SOL    HW244889   1.848   5.948   0.761 -0.5198 -0.8873  0.3133
14341SOL     OW44890   6.084   1.888   0.979  0.2489  0.9058  0.1716
14341SOL    HW144891   6.064   1.810   0.926  0.4119  0.0763  1.3014
14341SOL    HW244892   6.000   1.933   0.988  0.3146  1.3939 -1.2592
14342SOL     OW44893   1.667   5.027   4.399 -0.4400 -0.3476 -0.2500
14342SOL    HW144894   1.721   5.055   4.472 -2.2763 -2.2565  2.0254
14342SOL    HW244895   1.617   5.105   4.375  0.6455  0.4754  0.0800
14343SOL     OW44896   4.355   8.096   8.613 -0.1722  0.0163  0.1491
14343SOL    HW144897   4.379   8.105   8.520 -0.3838 -0.0275  0.0905
14343SOL    HW244898   4.279   8.153   8.624  0.8989  1.3888  0.7111
14344SOL     OW44899   6.726   4.751   4.121  0.3158  0.1117  0.3545
14344SOL    HW144900   6.757   4.744   4.031  0.3703 -0.8050  0.4401
14344SOL    HW244901   6.631   4.743   4.114 -0.0821  3.4467  0.0311
14345SOL     OW44902   8.710   8.237   3.076  0.7342  0.0584 -0.0207
14345SOL    HW144903   8.674   8.181   3.006  0.2550 -1.4826  1.4008
14345SOL    HW244904   8.634   8.259   3.129  0.6326  3.3627 -1.3079
14346SOL     OW44905   3.208   8.295   7.473  0.2428 -0.1286  0.2350
14346SOL    HW144906   3.157   8.377   7.480  0.4649 -0.0111  0.4742
14346SOL    HW244907   3.169   8.238   7.538  1.2874  0.4241  1.3746
14347SOL     OW44908   3.238   8.691   5.200 -0.4829 -0.1659 -0.3561
14347SOL    HW144909   3.147   8.668   5.181 -0.7925  0.0786  0.7837
14347SOL    HW244910   3.288   8.655   5.126 -1.3624 -1.3339 -0.4035
14348SOL     OW44911   6.160   6.527   1.919  0.0831 -0.1473  0.2993
14348SOL    HW144912   6.205   6.450   1.955  0.7068  0.4329  0.8005
14348SOL    HW244913   6.072   6.497   1.898  0.5623 -1.1973 -0.2546
14349SOL     OW44914   5.155   7.733   4.596  0.3179  0.8089 -0.0991
14349SOL    HW144915   5.131   7.648   4.634  1.8914  0.8363  1.0575
14349SOL    HW244916   5.180   7.713   4.506  2.9343 -0.4166  0.8068
14350SOL     OW44917   2.319   5.128   3.702  0.5255 -0.0425  0.2442
14350SOL    HW144918   2.346   5.039   3.726  2.0151 -0.2294 -1.8174
14350SOL    HW244919   2.224   5.126   3.705  0.5301 -1.7129  0.3176
14351SOL     OW44920   7.208   0.553   2.739  0.0080 -0.4817 -0.4278
14351SOL    HW144921   7.124   0.565   2.783  0.0231 -2.6749  0.3414
14351SOL    HW244922   7.270   0.601   2.794 -0.1516 -2.2615  1.4355
14352SOL     OW44923   6.704   0.588   3.977  0.5425 -0.2896 -0.1624
14352SOL    HW144924   6.678   0.668   4.024 -0.0938 -0.4266 -0.2766
14352SOL    HW244925   6.651   0.588   3.898  0.8259 -0.6283 -0.3545
14353SOL     OW44926   6.074   4.330   3.089 -0.0577  0.7994 -0.1503
14353SOL    HW144927   6.073   4.249   3.039 -1.8942  0.8936 -0.3004
14353SOL    HW244928   6.096   4.397   3.025  0.2326  0.5886 -0.2743
14354SOL     OW44929   8.620   1.397   7.070 -0.1823  0.0100  0.4328
14354SOL    HW144930   8.594   1.330   7.007  2.3448 -0.0467 -0.6553
14354SOL    HW244931   8.599   1.359   7.155 -1.7925 -0.7584 -0.2672
14355SOL     OW44932   4.120   1.587   5.458 -0.3011 -0.1168  0.8174
14355SOL    HW144933   4.075   1.509   5.425 -0.4734 -1.0616  3.1320
14355SOL    HW244934   4.051   1.638   5.501 -0.1829  1.3459 -0.6024
14356SOL     OW44935   2.634   5.103   1.354 -0.5780  0.1016 -0.6704
14356SOL    HW144936   2.620   5.020   1.399  0.8227  1.3374  2.3371
14356SOL    HW244937   2.729   5.110   1.346 -0.7296  0.8141 -2.1471
14357SOL     OW44938   4.092   1.801   2.237  0.6474 -0.4344  0.6091
14357SOL    HW144939   4.157   1.802   2.167 -0.1769  0.8425 -0.1817
14357SOL    HW244940   4.140   1.827   2.316  0.9996  1.1552 -0.0878
14358SOL     OW44941   0.837   1.494   1.587 -0.4794  0.4799  0.0424
14358SOL    HW144942   0.867   1.434   1.518 -1.0771  1.6370 -1.2841
14358SOL    HW244943   0.757   1.453   1.621 -0.6324  0.2790 -0.5382
14359SOL     OW44944   5.407   0.528   3.289 -0.3454  0.1201  0.0595
14359SOL    HW144945   5.460   0.507   3.212  1.4058  0.2806  1.1479
14359SOL    HW244946   5.392   0.622   3.283  3.0619  0.9283  1.7180
14360SOL     OW44947   2.162   2.163   1.939 -0.6999 -0.4155  0.6461
14360SOL    HW144948   2.156   2.220   2.016 -0.7800  1.6463 -0.8144
14360SOL    HW244949   2.211   2.087   1.970  0.4784  0.9569  2.4083
14361SOL     OW44950   0.539   2.865   5.963  0.2042 -0.6360 -0.2473
14361SOL    HW144951   0.574   2.794   5.909  0.4651 -0.4610 -0.3144
14361SOL    HW244952   0.605   2.934   5.956 -0.7946  0.2327 -1.4802
14362SOL     OW44953   1.668   7.293   1.356 -0.4980  0.2441  0.5695
14362SOL    HW144954   1.638   7.235   1.286 -1.8866  0.2064  1.1874
14362SOL    HW244955   1.753   7.257   1.382 -0.4895 -0.4112 -0.3145
14363SOL     OW44956   8.402   0.636   8.920 -0.3245  0.0273  0.2239
14363SOL    HW144957   8.322   0.637   8.973  0.0843  0.2973  0.8477
14363SOL    HW244958   8.415   0.544   8.899 -0.3107 -0.1250  0.8824
14364SOL     OW44959   2.711   4.029   4.550 -0.1978  0.1439  0.3019
14364SOL    HW144960   2.655   4.053   4.475  0.6905  0.2240 -0.3483
14364SOL    HW244961   2.775   3.968   4.514  0.4158  0.3994  0.9352
14365SOL     OW44962   4.085   8.851   6.222  0.7216  0.1801  0.1364
14365SOL    HW144963   4.167   8.822   6.184  0.9112  0.0349  0.6459
14365SOL    HW244964   4.100   8.848   6.317  0.4486  1.0653  0.2195
14366SOL     OW44965   8.153   8.214   6.204  0.4707  0.2494  0.0885
14366SOL    HW144966   8.107   8.240   6.285  0.0896 -1.8212  0.5794
14366SOL    HW244967   8.210   8.143   6.231  0.3627 -0.4490 -1.4702
14367SOL     OW44968   7.394   4.093   7.058 -0.3169  0.2863 -0.0105
14367SOL    HW144969   7.398   4.015   7.002  0.4146  0.2362  0.1048
14367SOL    HW244970   7.301   4.118   7.056 -0.2798  0.4349 -1.4503
14368SOL     OW44971   0.824   1.053   1.375  0.2873 -0.0748 -0.2745
14368SOL    HW144972   0.819   1.148   1.380  2.7090  0.0788  0.3100
14368SOL    HW244973   0.746   1.022   1.421  0.4594  1.6328  1.2595
14369SOL     OW44974   0.303   6.068   6.683 -0.3588 -0.1994 -0.2211
14369SOL    HW144975   0.237   6.085   6.615 -0.1605  2.4746  0.1435
14369SOL    HW244976   0.387   6.076   6.638 -0.1295 -3.5764 -0.6787
14370SOL     OW44977   0.625   5.962   1.627 -0.1607 -0.0192 -0.0062
14370SOL    HW144978   0.679   5.990   1.701  0.6675 -0.0762 -0.5775
14370SOL    HW244979   0.585   5.880   1.657 -0.5421  0.4174  0.7048
14371SOL     OW44980   1.974   0.121   7.009  0.4202 -1.1940  0.0889
14371SOL    HW144981   1.887   0.154   7.031  0.8595  1.5563 -1.8142
14371SOL    HW244982   1.957   0.041   6.959 -0.9233 -1.5048  0.9783
14372SOL     OW44983   3.928   7.891   4.939 -0.7521 -0.1705  0.4250
14372SOL    HW144984   3.960   7.831   5.007 -1.9666 -0.0286  1.1301
14372SOL    HW244985   3.898   7.968   4.986  1.1892  1.2584 -0.4964
14373SOL     OW44986   4.379   0.789   6.785 -0.2635 -0.5583  0.1653
14373SOL    HW144987   4.395   0.877   6.819 -0.9307  0.2861 -1.5502
14373SOL    HW244988   4.404   0.796   6.692 -0.5738 -2.1160 -0.0510
14374SOL     OW44989   0.843   4.413   0.637 -0.2283  0.2276 -0.2618
14374SOL    HW144990   0.758   4.437   0.676 -0.1922 -1.0967  0.7104
14374SOL    HW244991   0.836   4.442   0.546 -1.0765  1.6452  0.2117
14375SOL     OW44992   4.707   3.395   4.384  0.1459 -0.0486  0.3286
14375SOL    HW144993   4.787   3.361   4.344  0.4038 -0.9930  1.6041
14375SOL    HW244994   4.695   3.343   4.463 -1.6930  0.1087  0.2154
14376SOL     OW44995   8.805   8.107   2.341  0.8674  0.1698  0.3608
14376SOL    HW144996   8.764   8.166   2.278  1.9219  1.2187  0.6151
14376SOL    HW244997   8.821   8.027   2.291  1.8027  1.0229 -0.7761
14377SOL     OW44998   5.988   4.941   3.578  0.2720 -0.3366  0.2776
14377SOL    HW144999   5.917   4.878   3.575 -0.0742  0.0567  0.1811
14377SOL    HW245000   6.064   4.894   3.544 -0.0703 -0.5817 -0.1436
14378SOL     OW45001   8.241   3.586   2.988  0.0092 -0.4142  0.4366
14378SOL    HW145002   8.236   3.652   3.057 -0.2465  0.0467 -0.0202
14378SOL    HW245003   8.335   3.580   2.968 -0.1948  2.5830 -2.1352
14379SOL     OW45004   0.722   3.183   2.805  0.1735  0.3991  0.5414
14379SOL    HW145005   0.739   3.186   2.711 -1.0890  1.1535  0.3007
14379SOL    HW245006   0.808   3.171   2.845  0.8831  1.2641 -0.6541
14380SOL     OW45007   4.083   5.354   1.839  0.4164 -0.2216  0.2022
14380SOL    HW145008   4.006   5.397   1.876  0.0566  0.3397 -1.1164
14380SOL    HW245009   4.052   5.319   1.755  1.9744  1.4406 -1.1365
14381SOL     OW45010   1.264   7.033   5.268 -0.2597 -0.4777  0.0922
14381SOL    HW145011   1.190   6.991   5.312  0.1606  0.0591  1.3459
14381SOL    HW245012   1.239   7.035   5.176 -1.2060 -1.5448  0.3081
14382SOL     OW45013   1.875   4.232   0.976 -0.6917 -0.2120 -0.0343
14382SOL    HW145014   1.934   4.287   0.926 -0.9567  0.2521  0.1582
14382SOL    HW245015   1.789   4.247   0.937 -1.5468  2.7257  2.5570
14383SOL     OW45016   6.948   4.991   1.239 -0.4478 -0.4222  0.0988
14383SOL    HW145017   7.025   5.048   1.237 -0.4341 -0.4414  0.0829
14383SOL    HW245018   6.931   4.976   1.332 -1.3125  0.7711  0.1480
14384SOL     OW45019   0.131   4.541   1.423 -0.7870 -0.2525 -0.3435
14384SOL    HW145020   0.148   4.627   1.385 -0.3304 -0.1359  0.1194
14384SOL    HW245021   0.101   4.488   1.349 -1.3988  0.3893 -0.5724
14385SOL     OW45022   4.185   3.086   8.161 -0.2723  0.1274 -0.4340
14385SOL    HW145023   4.163   2.994   8.146  0.7802 -0.1678 -0.2564
14385SOL    HW245024   4.189   3.124   8.074  0.0667 -0.1921 -0.5627
14386SOL     OW45025   5.460   3.565   5.376  0.2550  0.1490  0.5316
14386SOL    HW145026   5.416   3.539   5.295  2.3501  0.6848 -0.8425
14386SOL    HW245027   5.474   3.483   5.423 -2.0019 -0.0527  0.9564
14387SOL     OW45028   8.543   2.302   5.981 -0.5185 -0.5070 -0.0906
14387SOL    HW145029   8.534   2.207   5.993  0.4765 -0.8810 -1.9400
14387SOL    HW245030   8.478   2.324   5.914 -0.9419  0.1894  0.5341
14388SOL     OW45031   7.309   6.711   2.860 -0.2345  0.0211  0.0315
14388SOL    HW145032   7.290   6.805   2.856 -0.3657 -0.0086 -0.0377
14388SOL    HW245033   7.257   6.679   2.934  0.6056  0.1880  0.7121
14389SOL     OW45034   2.506   8.908   0.334 -0.1385  0.2462 -0.2821
14389SOL    HW145035   2.583   8.923   0.279  0.2709 -0.1115  0.1876
14389SOL    HW245036   2.479   8.995   0.363  2.9308  0.2251  3.4250
14390SOL     OW45037   7.177   7.390   1.812  0.2333  0.2821  0.4373
14390SOL    HW145038   7.146   7.309   1.852 -3.4381  0.6467 -1.2040
14390SOL    HW245039   7.152   7.459   1.873 -0.2845  0.4347  0.0621
14391SOL     OW45040   3.020   8.174   0.266 -0.1210  0.3760  0.1914
14391SOL    HW145041   2.965   8.147   0.340  1.0076 -0.0677  0.8808
14391SOL    HW245042   2.991   8.117   0.194 -1.3613  0.9411  0.2137
14392SOL     OW45043   2.061   2.644   4.064  0.1428 -0.0385  0.2912
14392SOL    HW145044   2.082   2.556   4.034 -1.0502  0.5462 -2.6403
14392SOL    HW245045   1.967   2.644   4.079  0.2583  0.5228  1.0873
14393SOL     OW45046   5.579   6.133   2.653 -0.3794 -0.3774 -0.6295
14393SOL    HW145047   5.533   6.192   2.592  0.5326  0.6344 -0.3721
14393SOL    HW245048   5.646   6.092   2.599 -0.1530 -0.1591 -0.5183
14394SOL     OW45049   5.878   3.506   6.054  0.7115 -0.1762 -0.0007
14394SOL    HW145050   5.801   3.454   6.077  0.7499 -1.0534 -1.6963
14394SOL    HW245051   5.843   3.592   6.032 -0.0430 -0.9698 -2.1989
14395SOL     OW45052   3.335   5.833   5.855 -0.7248 -0.3306 -0.3180
14395SOL    HW145053   3.338   5.743   5.890 -1.1436  0.4319  1.8407
14395SOL    HW245054   3.328   5.888   5.933 -0.4681  1.5961 -1.6050
14396SOL     OW45055   8.340   0.472   0.722  0.5163 -0.3624 -0.2359
14396SOL    HW145056   8.407   0.441   0.661  1.0150  1.3619 -0.6261
14396SOL    HW245057   8.257   0.441   0.685  0.8150  0.6463 -1.8296
14397SOL     OW45058   7.167   3.409   6.792  0.1769 -0.6569 -0.0496
14397SOL    HW145059   7.187   3.421   6.699 -0.8142 -1.8347 -0.4453
14397SOL    HW245060   7.073   3.429   6.799  0.3414 -0.1062  0.8061
14398SOL     OW45061   8.969   4.300   1.624 -0.8861  0.6927 -0.2873
14398SOL    HW145062   8.988   4.206   1.621 -0.5733  0.7557 -2.6295
14398SOL    HW245063   8.891   4.308   1.679 -2.2299 -1.2121 -1.7800
14399SOL     OW45064   0.756   4.498   3.961 -0.7488  0.2626 -0.1350
14399SOL    HW145065   0.769   4.418   4.012 -0.5547  0.7711  0.6307
14399SOL    HW245066   0.844   4.528   3.940 -0.8176  0.3665 -0.2823
14400SOL     OW45067   4.187   2.940   7.836 -0.2270  0.2903  0.2729
14400SOL    HW145068   4.230   2.871   7.786 -0.9406  1.4427 -2.0646
14400SOL    HW245069   4.146   2.894   7.910  0.6149 -1.5298 -0.3337
14401SOL     OW45070   5.637   6.145   3.625  0.0912 -0.2073  0.2184
14401SOL    HW145071   5.578   6.103   3.687  0.8895  0.2546  1.3329
14401SOL    HW245072   5.718   6.095   3.633  0.0805 -0.3802 -0.7430
14402SOL     OW45073   5.671   1.779   3.114  0.9119 -0.1676 -0.1844
14402SOL    HW145074   5.758   1.755   3.146  0.8064 -0.9342 -0.4538
14402SOL    HW245075   5.682   1.787   3.019  0.7272 -0.0791 -0.1983
14403SOL     OW45076   5.112   0.465   7.937 -0.2170  0.7313 -0.0873
14403SOL    HW145077   5.082   0.404   7.869 -2.1608 -0.7715  1.9911
14403SOL    HW245078   5.199   0.433   7.961 -0.0152  0.5545 -1.0075
14404SOL     OW45079   2.890   4.710   7.561  0.3508  0.5892  0.2096
14404SOL    HW145080   2.848   4.794   7.577 -0.0205  0.6747 -1.1047
14404SOL    HW245081   2.976   4.731   7.525  0.9993  0.3981  1.5721
14405SOL     OW45082   7.222   8.628   1.330  0.3084  0.3429  0.3410
14405SOL    HW145083   7.295   8.579   1.369  0.5734  1.7695  1.7342
14405SOL    HW245084   7.256   8.658   1.246  0.0805 -1.9208 -0.6482
14406SOL     OW45085   1.997   7.203   6.858  0.2982 -0.6635  0.1115
14406SOL    HW145086   1.912   7.166   6.834 -0.3227  0.1727  0.9036
14406SOL    HW245087   2.054   7.184   6.784 -0.2342 -2.3158  0.0798
14407SOL     OW45088   2.419   1.913   8.523 -0.4960 -0.2403  0.7002
14407SOL    HW145089   2.433   1.855   8.448 -1.4119  1.6977 -1.0650
14407SOL    HW245090   2.472   1.990   8.505 -1.0902  0.4629  1.8130
14408SOL     OW45091   6.492   2.236   1.904 -0.5271  0.1344  0.3911
14408SOL    HW145092   6.443   2.310   1.941  1.3098  1.0910  1.0615
14408SOL    HW245093   6.574   2.275   1.874 -0.8875 -1.0739 -2.4456
14409SOL     OW45094   7.014   8.989   6.352 -0.1442 -0.5244  0.3218
14409SOL    HW145095   6.941   8.956   6.300 -1.4682 -0.5779  2.0981
14409SOL    HW245096   7.065   8.912   6.375 -0.3867 -0.6889  0.3049
14410SOL     OW45097   4.694   4.671   0.833  0.1055 -0.1129 -0.3834
14410SOL    HW145098   4.732   4.645   0.917  1.7693 -0.0347 -1.0659
14410SOL    HW245099   4.617   4.615   0.823  1.2297 -1.8487  0.0998
14411SOL     OW45100   5.053   8.126   5.477 -0.3113  0.4563 -0.0997
14411SOL    HW145101   5.010   8.080   5.549 -0.9683 -0.3186 -0.9613
14411SOL    HW245102   5.122   8.067   5.448 -1.0423  0.0611 -1.0940
14412SOL     OW45103   6.445   5.403   7.881  0.1370 -0.8964  0.8869
14412SOL    HW145104   6.430   5.454   7.960  0.1657 -0.0743  0.3795
14412SOL    HW245105   6.540   5.397   7.874  0.1309 -1.1744  1.0424
14413SOL     OW45106   7.648   2.698   4.513  0.0992  0.7174  0.1607
14413SOL    HW145107   7.634   2.756   4.438 -1.1286  1.5042  0.9729
14413SOL    HW245108   7.578   2.634   4.507  0.4255  0.3484  0.2493
14414SOL     OW45109   5.126   1.750   3.829  0.0060 -0.8263 -0.3832
14414SOL    HW145110   5.133   1.839   3.796  2.1186 -0.6973  0.2620
14414SOL    HW245111   5.156   1.756   3.920 -0.7392 -2.0450 -0.0333
14415SOL     OW45112   1.831   3.540   8.352 -0.0476 -0.1153 -0.3720
14415SOL    HW145113   1.858   3.588   8.274  1.7690  0.9765  0.8563
14415SOL    HW245114   1.903   3.552   8.414 -0.9662 -1.8067  1.1272
14416SOL     OW45115   6.994   6.481   2.960  0.2120 -0.0121 -0.0287
14416SOL    HW145116   7.085   6.458   2.981 -0.0818 -1.4737 -0.2503
14416SOL    HW245117   6.954   6.498   3.045  0.5391  0.0017  0.1248
14417SOL     OW45118   7.655   5.364   5.306  0.2002  0.8420  0.2063
14417SOL    HW145119   7.688   5.401   5.224 -0.4660  0.0685 -0.4233
14417SOL    HW245120   7.722   5.300   5.331  0.8184  1.6750  0.7239
14418SOL     OW45121   8.331   6.961   1.015  0.0947  0.4762  0.0802
14418SOL    HW145122   8.270   7.034   1.009  0.2152  0.6960  1.2508
14418SOL    HW245123   8.298   6.897   0.953  0.4307  1.8281 -1.5866
14419SOL     OW45124   6.861   6.772   8.313 -0.1354 -0.0266 -0.3029
14419SOL    HW145125   6.866   6.864   8.288 -0.6301 -0.1514 -0.8837
14419SOL    HW245126   6.929   6.729   8.262  0.8422  0.1808  0.7926
14420SOL     OW45127   4.611   6.605   6.586 -0.2052  0.2738  0.6085
14420SOL    HW145128   4.687   6.551   6.564  0.2204  1.1428 -0.0881
14420SOL    HW245129   4.647   6.692   6.601 -1.3629  1.5419 -3.0005
14421SOL     OW45130   4.788   1.352   5.365 -0.0664  0.3138 -0.8588
14421SOL    HW145131   4.801   1.434   5.316 -0.9114  1.3019  0.5112
14421SOL    HW245132   4.694   1.349   5.383  0.1248 -0.3600  0.1197
14422SOL     OW45133   7.226   1.059   1.092 -0.3525  0.4091 -0.3763
14422SOL    HW145134   7.252   1.151   1.090 -0.8199  0.5512 -0.1845
14422SOL    HW245135   7.131   1.061   1.083 -0.1598 -0.2125 -3.6253
14423SOL     OW45136   3.633   8.942   4.254 -0.1373  0.1542  0.0950
14423SOL    HW145137   3.639   9.016   4.315  1.8308  1.4249 -1.5248
14423SOL    HW245138   3.698   8.879   4.286  1.0664  0.9241 -0.7576
14424SOL     OW45139   2.192   3.330   6.042 -0.5808 -0.1895  0.1416
14424SOL    HW145140   2.104   3.295   6.024  0.0903 -1.1492 -1.5321
14424SOL    HW245141   2.237   3.326   5.958  0.6814  1.5197  0.6714
14425SOL     OW45142   1.297   5.914   4.586  0.4603  0.7909 -0.4948
14425SOL    HW145143   1.212   5.869   4.583  1.5210 -1.2711 -1.7651
14425SOL    HW245144   1.303   5.959   4.502  0.8005  0.5424 -0.6077
14426SOL     OW45145   4.481   2.145   5.528  0.2000 -0.1156 -0.5071
14426SOL    HW145146   4.564   2.101   5.545 -0.5393 -1.1871  0.5429
14426SOL    HW245147   4.416   2.091   5.574 -1.1145  0.5273 -1.5446
14427SOL     OW45148   1.089   1.102   1.251 -0.7942 -0.1269  0.1596
14427SOL    HW145149   1.070   1.130   1.161 -1.0270  1.0859  0.5743
14427SOL    HW245150   1.013   1.050   1.276 -0.7471 -0.4386 -0.3176
14428SOL     OW45151   5.742   6.491   7.963 -0.3255  0.4163 -0.1482
14428SOL    HW145152   5.827   6.493   7.918  0.5282 -0.2684  1.3451
14428SOL    HW245153   5.764   6.472   8.055 -1.8978  2.6134  0.7784
14429SOL     OW45154   5.971   2.256   8.289  0.4475  0.0453 -0.2747
14429SOL    HW145155   5.999   2.166   8.270 -1.0802 -0.4505 -0.3193
14429SOL    HW245156   5.988   2.267   8.382 -0.1729 -0.6207 -0.0687
14430SOL     OW45157   7.023   5.942   4.110  0.0580  0.5699 -0.4645
14430SOL    HW145158   7.019   5.852   4.143 -1.5216  0.6644 -0.3615
14430SOL    HW245159   7.110   5.949   4.070  0.3675 -0.8581 -0.0754
14431SOL     OW45160   8.312   2.709   6.640 -0.0529 -0.9751  0.4139
14431SOL    HW145161   8.292   2.800   6.664  1.1105 -0.5270 -0.2227
14431SOL    HW245162   8.277   2.657   6.712  0.6212  0.0954  1.5583
14432SOL     OW45163   5.530   5.214   4.058  0.2221 -0.3074  0.0188
14432SOL    HW145164   5.438   5.210   4.085 -0.1608  1.3419 -0.8974
14432SOL    HW245165   5.528   5.250   3.970  1.7706  0.0550  0.0968
14433SOL     OW45166   3.079   7.429   4.193 -0.3031 -0.0448 -0.3016
14433SOL    HW145167   3.125   7.388   4.266 -0.8739 -0.1468  0.0122
14433SOL    HW245168   2.986   7.425   4.218 -0.3024  3.1216  0.6268
14434SOL     OW45169   4.165   3.454   7.393 -0.2125  0.0594 -0.1007
14434SOL    HW145170   4.107   3.412   7.457 -1.0863 -0.5043 -1.2202
14434SOL    HW245171   4.134   3.544   7.388 -1.2505 -0.3250 -0.9437
14435SOL     OW45172   4.892   6.269   3.388 -0.3820  0.1037 -0.0470
14435SOL    HW145173   4.876   6.359   3.359  0.4656 -0.0192 -0.9389
14435SOL    HW245174   4.901   6.219   3.307 -1.4955 -0.9219  0.4303
14436SOL     OW45175   7.071   1.083   8.889 -0.2521  0.5381  0.0757
14436SOL    HW145176   7.063   1.165   8.840 -1.5596  0.5048  0.1935
14436SOL    HW245177   7.115   1.023   8.829  1.5305  1.5625  0.3037
14437SOL     OW45178   5.129   0.402   7.626 -0.0401 -0.4573  0.0649
14437SOL    HW145179   5.127   0.345   7.549  0.3065  1.1815 -1.2006
14437SOL    HW245180   5.041   0.398   7.661 -0.9422  0.7007 -1.9065
14438SOL     OW45181   0.692   8.426   0.066  0.0383  0.6668 -0.4660
14438SOL    HW145182   0.630   8.447   0.136  0.0651  1.6814 -0.7274
14438SOL    HW245183   0.670   8.337   0.040 -1.2641  0.9884 -0.5111
14439SOL     OW45184   2.098   3.622   8.451  0.0605 -0.2358 -1.0097
14439SOL    HW145185   2.122   3.694   8.392 -1.1308  0.8323 -0.2467
14439SOL    HW245186   2.053   3.665   8.524  0.0439 -1.6893 -0.1245
14440SOL     OW45187   8.249   8.455   5.429 -0.4498 -0.0943 -0.5806
14440SOL    HW145188   8.294   8.377   5.463 -0.6744 -0.5846 -1.3688
14440SOL    HW245189   8.276   8.526   5.488  0.7596 -0.5143 -0.5898
14441SOL     OW45190   5.690   6.068   8.938  0.6524 -0.0476 -0.3320
14441SOL    HW145191   5.663   5.982   8.906 -0.9295 -0.8336  2.6565
14441SOL    HW245192   5.707   6.054   9.031 -0.9017  3.0820  0.5680
14442SOL     OW45193   6.856   7.290   3.578 -0.3013  0.4753 -0.3977
14442SOL    HW145194   6.885   7.368   3.624 -0.7343  0.1456  0.4537
14442SOL    HW245195   6.882   7.305   3.487  1.9202  0.4661  0.1954
14443SOL     OW45196   4.182   7.790   1.999  0.0833  0.4383 -0.5724
14443SOL    HW145197   4.193   7.876   2.040 -1.4912  1.0251 -1.3054
14443SOL    HW245198   4.245   7.734   2.044  0.6210  1.7974  0.4376
14444SOL     OW45199   1.753   3.551   7.456  0.6160  0.3184 -0.3589
14444SOL    HW145200   1.796   3.467   7.448 -0.0941 -0.0573 -0.3011
14444SOL    HW245201   1.819   3.615   7.428  1.0230 -0.2828 -0.7864
14445SOL     OW45202   8.830   5.752   2.000  0.4963 -0.1778  0.2560
14445SOL    HW145203   8.789   5.668   1.983 -1.7915  1.1709 -1.5118
14445SOL    HW245204   8.914   5.748   1.954  0.4880 -1.5197  0.3379
14446SOL     OW45205   4.435   8.027   8.366  0.2651 -0.5634 -0.7700
14446SOL    HW145206   4.520   8.010   8.325 -0.5311 -1.9856 -1.9222
14446SOL    HW245207   4.374   7.967   8.322 -1.1541 -0.2999  0.7200
14447SOL     OW45208   1.275   0.262   8.483 -0.6693 -0.2731  0.5352
14447SOL    HW145209   1.335   0.323   8.527 -0.6081 -0.7036  1.0529
14447SOL    HW245210   1.196   0.314   8.468 -0.8298 -0.2088  1.4871
14448SOL     OW45211   0.199   7.256   0.081  0.1852 -0.1917 -0.1934
14448SOL    HW145212   0.203   7.164   0.108 -2.2740 -0.0511  0.8745
14448SOL    HW245213   0.112   7.266   0.044 -0.2258  2.0512  1.1857
14449SOL     OW45214   6.662   8.242   6.274  0.5091 -0.4189 -0.1130
14449SOL    HW145215   6.714   8.308   6.319 -0.0285 -1.6903  2.6136
14449SOL    HW245216   6.582   8.235   6.327  1.0573 -4.0282  0.4588
14450SOL     OW45217   7.066   2.246   7.256 -0.4869  0.3571 -0.1645
14450SOL    HW145218   7.155   2.221   7.279 -1.0751 -1.5371  0.2443
14450SOL    HW245219   7.023   2.262   7.340 -1.1279 -1.0509 -0.1918
14451SOL     OW45220   3.351   5.640   8.958  0.8031  0.9482 -0.0953
14451SOL    HW145221   3.388   5.578   9.021 -0.2221  0.9621  0.5407
14451SOL    HW245222   3.314   5.710   9.012 -2.7779 -0.4545 -0.4665
14452SOL     OW45223   1.799   5.789   3.785  0.1672  0.7124 -0.4260
14452SOL    HW145224   1.739   5.817   3.854  0.5926  0.0026  0.2464
14452SOL    HW245225   1.744   5.739   3.725 -0.0200  0.4955 -0.0776
14453SOL     OW45226   2.660   8.638   5.967 -0.2908  0.0430  0.0233
14453SOL    HW145227   2.594   8.708   5.968  0.2894  0.7355 -2.3935
14453SOL    HW245228   2.653   8.597   6.053 -1.5008  2.2794  1.0853
14454SOL     OW45229   5.407   6.184   0.453 -0.2152  0.3781 -0.2617
14454SOL    HW145230   5.456   6.266   0.452  2.8782 -1.3437 -0.2459
14454SOL    HW245231   5.392   6.165   0.546  0.3843  0.2028 -0.1992
14455SOL     OW45232   0.973   2.588   1.263  0.2281  0.0372 -0.8811
14455SOL    HW145233   0.992   2.569   1.171  0.5438  0.0724 -0.8224
14455SOL    HW245234   1.045   2.644   1.292 -0.2791  0.6763 -0.8305
14456SOL     OW45235   8.410   4.566   3.717  0.1765 -0.2324 -0.0157
14456SOL    HW145236   8.430   4.654   3.746  0.2237 -0.5492  0.9591
14456SOL    HW245237   8.467   4.510   3.769 -1.1794 -0.9584  0.7344
14457SOL     OW45238   5.949   2.883   8.842 -0.0150  0.4927 -0.2222
14457SOL    HW145239   5.915   2.809   8.893 -1.5444  1.3873  0.1251
14457SOL    HW245240   5.963   2.847   8.755  0.2978 -0.4706  0.2158
14458SOL     OW45241   2.741   1.427   1.341  0.6156 -0.6597 -0.7297
14458SOL    HW145242   2.782   1.366   1.402 -0.7038 -0.6544  0.2067
14458SOL    HW245243   2.774   1.513   1.369 -1.2396 -0.4766  1.1066
14459SOL     OW45244   6.024   6.995   0.451  0.2776 -0.2079  0.2887
14459SOL    HW145245   5.946   6.963   0.495  0.1222  0.6638  0.6640
14459SOL    HW245246   6.062   7.058   0.512  1.7048 -1.1671  0.4521
14460SOL     OW45247   8.324   0.887   7.184  0.0705 -0.5959  0.6731
14460SOL    HW145248   8.342   0.978   7.161  2.2820 -1.4735 -1.5757
14460SOL    HW245249   8.229   0.885   7.200 -0.0199  2.1033  1.0277
14461SOL     OW45250   2.978   4.273   1.151  0.3180 -0.0599 -0.0291
14461SOL    HW145251   3.040   4.205   1.176  0.8084  0.5930  0.5840
14461SOL    HW245252   2.895   4.228   1.142  0.4863 -0.6325  1.0943
14462SOL     OW45253   8.692   8.038   4.611 -0.1385  0.1794  0.4401
14462SOL    HW145254   8.609   8.082   4.590 -0.1730 -0.4653 -0.8333
14462SOL    HW245255   8.697   8.043   4.707 -1.1313  1.1477  0.4682
14463SOL     OW45256   5.350   8.883   3.012 -0.0523 -1.0326  0.1671
14463SOL    HW145257   5.400   8.838   3.080  1.3166 -2.3967 -1.6620
14463SOL    HW245258   5.346   8.821   2.939 -1.0690  0.5383 -1.1914
14464SOL     OW45259   5.982   8.780   3.692 -0.2847  0.4193 -0.2549
14464SOL    HW145260   5.905   8.829   3.666 -0.5895  0.4185  0.6052
14464SOL    HW245261   6.053   8.845   3.695 -0.8698  1.0610  1.7743
14465SOL     OW45262   8.052   2.388   2.774  0.1482 -0.0756 -0.1821
14465SOL    HW145263   8.018   2.477   2.772  1.9115  0.6599  0.2365
14465SOL    HW245264   8.101   2.378   2.693 -0.3466 -0.8127 -0.4051
14466SOL     OW45265   8.369   1.194   3.458  0.0373 -0.3024  0.4183
14466SOL    HW145266   8.365   1.143   3.539 -1.1809 -0.2056  0.4427
14466SOL    HW245267   8.348   1.130   3.389  0.3375 -0.2297  0.2612
14467SOL     OW45268   3.735   8.691   3.249 -0.2117  0.2014 -0.6816
14467SOL    HW145269   3.704   8.777   3.219 -1.2946 -0.8362 -2.7450
14467SOL    HW245270   3.721   8.693   3.343 -2.2641  1.5337 -0.9419
14468SOL     OW45271   4.289   7.415   3.427  0.1150 -0.1351  0.3662
14468SOL    HW145272   4.215   7.392   3.371 -0.2180 -2.2239  1.5425
14468SOL    HW245273   4.366   7.401   3.372 -0.2781 -0.3379 -0.1331
14469SOL     OW45274   3.101   5.030   0.890 -0.3235  0.5446  0.2221
14469SOL    HW145275   3.183   5.069   0.860  0.0206 -1.6448 -2.0263
14469SOL    HW245276   3.036   5.100   0.883  1.0490  1.8933  0.6228
14470SOL     OW45277   8.446   5.113   6.221 -0.4276  0.5164  0.3192
14470SOL    HW145278   8.415   5.128   6.310  2.1182 -0.5774  1.4871
14470SOL    HW245279   8.505   5.038   6.228 -1.2885 -0.5571 -2.5871
14471SOL     OW45280   5.238   3.920   0.325  0.4731 -0.7407  0.6463
14471SOL    HW145281   5.295   3.996   0.335  0.7067 -0.9173  0.6728
14471SOL    HW245282   5.181   3.923   0.402  0.0282 -0.2171  0.3035
14472SOL     OW45283   3.728   8.947   1.355  0.3116  0.2548 -0.4922
14472SOL    HW145284   3.784   8.873   1.379 -1.1181 -0.4487  0.8575
14472SOL    HW245285   3.720   8.941   1.260  0.0784 -1.4593 -0.3869
14473SOL     OW45286   0.728   1.945   3.348  0.2699 -0.1374  0.8482
14473SOL    HW145287   0.819   1.957   3.322  0.8003 -2.3522  1.5103
14473SOL    HW245288   0.714   2.009   3.418  1.8464 -0.9039  1.9119
14474SOL     OW45289   5.786   3.728   2.811  0.4048  0.2642  0.3863
14474SOL    HW145290   5.790   3.695   2.721 -1.7745 -0.0596  0.3597
14474SOL    HW245291   5.816   3.654   2.864 -0.1713 -0.2321  0.0347
14475SOL     OW45292   6.692   3.057   4.162 -0.0039 -0.7827 -0.1677
14475SOL    HW145293   6.693   3.076   4.256 -0.9483  3.4578 -0.7827
14475SOL    HW245294   6.601   3.073   4.136  0.7263  0.6338 -2.1089
14476SOL     OW45295   3.608   5.553   2.783  0.2389 -0.5064 -0.1592
14476SOL    HW145296   3.699   5.585   2.787 -0.0595  0.2179  2.1517
14476SOL    HW245297   3.617   5.460   2.763  1.6968 -1.0392  2.5410
14477SOL     OW45298   2.840   2.032   7.645 -0.4469  0.3263 -0.5639
14477SOL    HW145299   2.919   2.030   7.699 -0.1412  1.4169 -0.9410
14477SOL    HW245300   2.771   2.000   7.703  0.1781 -0.1324 -0.0619
14478SOL     OW45301   8.377   7.478   2.648  0.3426  0.2386  0.2787
14478SOL    HW145302   8.309   7.545   2.642  1.2977  1.1236 -1.4384
14478SOL    HW245303   8.335   7.397   2.619 -0.5633  0.2545  1.4729
14479SOL     OW45304   5.492   0.363   7.213 -0.0230 -0.1185  0.8818
14479SOL    HW145305   5.581   0.365   7.250  0.7529 -3.3544 -0.5092
14479SOL    HW245306   5.437   0.329   7.284  0.2678 -0.2761  1.0334
14480SOL     OW45307   2.476   8.078   5.805 -0.5597 -0.0229  0.5112
14480SOL    HW145308   2.482   8.042   5.894  0.4251 -0.2101  0.3737
14480SOL    HW245309   2.565   8.071   5.770 -0.9324  0.0857 -0.4799
14481SOL     OW45310   8.870   7.868   8.299  0.0555 -0.3272 -0.4760
14481SOL    HW145311   8.920   7.933   8.349 -0.7129  0.4065 -0.6481
14481SOL    HW245312   8.787   7.911   8.278 -0.2579 -1.1751 -1.0596
14482SOL     OW45313   0.894   8.193   1.832 -0.1871  0.1397  0.0331
14482SOL    HW145314   0.976   8.147   1.812 -0.2161 -1.5492  3.1410
14482SOL    HW245315   0.826   8.128   1.817 -0.9068  1.1696 -1.3999
14483SOL     OW45316   6.771   0.661   1.368  0.6083 -0.0448  0.1796
14483SOL    HW145317   6.805   0.734   1.421  1.3016  0.2602 -0.6618
14483SOL    HW245318   6.807   0.676   1.281  0.2150 -1.0421 -0.1677
14484SOL     OW45319   3.825   3.166   4.928  0.3099  0.0325  0.0243
14484SOL    HW145320   3.863   3.220   4.858 -2.0268  0.4963 -0.9786
14484SOL    HW245321   3.759   3.113   4.884 -0.2315 -0.7220  1.6685
14485SOL     OW45322   8.846   3.838   7.747  0.3874  0.5895 -0.5129
14485SOL    HW145323   8.884   3.791   7.673  0.5597 -1.5648  0.8567
14485SOL    HW245324   8.915   3.839   7.814 -0.7096 -0.2394  0.7021
14486SOL     OW45325   2.097   8.022   7.811 -0.5128 -0.0691  0.5617
14486SOL    HW145326   2.152   8.069   7.873  1.8019  1.0543 -2.1384
14486SOL    HW245327   2.098   7.932   7.842 -1.4340  0.7691  3.3868
14487SOL     OW45328   5.545   1.219   8.141  0.2085 -0.1692  0.9653
14487SOL    HW145329   5.588   1.185   8.062  1.5997  0.9212  1.2032
14487SOL    HW245330   5.549   1.147   8.203  0.7294 -0.4464  0.6158
14488SOL     OW45331   5.179   2.591   4.549  0.0480 -0.4582  0.1116
14488SOL    HW145332   5.108   2.539   4.588 -0.1993  0.3509  0.7797
14488SOL    HW245333   5.244   2.598   4.619  1.7904 -2.9242 -1.1270
14489SOL     OW45334   5.704   7.835   6.882  0.4433  0.5522 -0.0813
14489SOL    HW145335   5.781   7.781   6.867  0.1157 -0.1178  0.6010
14489SOL    HW245336   5.671   7.808   6.968  0.3116  1.8816  0.3173
14490SOL     OW45337   5.250   6.067   6.689 -0.1977 -0.0401 -0.0107
14490SOL    HW145338   5.283   6.048   6.602 -0.9767  0.3417 -0.3948
14490SOL    HW245339   5.172   6.120   6.675  0.8824  1.9427  0.9739
14491SOL     OW45340   1.699   1.345   4.797 -0.3836  0.2657  0.3332
14491SOL    HW145341   1.623   1.400   4.815 -0.2147  0.8064 -0.5245
14491SOL    HW245342   1.775   1.400   4.815 -0.1869 -0.2295  1.0602
14492SOL     OW45343   5.709   0.027   2.724  0.3531 -0.1826  0.0461
14492SOL    HW145344   5.644  -0.043   2.726  1.5833 -1.4549 -1.4996
14492SOL    HW245345   5.719   0.049   2.632  3.8751 -1.9077 -0.1844
14493SOL     OW45346   4.376   7.468   6.311  0.1437 -0.4555 -0.0088
14493SOL    HW145347   4.432   7.395   6.338 -0.1277 -0.0122  1.9427
14493SOL    HW245348   4.434   7.545   6.313 -0.0148 -0.3314 -0.1702
14494SOL     OW45349   0.956   5.339   2.108 -0.2915  0.3265 -0.7741
14494SOL    HW145350   1.030   5.286   2.135  0.5970  1.0682 -1.6330
14494SOL    HW245351   0.885   5.277   2.093  0.7267 -0.6461 -1.8026
14495SOL     OW45352   3.638   4.970   2.270  0.2632  0.6271  0.0540
14495SOL    HW145353   3.682   5.055   2.274  0.0280  0.7332  0.4769
14495SOL    HW245354   3.704   4.910   2.237  0.2926  1.0661 -0.7116
14496SOL     OW45355   4.662   3.666   5.370  0.1596  0.1238  0.2778
14496SOL    HW145356   4.665   3.755   5.403  2.8163 -0.0736  0.7768
14496SOL    HW245357   4.723   3.617   5.425 -1.0776 -1.9946 -0.0960
14497SOL     OW45358   5.628   7.283   4.279  0.2925 -0.1458  0.0638
14497SOL    HW145359   5.638   7.193   4.310  1.7313  0.1102  0.4257
14497SOL    HW245360   5.705   7.298   4.224 -1.7668 -0.3169 -3.1190
14498SOL     OW45361   2.190   8.036   7.122  0.0580  0.4005 -0.0584
14498SOL    HW145362   2.120   8.048   7.058 -1.6234 -0.8912  1.4279
14498SOL    HW245363   2.176   8.105   7.187 -0.3366 -0.3193  0.6389
14499SOL     OW45364   3.956   4.463   2.721  0.1979 -0.2882 -0.0849
14499SOL    HW145365   3.882   4.503   2.676  2.1660  2.6456 -0.9698
14499SOL    HW245366   3.978   4.387   2.666  0.5537  1.3777 -2.4232
14500SOL     OW45367   1.818   4.502   0.385  1.0762 -0.7559  0.3239
14500SOL    HW145368   1.786   4.574   0.330 -1.3904 -2.5205 -0.7254
14500SOL    HW245369   1.803   4.531   0.474  2.3737  0.9502  0.0440
14501SOL     OW45370   0.825   1.340   8.152 -0.5011  0.1918 -0.1707
14501SOL    HW145371   0.838   1.400   8.078 -0.4223  0.6821  0.2302
14501SOL    HW245372   0.898   1.279   8.147  0.3753  1.1609  0.3798
14502SOL     OW45373   2.649   6.945   0.537 -0.3731  0.0002  0.1520
14502SOL    HW145374   2.585   7.014   0.526  1.0954  1.5724  1.0110
14502SOL    HW245375   2.620   6.875   0.478 -2.4220  0.9364 -0.0112
14503SOL     OW45376   6.696   2.394   2.066  0.0560 -0.2696  0.0722
14503SOL    HW145377   6.768   2.333   2.078  0.7226  0.4470 -0.1902
14503SOL    HW245378   6.628   2.363   2.126  0.9087 -0.4496  0.9712
14504SOL     OW45379   7.850   1.363   1.304  0.1003  0.2335  0.1440
14504SOL    HW145380   7.779   1.304   1.277 -1.3146  1.5873  0.7424
14504SOL    HW245381   7.806   1.446   1.321  1.7939  0.9935  0.9900
14505SOL     OW45382   1.367   6.603   8.307  0.0115  0.4289  0.1734
14505SOL    HW145383   1.281   6.645   8.316 -0.1345 -0.3066  3.2787
14505SOL    HW245384   1.366   6.566   8.219 -2.9945  0.1501  0.2225
14506SOL     OW45385   7.054   0.342   5.423 -0.4239  0.8239 -0.4651
14506SOL    HW145386   7.036   0.435   5.409 -1.6208  0.5743 -0.6720
14506SOL    HW245387   6.973   0.308   5.462 -0.7047 -0.5005 -2.0908
14507SOL     OW45388   1.412   8.013   5.737 -0.7404  0.0249  0.4133
14507SOL    HW145389   1.324   7.979   5.722 -0.3456 -0.0417 -2.2258
14507SOL    HW245390   1.465   7.934   5.753 -0.8183 -0.0899  0.0998
14508SOL     OW45391   6.522   0.648   4.848 -0.1501  0.0791  0.2946
14508SOL    HW145392   6.512   0.670   4.756 -0.0416 -0.5390  0.1254
14508SOL    HW245393   6.476   0.564   4.857 -0.9515  0.5805  1.0032
14509SOL     OW45394   2.927   6.406   0.423 -0.1626 -0.1680 -0.1417
14509SOL    HW145395   2.967   6.319   0.411 -0.1063 -0.2615  0.6698
14509SOL    HW245396   2.854   6.390   0.483  1.9003  0.8485  2.8804
14510SOL     OW45397   7.104   1.316   8.759  0.5632  0.1033 -0.1211
14510SOL    HW145398   7.140   1.387   8.812 -0.4400  0.5862 -0.0660
14510SOL    HW245399   7.017   1.346   8.734  0.2555 -0.9620 -0.3961
14511SOL     OW45400   5.015   8.994   1.602 -0.1878  0.5122  0.3017
14511SOL    HW145401   5.106   8.972   1.623 -0.0384  2.0354  1.4356
14511SOL    HW245402   5.021   9.058   1.532 -0.4105  0.3210  0.1057
14512SOL     OW45403   3.556   8.255   8.415 -0.0061  0.0447 -0.5886
14512SOL    HW145404   3.523   8.245   8.504 -0.8351  1.7778 -0.6615
14512SOL    HW245405   3.582   8.167   8.389 -1.9590 -0.9116  0.5019
14513SOL     OW45406   4.562   0.679   0.201  0.3231 -0.4208  0.5698
14513SOL    HW145407   4.646   0.723   0.210 -0.0067  0.7403 -1.5664
14513SOL    HW245408   4.582   0.597   0.156  0.4032 -0.5705  0.8714
14514SOL     OW45409   4.497   5.612   5.721 -0.3666 -0.2012  0.1721
14514SOL    HW145410   4.462   5.625   5.633 -0.8961 -1.0839  0.2440
14514SOL    HW245411   4.445   5.541   5.757  0.5683 -0.5751  0.8076
14515SOL     OW45412   7.427   5.898   6.153  0.0658 -0.0951 -0.0332
14515SOL    HW145413   7.491   5.827   6.163  1.1585  0.8215 -0.2663
14515SOL    HW245414   7.354   5.857   6.106  1.4266 -0.6854 -1.7954
14516SOL     OW45415   8.768   7.393   2.099 -0.3060  0.4909 -0.1732
14516SOL    HW145416   8.711   7.331   2.145  0.6656 -1.3743 -1.3547
14516SOL    HW245417   8.816   7.438   2.169 -3.3184  2.3584  0.8819
14517SOL     OW45418   2.497   3.561   4.611  0.6593 -0.2625 -0.8125
14517SOL    HW145419   2.415   3.549   4.658  0.5745 -0.3361 -0.9782
14517SOL    HW245420   2.512   3.656   4.614  0.4064 -0.2139 -1.0562
14518SOL     OW45421   7.062   4.512   1.638 -0.4612 -0.3041 -0.7286
14518SOL    HW145422   7.048   4.553   1.724  1.8165 -1.7642  0.4542
14518SOL    HW245423   7.150   4.540   1.613 -1.2594  0.4432 -2.8486
14519SOL     OW45424   1.883   2.933   0.625  0.0277  0.1805 -0.3187
14519SOL    HW145425   1.920   2.914   0.711 -0.9117 -0.5110 -0.0408
14519SOL    HW245426   1.926   3.013   0.597  1.5522 -0.4656  0.0664
14520SOL     OW45427   1.866   3.309   0.823  0.3546 -0.0022  0.1615
14520SOL    HW145428   1.854   3.306   0.728  0.7326  0.4925  0.0908
14520SOL    HW245429   1.960   3.325   0.835  0.1915  0.6613  0.6024
14521SOL     OW45430   6.589   1.940   4.795  0.0206  0.6951 -0.1968
14521SOL    HW145431   6.604   1.891   4.875  0.8339  0.3339 -0.5641
14521SOL    HW245432   6.494   1.947   4.789 -0.1145 -0.7720 -0.1006
14522SOL     OW45433   8.014   7.140   1.393  0.3957 -0.1362  0.5258
14522SOL    HW145434   7.947   7.078   1.365  0.0308  1.4485 -2.4717
14522SOL    HW245435   8.079   7.086   1.437 -1.2311 -2.2034  0.5404
14523SOL     OW45436   2.686   6.477   3.848 -0.3596 -0.2741  0.0895
14523SOL    HW145437   2.666   6.554   3.795 -1.0839 -0.2420  0.4010
14523SOL    HW245438   2.603   6.430   3.855  0.0371 -0.9877  0.0579
14524SOL     OW45439   8.968   0.824   5.186  0.0547  0.3956 -0.3665
14524SOL    HW145440   9.058   0.792   5.192  0.2731  0.9553 -0.5947
14524SOL    HW245441   8.969   0.909   5.230 -0.6522 -0.1501  0.7492
14525SOL     OW45442   8.954   3.834   4.755 -0.4024  0.3336 -0.0423
14525SOL    HW145443   8.975   3.842   4.663  1.4182  0.9220  0.3849
14525SOL    HW245444   8.950   3.924   4.788 -1.0134  0.1339  0.4618
14526SOL     OW45445   6.056   4.743   8.349  0.3889 -0.1538  0.0442
14526SOL    HW145446   6.012   4.660   8.366 -1.5399  0.7910 -0.1419
14526SOL    HW245447   6.122   4.749   8.419 -0.7361 -0.9598  1.2226
14527SOL     OW45448   3.304   6.918   4.041  0.2619 -0.2739  0.2053
14527SOL    HW145449   3.394   6.950   4.047 -0.1174  0.7052  0.9683
14527SOL    HW245450   3.304   6.836   4.090  0.6690 -0.1090  0.4855
14528SOL     OW45451   5.093   6.879   2.352  0.0341 -0.5715 -0.7611
14528SOL    HW145452   5.076   6.840   2.266 -1.0068  0.2301 -0.9279
14528SOL    HW245453   5.161   6.944   2.335  0.8517 -1.3767 -0.7056
14529SOL     OW45454   1.948   0.820   1.985 -0.0081  0.2625  0.2414
14529SOL    HW145455   1.892   0.755   2.028  0.1984 -1.6958 -2.2140
14529SOL    HW245456   2.037   0.792   2.004  0.1202  1.0603  0.8652
14530SOL     OW45457   2.475   4.486   5.450  0.4297 -0.3141  0.5032
14530SOL    HW145458   2.461   4.526   5.536 -0.1232  1.7464 -0.4786
14530SOL    HW245459   2.476   4.560   5.389  2.0904 -1.5779 -1.1414
14531SOL     OW45460   2.155   3.334   8.386 -0.6657  0.0964  0.1168
14531SOL    HW145461   2.248   3.332   8.364 -0.7487  1.5255 -0.4930
14531SOL    HW245462   2.133   3.427   8.388 -1.9350 -0.1930  0.9274
14532SOL     OW45463   0.185   8.417   7.426 -0.0836 -0.4207  0.3392
14532SOL    HW145464   0.188   8.477   7.500  1.5342  0.5399 -0.4685
14532SOL    HW245465   0.276   8.390   7.413 -0.7697 -3.3779  0.8976
14533SOL     OW45466   2.307   3.427   1.229  0.4247  0.1418 -0.1492
14533SOL    HW145467   2.230   3.462   1.185 -0.0449  0.3978  0.8408
14533SOL    HW245468   2.342   3.361   1.169 -0.9038 -0.3912 -0.3736
14534SOL     OW45469   4.684   3.169   7.380  0.6289  0.0947  0.3471
14534SOL    HW145470   4.665   3.127   7.297  0.8648 -1.3853  0.9975
14534SOL    HW245471   4.780   3.179   7.381  0.5209  1.3109 -0.0886
14535SOL     OW45472   7.987   5.988   5.852 -0.3178 -0.7043 -0.0356
14535SOL    HW145473   7.957   6.021   5.937 -1.0759 -1.8185  0.1463
14535SOL    HW245474   7.931   6.033   5.788 -0.8100 -1.0247  0.1626
14536SOL     OW45475   8.751   0.973   4.127 -0.6218  0.4358 -0.2376
14536SOL    HW145476   8.818   1.041   4.132  1.4407 -1.3298 -1.7444
14536SOL    HW245477   8.675   1.016   4.087 -0.1697  2.3271  0.8526
14537SOL     OW45478   5.811   5.485   8.790  0.0378  0.2198 -0.5139
14537SOL    HW145479   5.819   5.578   8.765  1.0418  0.3999  0.3941
14537SOL    HW245480   5.724   5.479   8.830  0.7431  1.2923  1.3471
14538SOL     OW45481   4.819   6.421   6.528 -0.0399  0.0403 -1.1746
14538SOL    HW145482   4.788   6.335   6.497 -2.0649  0.9868 -1.9944
14538SOL    HW245483   4.860   6.460   6.451 -0.4500  0.3659 -1.2335
14539SOL     OW45484   5.922   4.449   3.928 -0.6464 -0.1518  0.2716
14539SOL    HW145485   5.943   4.371   3.980  1.9627  0.5590  0.4336
14539SOL    HW245486   5.848   4.489   3.974 -1.1342 -1.7718  0.9843
14540SOL     OW45487   6.107   2.894   1.147 -0.2608 -0.2168  0.0383
14540SOL    HW145488   6.086   2.808   1.110 -0.0939  0.3061 -1.3399
14540SOL    HW245489   6.152   2.874   1.229 -2.6401 -1.4007  1.1600
14541SOL     OW45490   4.933   7.298   6.994  0.1958 -0.2692 -0.3099
14541SOL    HW145491   4.921   7.284   6.900  0.1222 -1.3437 -0.1499
14541SOL    HW245492   5.007   7.242   7.018 -0.6598 -1.1059  0.5196
14542SOL     OW45493   8.936   5.859   3.761 -0.2952  0.1495  0.7268
14542SOL    HW145494   8.925   5.799   3.835 -0.7226 -0.2241  0.3731
14542SOL    HW245495   9.002   5.816   3.706 -2.1682 -1.1439 -0.6282
14543SOL     OW45496   2.515   4.595   3.370 -0.1997  0.2054 -0.2497
14543SOL    HW145497   2.568   4.541   3.312  0.9200  2.1728 -1.1537
14543SOL    HW245498   2.576   4.623   3.438 -0.7298  0.4664  0.1215
14544SOL     OW45499   8.887   5.845   5.886  0.1266 -0.1224  0.0720
14544SOL    HW145500   8.827   5.894   5.942  2.1973  1.8057  0.7561
14544SOL    HW245501   8.974   5.877   5.910  1.2233 -0.0496 -3.3897
14545SOL     OW45502   8.194   7.936   3.384 -0.0663  0.0305  0.1562
14545SOL    HW145503   8.143   7.875   3.331  0.4398  0.8006 -1.2650
14545SOL    HW245504   8.189   7.901   3.473 -1.1185 -1.1764 -0.3577
14546SOL     OW45505   1.351   8.029   4.852  0.1431 -0.1305  0.4950
14546SOL    HW145506   1.374   7.984   4.771  0.0827 -0.9833  0.9460
14546SOL    HW245507   1.337   8.120   4.825  0.3102 -0.3630 -0.4179
14547SOL     OW45508   8.587   2.681   1.697 -0.0547 -0.1816  0.4126
14547SOL    HW145509   8.522   2.628   1.652 -0.4110  0.2581  0.4008
14547SOL    HW245510   8.536   2.750   1.741  0.5107  1.2351 -1.0469
14548SOL     OW45511   6.552   0.964   0.193 -0.2959 -0.0659 -0.0996
14548SOL    HW145512   6.643   0.950   0.219  0.1823 -2.3897 -2.5169
14548SOL    HW245513   6.554   1.042   0.138 -0.3254  1.4704  1.9660
14549SOL     OW45514   5.048   7.166   7.807 -0.4289  0.2172  0.6430
14549SOL    HW145515   5.033   7.140   7.898 -1.6936 -0.2483  0.3334
14549SOL    HW245516   4.960   7.179   7.771  0.0621  0.9820 -0.3541
14550SOL     OW45517   3.585   7.529   0.215 -0.3216  0.2551 -0.3506
14550SOL    HW145518   3.574   7.479   0.134  0.8639  2.9540 -2.3132
14550SOL    HW245519   3.612   7.464   0.280  2.8906 -1.4925 -3.1457
14551SOL     OW45520   5.057   5.433   3.513  0.1429  0.3133 -0.2561
14551SOL    HW145521   4.997   5.437   3.438  0.4410 -0.3601 -0.5451
14551SOL    HW245522   5.106   5.515   3.510 -0.1600  0.4843 -0.5347
14552SOL     OW45523   2.748   8.591   4.430  0.3692 -0.0941  0.0524
14552SOL    HW145524   2.766   8.548   4.346 -2.2190 -0.3278 -0.4834
14552SOL    HW245525   2.811   8.553   4.491  0.7789 -1.6662 -1.2772
14553SOL     OW45526   1.073   5.683   0.067 -0.3116 -0.0445  0.1265
14553SOL    HW145527   1.110   5.755   0.117 -0.2552  0.3724 -0.5067
14553SOL    HW245528   1.133   5.670  -0.006 -0.0585 -1.0612  0.4939
14554SOL     OW45529   7.807   2.169   4.087 -0.2452  0.0408  0.3560
14554SOL    HW145530   7.784   2.164   3.995  1.6086 -0.7835 -0.1249
14554SOL    HW245531   7.812   2.263   4.105  0.5715  0.2381 -0.7467
14555SOL     OW45532   7.499   3.240   2.882  0.1643 -0.8112 -0.0885
14555SOL    HW145533   7.558   3.185   2.830  1.0077 -0.2297  0.2463
14555SOL    HW245534   7.426   3.182   2.903  0.5722 -1.5187 -0.5773
14556SOL     OW45535   8.706   7.793   4.129 -0.0655 -0.0377 -0.9659
14556SOL    HW145536   8.745   7.855   4.190  0.1519 -1.5216  0.4954
14556SOL    HW245537   8.633   7.840   4.089  1.3518  1.8020 -1.4966
14557SOL     OW45538   1.246   7.030   8.279 -0.3549  0.6126 -0.1184
14557SOL    HW145539   1.183   7.101   8.280 -0.5410  0.4410  0.8243
14557SOL    HW245540   1.220   6.973   8.351  0.1624 -0.0842 -0.4684
14558SOL     OW45541   4.650   4.177   8.921  0.1053 -0.4316  0.8337
14558SOL    HW145542   4.591   4.200   8.993  0.0185  1.2855  0.2526
14558SOL    HW245543   4.735   4.210   8.947  0.2431 -0.4970  0.4814
14559SOL     OW45544   4.344   5.326   8.644  0.1552 -0.1416  0.4814
14559SOL    HW145545   4.375   5.277   8.568 -1.1704  0.0021 -0.1731
14559SOL    HW245546   4.402   5.299   8.715  0.9854 -0.7929 -0.4196
14560SOL     OW45547   5.807   5.995   5.297 -0.2469 -0.3889  0.2592
14560SOL    HW145548   5.779   6.087   5.301  1.1757  0.0480  0.9025
14560SOL    HW245549   5.773   5.956   5.377 -0.6180 -0.3547  0.1197
14561SOL     OW45550   4.742   3.895   8.791  0.3842  0.1243 -0.0564
14561SOL    HW145551   4.706   3.969   8.841 -0.9554 -0.7566  0.3270
14561SOL    HW245552   4.716   3.914   8.700 -0.8402 -0.3447  0.1732
14562SOL     OW45553   0.593   3.764   3.322  0.9559 -0.0201 -0.6450
14562SOL    HW145554   0.530   3.819   3.275 -0.0059 -0.9296 -0.4474
14562SOL    HW245555   0.592   3.798   3.411  0.5175 -0.2235 -0.5710
14563SOL     OW45556   2.419   3.371   8.293  0.4804  0.1210  0.3354
14563SOL    HW145557   2.492   3.394   8.351  0.2117  2.1458 -0.0686
14563SOL    HW245558   2.421   3.438   8.225 -2.0817  0.5597  0.6102
14564SOL     OW45559   8.782   4.797   7.630  0.0591  0.3378 -0.0778
14564SOL    HW145560   8.830   4.719   7.657  0.3108  0.1562 -0.9844
14564SOL    HW245561   8.750   4.776   7.542  0.1029  1.2361 -0.3223
14565SOL     OW45562   7.671   4.239   8.547 -0.0387 -0.3153  0.3763
14565SOL    HW145563   7.662   4.277   8.459  0.4302  2.0351  1.2882
14565SOL    HW245564   7.584   4.207   8.568 -0.6796  1.0086 -0.1420
14566SOL     OW45565   4.872   3.628   7.966 -0.2002  0.1410  0.0558
14566SOL    HW145566   4.893   3.715   8.000  1.3067 -0.8163  1.7552
14566SOL    HW245567   4.802   3.643   7.902 -0.0982  2.5566  0.4306
14567SOL     OW45568   5.376   0.494   7.568 -0.2011  0.0807 -0.0230
14567SOL    HW145569   5.428   0.414   7.568  0.2509  0.3589  0.6369
14567SOL    HW245570   5.290   0.467   7.598 -0.6792 -0.5135 -1.8259
14568SOL     OW45571   7.695   8.747   2.665 -0.6927  0.1760 -0.1278
14568SOL    HW145572   7.661   8.669   2.620 -1.7073  0.0358  0.8453
14568SOL    HW245573   7.760   8.783   2.605 -2.0471  0.0347 -1.7586
14569SOL     OW45574   4.497   0.721   5.886 -0.5576  0.4553 -0.5044
14569SOL    HW145575   4.581   0.761   5.863  0.6035 -0.4560  1.8858
14569SOL    HW245576   4.441   0.796   5.908  0.4573  0.9767  0.4018
14570SOL     OW45577   2.858   4.352   6.297 -0.2231 -0.1433  0.0478
14570SOL    HW145578   2.828   4.410   6.367 -0.9623 -0.1568 -0.2428
14570SOL    HW245579   2.922   4.404   6.248 -0.2729  0.1345  0.2722
14571SOL     OW45580   3.199   8.444   8.894  0.1929 -0.4132  0.1101
14571SOL    HW145581   3.154   8.370   8.934 -0.0170 -0.4725 -0.2334
14571SOL    HW245582   3.161   8.451   8.807  0.1190  0.1799  0.1844
14572SOL     OW45583   8.822   3.771   2.765  0.2203 -0.8700  0.0712
14572SOL    HW145584   8.906   3.783   2.810 -0.7473 -0.1646  1.7462
14572SOL    HW245585   8.776   3.854   2.776 -1.4065 -1.8125  0.7252
14573SOL     OW45586   8.746   7.687   1.848 -0.1773 -0.1594  0.0606
14573SOL    HW145587   8.668   7.743   1.850 -0.5046 -0.5395 -1.1019
14573SOL    HW245588   8.722   7.615   1.789  0.4597 -1.1938  1.0256
14574SOL     OW45589   1.356   1.438   5.992  0.7128  0.1723  0.1413
14574SOL    HW145590   1.384   1.378   6.060  2.9729  1.0242  0.0439
14574SOL    HW245591   1.343   1.521   6.036 -1.5594 -0.1179  0.1280
14575SOL     OW45592   3.474   4.824   7.118  0.3772 -0.5061  0.1506
14575SOL    HW145593   3.551   4.823   7.061 -0.9117  0.8596 -1.7400
14575SOL    HW245594   3.418   4.755   7.084  0.8751 -1.7408  1.7514
14576SOL     OW45595   1.286   4.310   7.541  0.0284  0.3770 -0.0451
14576SOL    HW145596   1.207   4.270   7.576 -0.6632  0.3799 -1.5172
14576SOL    HW245597   1.271   4.404   7.550  0.8368  0.3715  1.6769
14577SOL     OW45598   6.079   2.667   0.186  0.2994  0.3237  0.4817
14577SOL    HW145599   6.010   2.662   0.252  2.3398  0.3380  2.7438
14577SOL    HW245600   6.139   2.734   0.219  1.2767  0.5631 -1.5877
14578SOL     OW45601   6.346   1.018   6.757 -0.3256  0.4836  0.3737
14578SOL    HW145602   6.395   1.096   6.733  1.8839 -0.5078  1.3388
14578SOL    HW245603   6.337   1.023   6.852  1.1311 -1.0679  0.6412
14579SOL     OW45604   7.823   7.083   7.196  0.2460  0.2210 -0.2197
14579SOL    HW145605   7.912   7.048   7.192  0.5982  1.0177  0.3624
14579SOL    HW245606   7.817   7.143   7.122  0.0478 -0.1421 -0.5017
14580SOL     OW45607   2.796   4.615   4.500 -0.0243  0.3908 -0.0032
14580SOL    HW145608   2.824   4.627   4.410 -1.7547  1.0977 -0.4824
14580SOL    HW245609   2.797   4.521   4.514 -1.8235  0.0827 -1.5039
14581SOL     OW45610   6.502   0.653   6.510  0.4619 -0.3308 -0.1456
14581SOL    HW145611   6.539   0.707   6.580  0.4674  0.1503 -0.5119
14581SOL    HW245612   6.541   0.566   6.523 -0.9574 -0.7774  1.5833
14582SOL     OW45613   7.679   3.877   3.585  0.8017  0.3477 -0.1320
14582SOL    HW145614   7.682   3.908   3.494 -0.1283 -2.1940 -1.1382
14582SOL    HW245615   7.761   3.829   3.597  0.6393  0.1322  0.1377
14583SOL     OW45616   6.083   7.344   6.829  0.2971 -0.3740  0.3387
14583SOL    HW145617   6.134   7.264   6.827 -0.1531 -0.6550 -2.0830
14583SOL    HW245618   6.134   7.403   6.885  0.8553 -2.1420  1.8053
14584SOL     OW45619   5.879   4.725   7.634  0.5015 -0.4478 -0.1375
14584SOL    HW145620   5.894   4.774   7.553  2.4467 -1.3448 -0.3630
14584SOL    HW245621   5.905   4.785   7.704 -0.0318 -0.1049 -0.2249
14585SOL     OW45622   5.947   2.424   8.828  0.4635  0.6187  0.4454
14585SOL    HW145623   5.981   2.408   8.916  0.9316  0.6847  0.2756
14585SOL    HW245624   5.862   2.465   8.843  0.8472  1.2739  0.8673
14586SOL     OW45625   6.402   8.357   2.439  0.2175  0.1017 -0.1073
14586SOL    HW145626   6.490   8.335   2.408  0.8059  1.1500  0.7642
14586SOL    HW245627   6.413   8.375   2.532 -0.7397  1.1714 -0.1823
14587SOL     OW45628   3.157   5.671   6.950  0.4578 -0.1850  0.0186
14587SOL    HW145629   3.183   5.672   7.042  0.7077 -1.1722 -0.0338
14587SOL    HW245630   3.079   5.616   6.947  0.5272 -0.2677 -0.3841
14588SOL     OW45631   6.683   4.168   4.853  0.4100  0.0525  0.1304
14588SOL    HW145632   6.640   4.082   4.855  0.6801 -0.1003 -0.3159
14588SOL    HW245633   6.773   4.149   4.825 -0.0954  0.6717 -2.1668
14589SOL     OW45634   6.065   5.030   8.341 -0.2055  0.0633  0.2511
14589SOL    HW145635   6.065   5.048   8.247  2.0665  0.1072  0.1966
14589SOL    HW245636   6.050   4.936   8.347  0.2430 -0.0474 -0.2161
14590SOL     OW45637   4.612   2.489   6.820  0.2685  0.3705 -0.5304
14590SOL    HW145638   4.568   2.460   6.740 -0.7475 -1.8519  0.7560
14590SOL    HW245639   4.542   2.528   6.873  0.3856 -0.6237  0.3757
14591SOL     OW45640   4.196   3.681   4.512  0.1834  0.1411  0.5471
14591SOL    HW145641   4.223   3.675   4.421 -2.4781 -0.8793 -0.3008
14591SOL    HW245642   4.131   3.751   4.514 -3.6336 -3.0032  0.3543
14592SOL     OW45643   4.373   0.968   2.319 -0.1367 -0.0588  0.1624
14592SOL    HW145644   4.436   0.956   2.249 -0.8798 -0.5195 -0.4474
14592SOL    HW245645   4.423   1.006   2.391  0.6649  0.2866 -0.5653
14593SOL     OW45646   4.100   7.606   6.726 -1.0340  0.0574  0.4309
14593SOL    HW145647   4.016   7.560   6.715 -1.0406 -0.0161  0.7997
14593SOL    HW245648   4.147   7.588   6.644  0.0643 -2.8324  1.5605
14594SOL     OW45649   3.649   0.971   6.943 -0.0089  0.1015  0.4359
14594SOL    HW145650   3.737   0.998   6.916  0.4297 -1.6855 -0.0296
14594SOL    HW245651   3.613   0.926   6.867 -1.4277  0.9891  0.5589
14595SOL     OW45652   1.725   6.608   7.095  0.1286 -0.4632  0.1466
14595SOL    HW145653   1.756   6.591   7.006 -1.1646 -1.1695 -0.2072
14595SOL    HW245654   1.664   6.536   7.112 -2.8265  1.8387  0.0206
14596SOL     OW45655   4.586   2.450   8.534 -0.1016  0.0794  0.1331
14596SOL    HW145656   4.580   2.435   8.440 -2.1832  0.3968  0.1771
14596SOL    HW245657   4.654   2.389   8.564  0.4226 -0.1871 -1.5223
14597SOL     OW45658   6.978   4.705   0.346  0.2392 -0.3400  0.4777
14597SOL    HW145659   6.909   4.640   0.358 -0.3007  0.2341  0.5501
14597SOL    HW245660   6.960   4.744   0.261 -1.0618  1.5719  1.5493
14598SOL     OW45661   2.849   2.823   6.872 -0.2818 -0.2756 -0.3329
14598SOL    HW145662   2.784   2.801   6.939  1.5502 -0.0643  1.6155
14598SOL    HW245663   2.815   2.903   6.831 -0.8947  0.2802  1.1892
14599SOL     OW45664   6.801   6.864   5.959  0.8264  0.7436 -0.7478
14599SOL    HW145665   6.810   6.903   6.046  0.6260 -0.5327 -0.1215
14599SOL    HW245666   6.748   6.926   5.910 -1.6843  0.1354  0.9831
14600SOL     OW45667   3.705   7.425   4.942  0.4624 -0.4650 -0.1882
14600SOL    HW145668   3.712   7.474   4.861  1.1525 -1.0690 -0.5062
14600SOL    HW245669   3.751   7.342   4.925 -0.3809 -1.0854  0.4390
14601SOL     OW45670   3.286   3.716   4.328  0.7568  0.1872  0.0724
14601SOL    HW145671   3.354   3.656   4.295 -0.6005 -1.3480 -0.0961
14601SOL    HW245672   3.205   3.683   4.289 -0.0978  2.0173  0.2028
14602SOL     OW45673   2.604   0.964   0.640 -0.0361  0.3819  0.2145
14602SOL    HW145674   2.680   0.907   0.629 -1.0548 -0.8312 -0.7112
14602SOL    HW245675   2.642   1.052   0.648  1.5500 -0.3565  1.4646
14603SOL     OW45676   6.937   6.368   2.657  0.2673  0.0611 -0.0843
14603SOL    HW145677   7.003   6.437   2.648 -0.2009  0.6084  0.6096
14603SOL    HW245678   6.979   6.302   2.712  0.6623 -0.1534 -0.6271
14604SOL     OW45679   4.035   4.079   7.648  0.4148 -0.2154 -0.4683
14604SOL    HW145680   4.050   4.047   7.736  1.2921  0.5831 -0.3075
14604SOL    HW245681   4.104   4.039   7.595  1.7407  1.5869 -0.1991
14605SOL     OW45682   5.360   8.094   3.685  0.0246 -0.3844 -0.5528
14605SOL    HW145683   5.345   8.087   3.591 -1.4926  0.2134 -0.3900
14605SOL    HW245684   5.408   8.014   3.708 -0.8829 -1.2683 -1.5961
14606SOL     OW45685   2.233   5.371   6.184 -0.0683  0.0814 -0.3939
14606SOL    HW145686   2.160   5.325   6.143  0.5008  0.2919 -1.6716
14606SOL    HW245687   2.218   5.464   6.165  1.3724  0.0130 -2.1408
14607SOL     OW45688   7.930   0.024   6.518  0.0506 -0.2912  0.2388
14607SOL    HW145689   7.845  -0.007   6.487 -0.7697  0.5979  1.4846
14607SOL    HW245690   7.944  -0.024   6.600  0.0958  0.5116  0.7192
14608SOL     OW45691   4.396   5.712   2.853  0.2819 -0.8516  0.3350
14608SOL    HW145692   4.462   5.642   2.862  1.1506 -0.0851  0.0417
14608SOL    HW245693   4.351   5.691   2.771  0.8123 -0.8549  0.0356
14609SOL     OW45694   5.325   0.869   7.813 -0.3223  0.3729 -0.0573
14609SOL    HW145695   5.233   0.870   7.840 -0.1582  2.7118  0.5558
14609SOL    HW245696   5.331   0.937   7.746  0.7195 -0.6770 -1.0784
14610SOL     OW45697   0.343   4.995   3.233 -0.1700  0.1369  0.3692
14610SOL    HW145698   0.365   5.086   3.253  1.6781  0.2874 -1.8895
14610SOL    HW245699   0.309   4.998   3.144 -0.6588 -1.3334  0.4844
14611SOL     OW45700   8.425   6.567   8.816 -0.6388  0.0289  0.3240
14611SOL    HW145701   8.370   6.501   8.857 -0.2436  1.0753  2.6850
14611SOL    HW245702   8.514   6.534   8.826 -0.5102  0.4741  0.7171
14612SOL     OW45703   7.379   2.694   0.291 -0.3869 -0.3983  0.4326
14612SOL    HW145704   7.455   2.669   0.238 -0.8871 -0.1684 -0.4100
14612SOL    HW245705   7.417   2.726   0.373  0.3930 -0.8940  0.2783
14613SOL     OW45706   5.887   7.462   3.022 -0.1061  0.0137 -0.1793
14613SOL    HW145707   5.830   7.460   3.099 -3.6572 -0.7898 -2.6362
14613SOL    HW245708   5.853   7.533   2.968  2.0543  0.3034 -1.3015
14614SOL     OW45709   1.096   0.382   5.424  0.4799 -0.5810 -0.0672
14614SOL    HW145710   1.113   0.303   5.476  1.5590 -0.4168 -0.1399
14614SOL    HW245711   1.001   0.392   5.426  0.3562 -1.6678  0.2585
14615SOL     OW45712   7.293   3.256   6.033  0.2838 -0.2014  0.2468
14615SOL    HW145713   7.310   3.189   6.099  0.4034 -0.4637 -0.0448
14615SOL    HW245714   7.199   3.271   6.038  0.1761 -0.7478 -0.0122
14616SOL     OW45715   7.736   8.629   7.220  0.0203  0.2890 -0.1550
14616SOL    HW145716   7.743   8.583   7.136  0.6278  1.9626 -1.0544
14616SOL    HW245717   7.752   8.561   7.286 -2.7467 -1.5998 -1.2181
14617SOL     OW45718   4.628   7.557   1.571 -0.0580  0.1531 -0.0429
14617SOL    HW145719   4.701   7.614   1.546 -0.5912  0.5714 -0.7000
14617SOL    HW245720   4.552   7.594   1.525 -0.6836 -0.2726  0.6199
14618SOL     OW45721   6.239   5.740   1.220  0.0443  0.4151  0.0814
14618SOL    HW145722   6.282   5.735   1.135  1.7494  0.7902  0.8673
14618SOL    HW245723   6.174   5.809   1.210  0.5170  0.7494 -0.8109
14619SOL     OW45724   2.429   6.665   4.596 -0.4627 -0.4789  0.5438
14619SOL    HW145725   2.425   6.577   4.560 -1.2109 -0.5761  0.8467
14619SOL    HW245726   2.354   6.671   4.655 -0.4060  0.3461  0.5530
14620SOL     OW45727   8.847   5.219   2.255 -0.4568  0.2197  0.3842
14620SOL    HW145728   8.914   5.239   2.189  1.4258  2.7133  2.8111
14620SOL    HW245729   8.765   5.222   2.207  0.9090  0.2193 -2.1435
14621SOL     OW45730   7.467   7.588   4.052 -0.0610 -0.5713 -0.4317
14621SOL    HW145731   7.426   7.646   4.116  0.1910 -0.4707 -0.3625
14621SOL    HW245732   7.397   7.527   4.027  0.2542 -1.6285  1.1305
14622SOL     OW45733   1.945   0.016   4.951 -0.0475 -0.4754 -0.0029
14622SOL    HW145734   1.939   0.076   4.876  1.8191  0.5728  0.6159
14622SOL    HW245735   1.928   0.071   5.027 -3.4290 -1.8173  0.3831
14623SOL     OW45736   7.998   6.990   8.741  0.0827  0.3607  0.1970
14623SOL    HW145737   7.960   7.008   8.827 -1.6056  1.3819 -0.6940
14623SOL    HW245738   7.923   6.970   8.686  1.0793  0.2463 -1.1727
14624SOL     OW45739   1.776   6.018   2.694 -0.2096  0.0431  0.0079
14624SOL    HW145740   1.798   6.093   2.749  0.0320 -0.8301  1.1408
14624SOL    HW245741   1.749   6.056   2.611 -2.0017  1.4647  1.1833
14625SOL     OW45742   1.410   7.335   5.007 -0.0447 -0.4657 -0.3629
14625SOL    HW145743   1.490   7.356   4.959  0.0337  0.8094  0.2587
14625SOL    HW245744   1.432   7.258   5.059  0.7403 -0.2347 -0.3408
14626SOL     OW45745   7.248   3.472   8.134 -0.2090 -0.4797 -0.1385
14626SOL    HW145746   7.153   3.468   8.121 -0.2261 -1.4628  0.1944
14626SOL    HW245747   7.282   3.398   8.083  0.4617  0.2897 -0.8489
14627SOL     OW45748   7.957   3.584   5.016 -0.0753  0.4391 -0.4638
14627SOL    HW145749   7.910   3.511   5.056 -0.0616 -1.0486 -2.9708
14627SOL    HW245750   8.014   3.616   5.085  0.3350 -2.3079  0.5971
14628SOL     OW45751   7.632   8.301   4.622 -0.4749 -0.0766  0.5505
14628SOL    HW145752   7.587   8.352   4.555 -0.5093 -1.1524 -0.2684
14628SOL    HW245753   7.562   8.254   4.668 -0.3369 -0.5407  0.3009
14629SOL     OW45754   7.251   4.983   8.938 -0.0111 -0.0860 -0.1494
14629SOL    HW145755   7.210   4.901   8.967  0.2103 -0.2596 -0.3249
14629SOL    HW245756   7.182   5.028   8.890 -0.3166  0.1085  0.4600
14630SOL     OW45757   0.103   0.229   6.859 -0.4817  0.6787  0.0386
14630SOL    HW145758   0.013   0.247   6.832 -0.6483  0.2355  0.2879
14630SOL    HW245759   0.095   0.193   6.948 -0.2326 -1.2985 -0.6916
14631SOL     OW45760   5.957   5.908   8.021 -0.7107  0.0659  0.2868
14631SOL    HW145761   5.931   5.822   7.988  0.2318 -0.4852  0.9189
14631SOL    HW245762   5.877   5.945   8.058 -1.3214 -0.1653 -0.7735
14632SOL     OW45763   5.816   4.716   3.642 -0.5452 -0.5677 -0.4630
14632SOL    HW145764   5.752   4.666   3.591 -2.3091  0.3042  0.8053
14632SOL    HW245765   5.774   4.729   3.727  1.2644  0.2043  0.3577
14633SOL     OW45766   8.744   4.708   6.002 -0.3672  0.0016  0.4790
14633SOL    HW145767   8.686   4.637   6.030 -0.9759  0.4967  0.5092
14633SOL    HW245768   8.704   4.787   6.038  1.0502  0.2410  1.6017
14634SOL     OW45769   6.893   1.501   5.159 -0.4836 -0.3385  0.2180
14634SOL    HW145770   6.802   1.511   5.131 -0.1721  0.7090 -0.4739
14634SOL    HW245771   6.901   1.556   5.237 -0.7303 -1.3582  0.9809
14635SOL     OW45772   3.663   2.455   3.847  0.1908  0.2007 -1.3691
14635SOL    HW145773   3.573   2.428   3.828  0.7048 -0.2956 -3.3663
14635SOL    HW245774   3.687   2.511   3.774  1.6237  0.0614 -1.0336
14636SOL     OW45775   0.697   5.635   4.311  0.1428 -0.6207  0.0629
14636SOL    HW145776   0.660   5.570   4.371 -0.6047  0.4097  0.7534
14636SOL    HW245777   0.672   5.605   4.224  1.1044 -2.0594  0.2622
14637SOL     OW45778   2.601   6.932   6.125  0.1746 -0.4691  0.1974
14637SOL    HW145779   2.564   6.972   6.046  0.4895  0.5311  0.5406
14637SOL    HW245780   2.633   6.847   6.096 -0.9036 -0.6791 -0.4593
14638SOL     OW45781   7.237   8.641   8.996  0.3340  0.2229  0.1515
14638SOL    HW145782   7.228   8.549   9.017  0.0925  0.2385  0.1216
14638SOL    HW245783   7.175   8.655   8.923  0.1451  0.4730  0.3570
14639SOL     OW45784   4.776   2.322   5.646 -0.4514 -0.2118 -0.4674
14639SOL    HW145785   4.712   2.367   5.702  1.2212  3.2186 -1.0405
14639SOL    HW245786   4.751   2.346   5.557  0.1406 -1.0024 -0.8594
14640SOL     OW45787   3.931   6.541   4.054 -0.7829  0.4868 -0.4695
14640SOL    HW145788   3.970   6.549   3.967  0.4522  1.8742  0.1529
14640SOL    HW245789   3.994   6.584   4.112 -1.3351 -0.8240  1.1883
14641SOL     OW45790   1.232   1.852   1.873 -0.2114 -0.1471  0.6329
14641SOL    HW145791   1.207   1.760   1.863  0.6116 -0.1612 -2.1472
14641SOL    HW245792   1.286   1.854   1.952  1.2382 -2.4211 -0.2129
14642SOL     OW45793   5.489   8.920   1.049  0.3365  0.2550 -0.0999
14642SOL    HW145794   5.535   8.991   1.003 -0.7477  0.0455 -1.5803
14642SOL    HW245795   5.558   8.866   1.086  1.2263  0.9927 -0.6472
14643SOL     OW45796   3.879   3.715   6.842 -0.1890  0.3236 -0.4583
14643SOL    HW145797   3.885   3.799   6.888 -0.9949  0.9243 -1.4071
14643SOL    HW245798   3.899   3.650   6.909  1.2129  1.2980  0.1150
14644SOL     OW45799   5.624   6.880   0.343  0.4320 -0.0202 -0.1630
14644SOL    HW145800   5.695   6.881   0.406  0.1137  0.3323  0.1927
14644SOL    HW245801   5.653   6.939   0.273  0.8371 -0.5075 -0.4186
14645SOL     OW45802   5.131   3.131   7.017  0.1835  0.3159  0.3806
14645SOL    HW145803   5.216   3.174   7.028 -0.2302  0.9702  1.0748
14645SOL    HW245804   5.083   3.190   6.958  0.0204  0.2176  0.4164
14646SOL     OW45805   3.179   0.166   6.635 -0.2470  0.4153  0.1774
14646SOL    HW145806   3.138   0.213   6.562  0.8790  2.4358  0.7526
14646SOL    HW245807   3.117   0.175   6.707 -0.4313  0.2322  0.0433
14647SOL     OW45808   5.495   5.723   7.658 -0.4772 -0.0343  0.6430
14647SOL    HW145809   5.416   5.754   7.612 -0.1601  0.7451  0.6103
14647SOL    HW245810   5.471   5.635   7.689 -1.0196 -0.2034 -0.2104
14648SOL     OW45811   4.943   5.422   4.269  0.7299  0.6474  0.0913
14648SOL    HW145812   4.945   5.511   4.233  0.4613  1.1748  1.3420
14648SOL    HW245813   4.920   5.434   4.361  1.7526 -0.6456  0.5398
14649SOL     OW45814   4.559   6.989   7.586 -0.1966 -0.1468  0.5122
14649SOL    HW145815   4.463   6.983   7.584 -0.2687  0.8080 -1.3940
14649SOL    HW245816   4.588   6.903   7.615 -1.6028 -1.0010 -0.5236
14650SOL     OW45817   1.553   8.573   7.655 -0.0811  0.2016  0.6954
14650SOL    HW145818   1.601   8.608   7.580 -0.0170 -0.0627  0.6148
14650SOL    HW245819   1.463   8.563   7.624  0.0070 -0.1921  0.5609
14651SOL     OW45820   6.316   2.617   3.932  0.3854 -0.2199  0.4173
14651SOL    HW145821   6.248   2.568   3.979 -0.1464  0.2419  0.1446
14651SOL    HW245822   6.282   2.706   3.928  0.0711 -0.3873 -1.4764
14652SOL     OW45823   3.738   7.717   6.879  0.3051 -0.1898  0.0916
14652SOL    HW145824   3.710   7.784   6.816 -2.1493 -1.5347 -0.3740
14652SOL    HW245825   3.752   7.765   6.960  0.8266  1.1899 -0.7754
14653SOL     OW45826   5.824   6.860   2.698 -0.1452 -0.0549  0.5044
14653SOL    HW145827   5.904   6.912   2.694  0.1334 -0.5432 -0.9234
14653SOL    HW245828   5.756   6.923   2.721  0.0580  1.1810 -1.8936
14654SOL     OW45829   7.924   8.191   6.735  0.1862  0.5692  0.4881
14654SOL    HW145830   7.972   8.146   6.805  0.3521  0.3761  0.2492
14654SOL    HW245831   7.967   8.276   6.728 -1.4297  1.6405  2.3882
14655SOL     OW45832   0.651   2.146   3.579 -0.1752 -0.6925 -0.1765
14655SOL    HW145833   0.605   2.062   3.584  0.2489 -0.9285 -0.2361
14655SOL    HW245834   0.674   2.165   3.670  0.8960 -1.2983 -0.2986
14656SOL     OW45835   0.503   6.192   2.970  0.2466 -0.6526  0.7238
14656SOL    HW145836   0.408   6.191   2.958  0.3807  0.3774 -0.5803
14656SOL    HW245837   0.517   6.242   3.050 -0.1944  2.2462 -0.8942
14657SOL     OW45838   3.905   2.421   0.228 -0.4827 -0.1412 -0.0701
14657SOL    HW145839   3.938   2.335   0.252 -1.3025 -0.7683 -1.1043
14657SOL    HW245840   3.849   2.405   0.151 -2.7899  0.9055  1.2904
14658SOL     OW45841   5.737   1.807   7.043 -0.0944 -1.0571  0.3406
14658SOL    HW145842   5.686   1.860   7.103 -1.0875 -0.2214 -1.1654
14658SOL    HW245843   5.821   1.792   7.087 -0.8351 -0.5986  1.9451
14659SOL     OW45844   1.711   3.084   4.592  0.3187  0.3609 -0.5476
14659SOL    HW145845   1.756   3.167   4.606 -0.2403  0.9011 -1.7694
14659SOL    HW245846   1.770   3.033   4.537  0.0461  0.5282 -1.0023
14660SOL     OW45847   0.651   6.243   0.204 -0.0483  0.4405  0.0319
14660SOL    HW145848   0.582   6.296   0.245 -0.8451  0.7101 -1.5573
14660SOL    HW245849   0.603   6.176   0.154  0.8699 -0.0197 -0.2496
14661SOL     OW45850   3.702   7.320   7.202 -0.4023  0.2568 -0.3297
14661SOL    HW145851   3.663   7.388   7.147  0.8065  0.2353 -1.2562
14661SOL    HW245852   3.792   7.312   7.170 -0.1601 -0.9297  0.5749
14662SOL     OW45853   8.955   0.146   4.597  0.3581  0.3542 -0.0421
14662SOL    HW145854   8.948   0.206   4.671  0.6950  1.1850 -0.6644
14662SOL    HW245855   8.979   0.202   4.523  0.8308 -0.5736 -0.6111
14663SOL     OW45856   7.880   2.680   4.935  0.2008 -0.0344  0.5163
14663SOL    HW145857   7.851   2.766   4.966  0.5278  1.0768 -2.0378
14663SOL    HW245858   7.926   2.698   4.853 -0.6317 -2.7296 -0.6465
14664SOL     OW45859   7.715   7.169   2.835 -0.1817 -0.4951  0.0166
14664SOL    HW145860   7.713   7.148   2.928  1.1206  2.8440  0.9213
14664SOL    HW245861   7.790   7.120   2.801 -0.1582 -1.0766  0.8804
14665SOL     OW45862   4.512   1.965   0.549 -0.4460 -0.2526 -0.1312
14665SOL    HW145863   4.581   1.930   0.493 -0.3017 -1.3038  0.6770
14665SOL    HW245864   4.449   1.893   0.557 -0.3151 -0.2306  1.2854
14666SOL     OW45865   6.945   0.622   4.523  0.0260 -0.1663  0.6699
14666SOL    HW145866   6.971   0.665   4.604 -1.4402 -0.5389  1.3622
14666SOL    HW245867   6.888   0.685   4.479  0.9578  0.1104 -0.1816
14667SOL     OW45868   6.585   7.986   7.064 -0.2128  0.6000  0.6494
14667SOL    HW145869   6.571   7.955   6.975 -0.6948  0.5612  0.7351
14667SOL    HW245870   6.624   8.073   7.054 -0.3889  0.6489  0.4002
14668SOL     OW45871   2.565   8.818   6.815 -0.1237  0.0873  0.4279
14668SOL    HW145872   2.534   8.849   6.900 -0.4292  0.1415  0.2981
14668SOL    HW245873   2.565   8.897   6.760  0.8803  0.2201  0.6065
14669SOL     OW45874   6.546   8.619   8.984  0.7687 -0.1130 -0.1009
14669SOL    HW145875   6.544   8.638   9.078 -0.3703 -1.1402  0.1009
14669SOL    HW245876   6.460   8.645   8.952  1.7433  1.8985 -1.2399
14670SOL     OW45877   2.519   4.719   8.537  0.2715 -0.4248  0.9385
14670SOL    HW145878   2.555   4.691   8.621 -1.0304  3.2562  2.9841
14670SOL    HW245879   2.424   4.723   8.552 -0.0800 -0.5449 -1.0313
14671SOL     OW45880   1.402   2.308   4.476 -0.1835 -0.5707  0.3091
14671SOL    HW145881   1.451   2.324   4.556  0.2269 -2.1215  0.3946
14671SOL    HW245882   1.468   2.313   4.406 -0.5672  0.9486  0.0193
14672SOL     OW45883   4.557   7.865   2.417  0.3652  0.1921 -0.1267
14672SOL    HW145884   4.515   7.809   2.352 -0.8485  1.6774 -0.6897
14672SOL    HW245885   4.602   7.804   2.476  1.5440 -1.2091 -2.3400
14673SOL     OW45886   8.078   7.067   5.944  0.5197 -0.0812  0.2143
14673SOL    HW145887   8.089   7.059   5.850  1.8840  0.7334  0.2713
14673SOL    HW245888   8.073   7.161   5.960  0.1591 -0.2163  0.9446
14674SOL     OW45889   3.975   7.768   0.889 -0.2230  0.8003  0.2174
14674SOL    HW145890   3.882   7.792   0.886 -1.1551 -2.3705 -0.2388
14674SOL    HW245891   3.995   7.763   0.983 -1.5654 -1.6316  0.4705
14675SOL     OW45892   2.738   2.533   7.783  0.3453 -0.2051 -0.2675
14675SOL    HW145893   2.685   2.569   7.711 -3.2206 -2.1777  1.1298
14675SOL    HW245894   2.801   2.476   7.739  0.5611  1.2495 -1.9811
14676SOL     OW45895   3.825   5.626   5.834  0.7823  0.1549 -0.4768
14676SOL    HW145896   3.910   5.631   5.791  0.2935  0.0373 -1.4839
14676SOL    HW245897   3.787   5.713   5.822  0.7285  0.1870 -0.0888
14677SOL     OW45898   8.003   6.625   4.392 -0.1825  0.0393 -0.5652
14677SOL    HW145899   7.928   6.571   4.415  0.4674 -0.7251 -0.2015
14677SOL    HW245900   8.074   6.594   4.448  0.5905  0.2739 -1.3869
14678SOL     OW45901   3.803   2.275   1.774  0.4662 -0.3539  0.1790
14678SOL    HW145902   3.762   2.288   1.689 -2.2352 -0.8883  1.2882
14678SOL    HW245903   3.850   2.192   1.766  0.8878 -0.0253 -0.9730
14679SOL     OW45904   6.834   4.323   0.196 -0.2609 -0.4767 -0.0649
14679SOL    HW145905   6.801   4.235   0.215  0.7575 -0.8156  0.1761
14679SOL    HW245906   6.836   4.367   0.281  0.6888 -0.7363  0.0549
14680SOL     OW45907   7.844   2.553   0.540 -0.2978 -0.5149 -0.4761
14680SOL    HW145908   7.756   2.575   0.510 -1.1914 -0.5258  1.8987
14680SOL    HW245909   7.886   2.638   0.556 -1.0727 -0.4419  1.4565
14681SOL     OW45910   7.714   2.984   1.260  0.3095  0.0645  0.4094
14681SOL    HW145911   7.781   3.041   1.298  0.1475  2.2837 -2.3400
14681SOL    HW245912   7.638   3.040   1.246 -0.6407 -1.3537 -0.4413
14682SOL     OW45913   7.662   8.408   4.229 -0.5645  0.4392 -0.1788
14682SOL    HW145914   7.597   8.383   4.294 -0.3347 -1.0230 -0.4754
14682SOL    HW245915   7.612   8.419   4.148 -0.6987  1.1809  0.0026
14683SOL     OW45916   8.165   3.416   3.510 -0.4339  0.3893  0.0632
14683SOL    HW145917   8.117   3.485   3.463 -1.3471 -0.5613 -0.4584
14683SOL    HW245918   8.251   3.454   3.526 -0.6819  1.4012 -0.8176
14684SOL     OW45919   1.704   8.400   1.512  0.1018  0.6647 -0.1762
14684SOL    HW145920   1.744   8.392   1.426  0.3169 -0.4788  0.0194
14684SOL    HW245921   1.631   8.460   1.499  0.2249  0.6180 -1.1201
14685SOL     OW45922   0.333   6.638   2.003  0.0845 -0.6075  0.5792
14685SOL    HW145923   0.424   6.669   2.003  0.4514 -1.6094  1.4884
14685SOL    HW245924   0.330   6.571   1.935  0.2037 -1.0283  0.9820
14686SOL     OW45925   1.956   5.108   5.817 -0.2151  0.1106 -0.1334
14686SOL    HW145926   1.871   5.150   5.828 -0.3651  0.1196 -1.2492
14686SOL    HW245927   2.014   5.178   5.787  0.0584 -0.0113  0.1026
14687SOL     OW45928   6.578   8.872   0.479  0.4846 -0.0720 -0.3944
14687SOL    HW145929   6.536   8.907   0.558 -0.1554  1.3510 -1.3358
14687SOL    HW245930   6.661   8.919   0.473  1.0057 -0.9081 -0.0491
14688SOL     OW45931   2.699   1.597   6.671  0.4809  0.0924  0.6433
14688SOL    HW145932   2.781   1.617   6.714  0.2185  1.8759  0.3846
14688SOL    HW245933   2.659   1.529   6.725  2.0727 -0.7566  0.8006
14689SOL     OW45934   8.084   6.713   4.787 -0.0427  0.0753  0.9547
14689SOL    HW145935   8.106   6.727   4.695  1.6825  1.1152  1.4593
14689SOL    HW245936   8.169   6.709   4.831 -0.7183 -3.0020  2.1978
14690SOL     OW45937   1.132   3.024   0.555 -0.5698  0.3859 -0.0352
14690SOL    HW145938   1.221   3.021   0.520 -0.4514 -0.7554  0.3125
14690SOL    HW245939   1.076   3.004   0.480 -0.4244 -0.3547  0.0420
14691SOL     OW45940   6.237   8.616   8.463  0.3702  0.6703  0.0393
14691SOL    HW145941   6.155   8.572   8.485  0.9009 -1.0790 -1.1594
14691SOL    HW245942   6.221   8.657   8.378  1.1070 -0.9973 -0.9696
14692SOL     OW45943   7.014   3.468   0.929  0.3737 -0.1619  0.1581
14692SOL    HW145944   6.954   3.416   0.982  0.6660 -0.0807  0.5810
14692SOL    HW245945   7.099   3.425   0.941  0.2725 -0.7458 -1.0573
14693SOL     OW45946   1.034   5.805   4.626  0.1980 -0.3632  0.0355
14693SOL    HW145947   1.100   5.736   4.640  0.2186 -0.4915 -0.6511
14693SOL    HW245948   0.984   5.775   4.550  0.1478  0.3331 -0.2132
14694SOL     OW45949   1.803   1.041   8.446  0.7531 -0.6979  0.0649
14694SOL    HW145950   1.733   1.064   8.386  0.7163  0.2469  0.4582
14694SOL    HW245951   1.819   1.121   8.496  1.8127 -1.0314  0.2773
14695SOL     OW45952   7.305   0.365   1.819  0.1528 -0.0425  0.0708
14695SOL    HW145953   7.333   0.273   1.813 -0.8777 -0.3813  0.3100
14695SOL    HW245954   7.233   0.372   1.757  0.2449  0.6202  0.0375
14696SOL     OW45955   8.751   1.727   7.739  0.1080 -0.5467  0.2658
14696SOL    HW145956   8.758   1.634   7.757 -0.1730 -0.6479 -0.1317
14696SOL    HW245957   8.833   1.749   7.695 -0.9106 -1.1980 -2.1177
14697SOL     OW45958   2.843   5.244   2.869  0.0474 -0.0271  0.2460
14697SOL    HW145959   2.763   5.296   2.865  0.2568  0.2931  0.2492
14697SOL    HW245960   2.880   5.263   2.956  0.6386  0.5821 -0.1352
14698SOL     OW45961   2.972   3.768   3.081  0.0034  0.0192 -0.4720
14698SOL    HW145962   3.050   3.762   3.026 -0.9797 -3.3665 -1.6845
14698SOL    HW245963   2.979   3.695   3.142 -1.2334  0.9034  0.8017
14699SOL     OW45964   2.448   7.171   6.594 -0.4740  0.0202 -0.4125
14699SOL    HW145965   2.401   7.115   6.531 -1.2024 -0.0265  0.1619
14699SOL    HW245966   2.533   7.128   6.605 -0.8907 -0.7811 -0.2478
14700SOL     OW45967   8.244   3.914   0.324 -0.0515  0.0216 -0.3503
14700SOL    HW145968   8.338   3.906   0.308 -0.1206  1.1699 -1.4834
14700SOL    HW245969   8.233   3.891   0.417  1.2488 -0.7154 -0.3579
14701SOL     OW45970   6.434   8.298   6.400 -0.3327 -0.1772 -0.2316
14701SOL    HW145971   6.352   8.288   6.351 -1.4115 -1.0663  1.6715
14701SOL    HW245972   6.461   8.388   6.383 -1.6165  0.0791 -1.0159
14702SOL     OW45973   3.337   1.973   3.701  0.1865  0.3865  0.5321
14702SOL    HW145974   3.395   1.940   3.632  0.1744  0.9786  0.2334
14702SOL    HW245975   3.397   2.007   3.769  0.2085 -0.7893  1.1207
14703SOL     OW45976   8.284   7.394   2.051 -0.0211  0.1835  0.1383
14703SOL    HW145977   8.306   7.375   2.142  0.6689 -1.7942 -0.3993
14703SOL    HW245978   8.305   7.314   2.003 -0.3540  1.1702 -1.7798
14704SOL     OW45979   7.860   6.091   6.099  0.1747  0.4056  0.6021
14704SOL    HW145980   7.905   6.094   6.183  1.7292  1.2248 -0.2018
14704SOL    HW245981   7.840   6.183   6.079  1.3742  0.4262 -0.6668
14705SOL     OW45982   5.785   3.802   0.599  0.4940  0.0600  0.1754
14705SOL    HW145983   5.801   3.729   0.538  1.7599 -2.1145  2.8849
14705SOL    HW245984   5.871   3.836   0.620 -0.0529  2.0394 -0.5807
14706SOL     OW45985   5.877   0.327   0.897 -0.2872 -0.3242 -0.0017
14706SOL    HW145986   5.930   0.390   0.946 -0.7717 -1.1154  1.6008
14706SOL    HW245987   5.816   0.381   0.847  0.1194  0.5187  0.3998
14707SOL     OW45988   3.188   0.772   7.094 -0.2864 -0.0420 -0.2391
14707SOL    HW145989   3.189   0.716   7.172 -0.2785 -1.1978 -1.0476
14707SOL    HW245990   3.276   0.810   7.091 -0.7343  1.1951  1.1195
14708SOL     OW45991   7.622   1.782   2.288 -0.4635  0.2805 -0.1533
14708SOL    HW145992   7.538   1.829   2.283 -0.1552  0.8554 -0.0381
14708SOL    HW245993   7.668   1.805   2.208  0.1633  1.1178  0.4230
14709SOL     OW45994   8.616   4.796   8.557  0.0198  0.3660 -0.4870
14709SOL    HW145995   8.627   4.832   8.469  1.2077 -2.6420 -1.6992
14709SOL    HW245996   8.527   4.821   8.582 -0.8816  0.1606 -3.1443
14710SOL     OW45997   5.157   8.433   3.360 -0.6466 -0.3963 -0.3030
14710SOL    HW145998   5.251   8.424   3.344 -0.0784  1.5897  1.3927
14710SOL    HW245999   5.142   8.389   3.444 -1.2526 -0.8016 -0.6207
14711SOL     OW46000   6.575   1.123   8.974 -0.1608 -0.1407 -0.1968
14711SOL    HW146001   6.620   1.092   8.895  1.4773 -0.9673  1.0009
14711SOL    HW246002   6.581   1.218   8.969  0.2363 -0.1922 -0.9031
14712SOL     OW46003   8.951   3.770   5.163 -0.3545 -1.0993 -0.4173
14712SOL    HW146004   8.970   3.681   5.135  1.1328 -0.7015 -0.7871
14712SOL    HW246005   9.036   3.814   5.164 -0.7867 -0.1572  1.4730
14713SOL     OW46006   7.051   8.669   8.798  0.2318 -0.2732 -0.0395
14713SOL    HW146007   6.960   8.666   8.829  0.3584 -2.5923  0.2470
14713SOL    HW246008   7.049   8.625   8.714  1.2674 -1.3649  0.4867
14714SOL     OW46009   3.261   4.108   2.779  0.1040 -0.5487  0.0068
14714SOL    HW146010   3.268   4.015   2.799 -0.7958 -0.3593  1.3389
14714SOL    HW246011   3.169   4.129   2.792  0.2765  0.5097 -0.3624
14715SOL     OW46012   1.392   2.625   3.630 -0.2443 -0.5733  0.4172
14715SOL    HW146013   1.482   2.593   3.639  0.0282 -0.1628 -0.6445
14715SOL    HW246014   1.382   2.640   3.536 -1.8616 -1.8477  0.3454
14716SOL     OW46015   1.809   4.541   8.166 -0.2153 -0.1223  0.6712
14716SOL    HW146016   1.720   4.508   8.154  0.1235 -0.9303  0.3438
14716SOL    HW246017   1.833   4.577   8.081 -1.2634  2.7413  1.4852
14717SOL     OW46018   3.946   5.857   5.538 -0.3889  0.0175 -0.0543
14717SOL    HW146019   3.872   5.810   5.577 -1.2476  0.6356 -0.9012
14717SOL    HW246020   3.915   5.885   5.452  1.0358 -0.2259 -0.6929
14718SOL     OW46021   3.480   8.353   4.636 -0.4840  0.4643 -0.5236
14718SOL    HW146022   3.407   8.360   4.575  1.0446 -0.7167 -2.5853
14718SOL    HW246023   3.523   8.271   4.614  1.4547  1.0899  0.6538
14719SOL     OW46024   1.331   5.092   5.425  0.1513  0.4732  0.8680
14719SOL    HW146025   1.336   5.186   5.443  0.1227  0.1670  2.5886
14719SOL    HW246026   1.238   5.071   5.432 -0.2775  0.7706 -2.3100
14720SOL     OW46027   6.146   0.837   0.594  0.0275  0.7507  0.2218
14720SOL    HW146028   6.199   0.912   0.565  0.7843 -0.2991 -1.1907
14720SOL    HW246029   6.097   0.810   0.516  0.4369 -0.7657  0.4585
14721SOL     OW46030   5.915   5.912   1.365  0.1881  0.2498  0.1612
14721SOL    HW146031   5.903   6.002   1.396 -1.7408  0.2286 -0.4018
14721SOL    HW246032   5.968   5.921   1.285 -1.3923  1.0920 -0.8355
14722SOL     OW46033   1.879   4.767   2.471 -0.0799  0.1329  0.3515
14722SOL    HW146034   1.926   4.721   2.540 -0.6861  0.9039  1.3123
14722SOL    HW246035   1.945   4.783   2.403  0.0895 -2.3230 -0.1471
14723SOL     OW46036   1.315   1.130   4.006  0.1041  0.0499 -0.2860
14723SOL    HW146037   1.378   1.120   4.077  1.2603  0.2519 -1.2568
14723SOL    HW246038   1.362   1.178   3.938 -1.4517  1.1849 -0.6149
14724SOL     OW46039   4.018   7.232   5.144  0.2032  0.3324  0.2879
14724SOL    HW146040   3.956   7.169   5.180 -0.4134  0.3391 -0.7130
14724SOL    HW246041   4.103   7.204   5.178  0.0855 -1.6008 -0.8050
14725SOL     OW46042   1.806   5.732   8.193 -0.5123  0.4014  0.6674
14725SOL    HW146043   1.757   5.809   8.164 -1.1868 -1.2389 -3.0300
14725SOL    HW246044   1.755   5.658   8.162  1.8045 -1.5017  1.1135
14726SOL     OW46045   0.828   3.840   6.146  0.5440 -0.1854  0.2236
14726SOL    HW146046   0.745   3.876   6.113  1.0806  1.3339  0.4347
14726SOL    HW246047   0.816   3.836   6.241 -0.6187 -3.5709  0.0659
14727SOL     OW46048   1.082   2.317   2.291 -0.1903 -0.4501 -0.1431
14727SOL    HW146049   1.160   2.285   2.245  0.7955 -0.6878  1.6079
14727SOL    HW246050   1.018   2.332   2.221  1.2441 -0.7159 -1.5874
14728SOL     OW46051   4.831   4.246   8.515  0.1943  0.1588 -0.2951
14728SOL    HW146052   4.748   4.236   8.561  1.1947  1.3118  1.9407
14728SOL    HW246053   4.889   4.287   8.579  3.0282 -2.1528 -1.1641
14729SOL     OW46054   3.263   2.987   7.976  0.2643 -0.4251 -0.2955
14729SOL    HW146055   3.216   2.981   7.894 -2.6477 -0.9562  1.2747
14729SOL    HW246056   3.355   2.999   7.951 -0.6639  0.7952 -3.5514
14730SOL     OW46057   0.526   1.213   5.720  0.6056 -0.5579  1.0453
14730SOL    HW146058   0.578   1.158   5.663  0.8806  0.3252  0.4112
14730SOL    HW246059   0.590   1.264   5.770  0.4970  1.9309 -1.0891
14731SOL     OW46060   2.482   8.345   8.086  0.2200  0.1503  0.0377
14731SOL    HW146061   2.491   8.440   8.098  2.2018 -0.1997  1.7412
14731SOL    HW246062   2.530   8.326   8.005 -0.3871  0.5920 -0.4420
14732SOL     OW46063   4.960   2.517   5.303 -0.2109  0.0024  0.4780
14732SOL    HW146064   5.027   2.579   5.276 -0.3208  1.1951  2.6698
14732SOL    HW246065   5.008   2.444   5.342 -0.1071 -1.0134 -1.4592
14733SOL     OW46066   4.452   2.634   3.838  0.0873 -0.2753 -0.2325
14733SOL    HW146067   4.416   2.552   3.872 -1.4884  0.5365  0.1543
14733SOL    HW246068   4.464   2.689   3.916  2.2643 -0.5046 -0.3361
14734SOL     OW46069   8.249   4.936   1.481  0.9246 -0.4178 -0.3000
14734SOL    HW146070   8.293   4.859   1.519  0.2268 -0.1196  1.1797
14734SOL    HW246071   8.163   4.936   1.521  0.5521  0.5731 -1.0747
14735SOL     OW46072   1.469   5.848   3.777 -0.1125 -0.0046  0.5460
14735SOL    HW146073   1.482   5.905   3.853 -1.5090  1.1507 -0.0528
14735SOL    HW246074   1.381   5.812   3.788 -0.6160  0.7187 -0.8460
14736SOL     OW46075   5.657   8.748   2.482 -0.6706  0.1569  0.6612
14736SOL    HW146076   5.621   8.688   2.416 -0.4399 -0.8790  1.4377
14736SOL    HW246077   5.697   8.690   2.547 -1.4086  1.1031  2.0229
14737SOL     OW46078   0.735   0.092   6.997  0.0419 -0.1657 -0.6749
14737SOL    HW146079   0.690   0.126   6.919 -0.7760 -1.3354 -0.7399
14737SOL    HW246080   0.823   0.070   6.967  0.1655  0.6565 -0.9357
14738SOL     OW46081   0.489   1.781   0.588  0.2658  0.1477  0.3222
14738SOL    HW146082   0.459   1.785   0.679 -0.3812 -0.8941  0.1678
14738SOL    HW246083   0.578   1.745   0.594  0.2168  0.0603  0.5305
14739SOL     OW46084   4.406   2.118   3.303 -0.2027 -0.2897 -0.0393
14739SOL    HW146085   4.324   2.069   3.310 -0.1256 -0.4509 -0.2489
14739SOL    HW246086   4.378   2.208   3.287 -0.3416 -0.4692 -0.8826
14740SOL     OW46087   6.092   8.863   4.413 -0.2949  0.6088  0.5614
14740SOL    HW146088   6.076   8.863   4.319  0.6236  1.2559  0.3912
14740SOL    HW246089   6.066   8.775   4.442 -0.7291  0.4579 -0.2638
14741SOL     OW46090   2.475   0.040   1.321  0.3892 -0.0841  0.3117
14741SOL    HW146091   2.474  -0.027   1.253 -1.6879 -0.6194  0.8022
14741SOL    HW246092   2.382   0.054   1.342  0.9066  1.2161  1.9054
14742SOL     OW46093   2.095   0.544   5.625  0.1188 -0.0510  0.4825
14742SOL    HW146094   2.180   0.535   5.668  0.6391 -0.3301 -0.5742
14742SOL    HW246095   2.094   0.474   5.559 -0.3871  0.7531 -0.3895
14743SOL     OW46096   7.034   2.396   4.726  0.1154  0.0490 -0.3329
14743SOL    HW146097   7.002   2.315   4.685  2.1490 -2.8361  3.1338
14743SOL    HW246098   7.129   2.393   4.713  0.9694 -1.2707  4.3101
14744SOL     OW46099   0.086   4.760   3.679  0.2559  0.2202  0.1625
14744SOL    HW146100   0.036   4.686   3.711 -0.4068  0.9248  0.8045
14744SOL    HW246101   0.075   4.828   3.747 -0.0757  1.2876 -0.9238
14745SOL     OW46102   7.885   4.918   4.623 -0.0721 -0.3222 -0.0797
14745SOL    HW146103   7.855   4.836   4.584 -0.5396 -0.3110  0.2493
14745SOL    HW246104   7.951   4.951   4.562  0.3088 -1.0716 -0.0866
14746SOL     OW46105   4.850   0.463   1.503  0.4047  0.1679 -0.2412
14746SOL    HW146106   4.938   0.455   1.466  0.0542 -0.5769 -0.9339
14746SOL    HW246107   4.792   0.432   1.434 -0.2115 -2.5962  1.3898
14747SOL     OW46108   0.061   1.621   0.741  0.0647  0.3089 -0.4609
14747SOL    HW146109   0.127   1.610   0.673  1.7733  0.4930  1.1156
14747SOL    HW246110   0.098   1.685   0.801 -0.9135 -0.6173  1.2220
14748SOL     OW46111   2.018   8.820   0.667  0.3504  0.3099  0.2371
14748SOL    HW146112   2.092   8.760   0.652  0.4423  0.3227  0.6409
14748SOL    HW246113   1.944   8.762   0.683  0.1233  0.2862 -0.8370
14749SOL     OW46114   7.103   4.873   6.089  0.4306  0.2943  0.6601
14749SOL    HW146115   7.189   4.904   6.117  0.3073  1.0719  0.1842
14749SOL    HW246116   7.077   4.932   6.019 -1.1424  0.9863  1.7637
14750SOL     OW46117   2.937   5.543   1.655 -0.4284 -0.2036 -0.1392
14750SOL    HW146118   2.900   5.520   1.740 -1.4707  2.3020  0.1517
14750SOL    HW246119   2.874   5.509   1.591 -1.3655  0.8021  0.2308
14751SOL     OW46120   4.504   5.913   4.227  0.0420 -0.2443 -0.3946
14751SOL    HW146121   4.596   5.897   4.244  0.0185  1.0562  1.2067
14751SOL    HW246122   4.498   6.007   4.210 -0.9465 -0.3403 -0.6711
14752SOL     OW46123   8.274   4.249   1.771  0.1965 -0.0382 -0.1211
14752SOL    HW146124   8.320   4.170   1.802 -0.8873 -1.3823 -1.7661
14752SOL    HW246125   8.181   4.226   1.779 -0.2368  1.9685  1.4755
14753SOL     OW46126   4.895   7.445   0.045 -0.1824 -0.3244 -0.4015
14753SOL    HW146127   4.933   7.474  -0.037  2.1263 -0.9951  0.3481
14753SOL    HW246128   4.816   7.497   0.055  0.6603  1.3527 -1.9688
14754SOL     OW46129   4.010   4.900   8.382 -0.2361 -0.5258  0.6436
14754SOL    HW146130   3.937   4.873   8.439 -0.6024 -0.4239  0.2279
14754SOL    HW246131   3.978   4.883   8.293  0.0393  0.0326  0.4362
14755SOL     OW46132   2.756   5.990   8.165 -0.0184  0.1275 -0.2024
14755SOL    HW146133   2.852   5.992   8.161  0.0070 -0.2039  0.1573
14755SOL    HW246134   2.728   6.005   8.075  0.3407  1.6401 -0.0866
14756SOL     OW46135   5.070   2.802   5.458 -0.4777 -0.0992  0.0124
14756SOL    HW146136   4.978   2.778   5.470 -0.2388 -0.6705  0.7911
14756SOL    HW246137   5.070   2.898   5.456 -0.5935  0.2675  5.0849
14757SOL     OW46138   4.228   0.104   5.543  0.1516 -0.0435 -0.0336
14757SOL    HW146139   4.183   0.023   5.516 -1.4533 -0.3582  3.1115
14757SOL    HW246140   4.190   0.172   5.488 -0.6684 -1.0299 -0.7278
14758SOL     OW46141   2.733   4.161   5.751  0.2628  0.3093 -0.0515
14758SOL    HW146142   2.750   4.209   5.670  0.8332  2.5362  1.2993
14758SOL    HW246143   2.799   4.194   5.813 -1.0528 -0.2130  1.7140
14759SOL     OW46144   0.242   7.443   1.290 -0.5612  0.0521 -0.3320
14759SOL    HW146145   0.316   7.400   1.248 -0.9480 -1.2601  0.2560
14759SOL    HW246146   0.171   7.379   1.284 -0.8630  0.1426  1.5483
14760SOL     OW46147   6.936   8.050   0.970 -0.3352  0.1920 -0.2468
14760SOL    HW146148   6.928   8.117   0.902 -1.8172  1.5706  1.1891
14760SOL    HW246149   7.030   8.047   0.989  0.3258 -1.1653 -3.1460
14761SOL     OW46150   3.702   7.821   2.902 -0.0960  0.0978  0.0103
14761SOL    HW146151   3.695   7.784   2.990  1.3934 -0.3063 -0.0155
14761SOL    HW246152   3.613   7.817   2.867 -0.7368  0.3300  1.5100
14762SOL     OW46153   8.806   2.875   0.486  0.0939  0.3965  0.5839
14762SOL    HW146154   8.761   2.960   0.484  0.9316  0.9073  1.7784
14762SOL    HW246155   8.880   2.886   0.428  0.3513  0.5827  0.9432
14763SOL     OW46156   3.778   0.595   5.931  0.7309 -0.4349 -0.4385
14763SOL    HW146157   3.734   0.680   5.938 -0.1444 -1.0199  2.5878
14763SOL    HW246158   3.866   0.610   5.965 -0.0105 -1.0344  1.9209
14764SOL     OW46159   5.607   5.293   7.769  0.1288  0.3181  0.3223
14764SOL    HW146160   5.682   5.322   7.717  0.5163  0.9420  1.1816
14764SOL    HW246161   5.560   5.374   7.789  0.2369  0.1557  1.2920
14765SOL     OW46162   8.165   6.149   4.820 -0.0595  0.1309 -0.8039
14765SOL    HW146163   8.141   6.079   4.881  0.8566 -1.1773 -1.8843
14765SOL    HW246164   8.249   6.120   4.782  0.2987  1.7831 -1.3405
14766SOL     OW46165   8.030   2.027   0.772 -0.5032 -0.2366  0.2540
14766SOL    HW146166   8.048   2.021   0.678 -0.3183 -1.1306  0.3416
14766SOL    HW246167   8.087   2.097   0.802 -0.0470 -0.4169 -0.1781
14767SOL     OW46168   3.476   1.314   0.239  0.1502 -0.1547  0.6548
14767SOL    HW146169   3.525   1.331   0.320  1.2325 -0.8202  0.1677
14767SOL    HW246170   3.402   1.374   0.243  1.4226  1.4774  1.0749
14768SOL     OW46171   6.487   1.401   2.256 -0.3532 -0.2563  0.1479
14768SOL    HW146172   6.485   1.419   2.350  1.2458  0.0312  0.1541
14768SOL    HW246173   6.540   1.472   2.219  0.8716 -1.5576 -0.6687
14769SOL     OW46174   2.194   3.676   8.844  0.3772  0.1253 -0.3472
14769SOL    HW146175   2.158   3.669   8.932 -0.1488 -0.4748 -0.6102
14769SOL    HW246176   2.119   3.697   8.788  0.8067  1.1343 -0.5720
14770SOL     OW46177   4.874   0.343   5.972 -0.0333 -0.1388 -0.2067
14770SOL    HW146178   4.859   0.274   6.037  0.7580 -0.2028 -0.0887
14770SOL    HW246179   4.931   0.406   6.016  0.6135 -0.2443 -0.8765
14771SOL     OW46180   3.643   5.632   4.985 -0.0531  0.0289  0.2117
14771SOL    HW146181   3.591   5.711   5.001 -2.5619 -1.8174  1.7627
14771SOL    HW246182   3.640   5.621   4.890 -0.8946  1.0113  0.0970
14772SOL     OW46183   2.015   5.018   7.729 -0.3026 -0.1621  0.5150
14772SOL    HW146184   2.070   5.085   7.689  1.5777 -2.2141 -0.5240
14772SOL    HW246185   1.942   5.008   7.668  0.8260 -0.9359 -0.7535
14773SOL     OW46186   6.908   8.265   3.743  0.1887  0.3665  0.4698
14773SOL    HW146187   6.843   8.275   3.812  0.6575  0.3126  0.9224
14773SOL    HW246188   6.875   8.319   3.671 -2.4898 -2.7935 -0.9074
14774SOL     OW46189   0.119   0.638   6.966 -0.3888 -0.2409 -0.0253
14774SOL    HW146190   0.146   0.566   7.024  0.7407  0.2357  0.0652
14774SOL    HW246191   0.104   0.596   6.882  0.6710 -0.5485 -0.0833
14775SOL     OW46192   1.201   7.871   5.614 -0.7711 -0.2761  0.3909
14775SOL    HW146193   1.107   7.863   5.633 -1.2167 -2.1241 -2.1598
14775SOL    HW246194   1.240   7.793   5.654 -0.6350 -0.5537 -0.2850
14776SOL     OW46195   4.727   5.290   0.881  0.0640  0.0020 -0.0670
14776SOL    HW146196   4.717   5.195   0.877  0.0406  0.0098 -0.2097
14776SOL    HW246197   4.714   5.319   0.791 -0.2401  0.1712  0.0261
14777SOL     OW46198   7.578   8.529   8.581  0.1398 -0.2029 -0.1517
14777SOL    HW146199   7.530   8.588   8.523  1.1840  0.5938 -0.2415
14777SOL    HW246200   7.588   8.578   8.662  3.9159  1.2710 -1.2661
14778SOL     OW46201   1.986   2.947   4.869  0.3240 -0.6231 -0.2358
14778SOL    HW146202   1.924   2.882   4.903 -2.2987  1.3843 -0.8121
14778SOL    HW246203   2.018   2.909   4.787 -2.1757 -0.7283 -1.2439
14779SOL     OW46204   2.641   2.094   0.495  0.3525  0.2508 -0.1891
14779SOL    HW146205   2.734   2.117   0.492 -0.0747  1.9700 -2.5263
14779SOL    HW246206   2.634   2.013   0.444  0.3682  1.0170 -1.4320
14780SOL     OW46207   6.571   3.805   5.416 -0.1937 -0.5063 -0.4763
14780SOL    HW146208   6.660   3.831   5.392  0.0321  0.1069  0.9017
14780SOL    HW246209   6.565   3.713   5.389  0.5112 -0.2869 -1.4557
14781SOL     OW46210   8.671   6.871   8.592 -0.3562 -0.0680 -0.2714
14781SOL    HW146211   8.595   6.813   8.590 -0.7026  0.3312  0.7078
14781SOL    HW246212   8.732   6.833   8.528 -0.1769 -2.0603  0.9902
14782SOL     OW46213   5.204   5.860   8.588 -0.0444  0.2870 -0.2449
14782SOL    HW146214   5.269   5.824   8.648 -0.8094 -1.3583 -0.3627
14782SOL    HW246215   5.126   5.872   8.643 -0.4814 -0.3884 -0.7131
14783SOL     OW46216   8.903   2.104   6.914  0.5230  0.3803  0.0727
14783SOL    HW146217   8.876   2.169   6.849 -2.0053  0.3544  1.0148
14783SOL    HW246218   8.915   2.154   6.995 -2.4450 -0.3327  1.0665
14784SOL     OW46219   4.094   7.881   7.813 -0.2374  0.2200 -0.1677
14784SOL    HW146220   4.087   7.801   7.762 -0.5546 -0.3711  0.7813
14784SOL    HW246221   4.020   7.878   7.873  0.4387  0.6294  0.7068
14785SOL     OW46222   1.489   1.097   1.866  0.5866  0.3033  0.2098
14785SOL    HW146223   1.551   1.052   1.923 -0.3182  0.3714  1.2710
14785SOL    HW246224   1.543   1.135   1.797  1.7628  0.6714  1.3056
14786SOL     OW46225   7.575   1.695   5.871  0.1638  0.1621 -0.1572
14786SOL    HW146226   7.659   1.671   5.831  0.6833  0.7258  0.5619
14786SOL    HW246227   7.515   1.626   5.844  1.3629 -1.4291  1.0378
14787SOL     OW46228   7.200   2.803   7.055 -0.1970 -0.1047 -0.0313
14787SOL    HW146229   7.247   2.760   7.127 -2.5566 -0.0854  1.6659
14787SOL    HW246230   7.206   2.896   7.075  2.0769  0.2180 -1.8672
14788SOL     OW46231   0.356   3.118   8.644 -0.1730  0.0133 -0.2479
14788SOL    HW146232   0.445   3.123   8.611 -0.0744  1.0540  0.1445
14788SOL    HW246233   0.304   3.171   8.583 -0.7398 -1.4552 -1.1024
14789SOL     OW46234   4.870   4.681   8.730 -0.1876  0.3460 -0.1721
14789SOL    HW146235   4.938   4.747   8.746  0.3767  0.1995 -1.7470
14789SOL    HW246236   4.805   4.727   8.676  0.4911 -0.4831 -1.7777
14790SOL     OW46237   8.104   0.811   3.505 -0.8619  0.0650  0.3387
14790SOL    HW146238   8.123   0.857   3.586  0.0647 -0.1659  0.2586
14790SOL    HW246239   8.097   0.719   3.531  2.5386 -0.4781 -0.2478
14791SOL     OW46240   7.773   1.879   3.385  0.2513  0.4254  0.0950
14791SOL    HW146241   7.827   1.825   3.443 -1.1746  0.2281  1.3146
14791SOL    HW246242   7.725   1.816   3.331  2.2973  0.6161 -2.1040
14792SOL     OW46243   8.880   4.084   8.599 -0.5790 -0.5053  0.6087
14792SOL    HW146244   8.938   4.012   8.623  2.5969  1.0970 -1.5512
14792SOL    HW246245   8.925   4.162   8.632 -0.3540  0.9753 -2.8473
14793SOL     OW46246   1.499   2.692   5.510 -0.9475 -0.1622 -0.4476
14793SOL    HW146247   1.423   2.740   5.477 -0.4403  0.7207 -0.3701
14793SOL    HW246248   1.482   2.681   5.604 -0.3836  1.2309 -0.1582
14794SOL     OW46249   3.540   6.547   1.470 -0.0498 -0.1623  0.1575
14794SOL    HW146250   3.456   6.516   1.435 -1.1973  3.3837 -0.6762
14794SOL    HW246251   3.522   6.565   1.562  0.3757 -1.1466  0.4421
14795SOL     OW46252   2.682   3.698   6.699  0.2407 -0.2118 -0.0592
14795SOL    HW146253   2.728   3.662   6.623  0.5403 -0.0809  0.0624
14795SOL    HW246254   2.723   3.783   6.714 -0.4895  0.2167 -0.3746
14796SOL     OW46255   3.546   2.091   4.641 -0.2812  0.0746 -0.0467
14796SOL    HW146256   3.549   2.131   4.728 -2.1464  1.0408 -0.3964
14796SOL    HW246257   3.615   2.136   4.592  0.4587 -0.1413  0.7516
14797SOL     OW46258   2.813   0.622   7.869  0.5734 -0.0431  0.2453
14797SOL    HW146259   2.772   0.706   7.890  2.9574  0.7294  2.2186
14797SOL    HW246260   2.841   0.587   7.953  0.6510 -2.3202 -0.6444
14798SOL     OW46261   7.952   7.310   7.421  0.3294  0.3501  0.4067
14798SOL    HW146262   7.988   7.391   7.457  0.8836 -0.4111  1.6505
14798SOL    HW246263   7.913   7.335   7.338  0.5637  1.8726  0.7361
14799SOL     OW46264   3.910   0.176   8.499  0.0246 -0.1064  0.0357
14799SOL    HW146265   3.944   0.154   8.412 -0.5322  2.5424 -0.9771
14799SOL    HW246266   3.831   0.124   8.507  1.3603 -2.2360  0.0714
14800SOL     OW46267   7.689   4.113   0.305 -0.1076 -0.1678  0.0579
14800SOL    HW146268   7.661   4.182   0.365  0.3022  0.6489 -0.6687
14800SOL    HW246269   7.659   4.032   0.346  0.1350  0.3699  1.3373
14801SOL     OW46270   8.957   2.518   3.109 -0.5134 -0.0329  0.2369
14801SOL    HW146271   8.926   2.600   3.149  0.3795  0.7029 -0.5360
14801SOL    HW246272   8.877   2.470   3.089 -1.0728  0.8565  0.2809
14802SOL     OW46273   4.129   0.154   0.396  0.0029 -0.0127 -0.0645
14802SOL    HW146274   4.153   0.062   0.413  3.0906  0.9790  1.8194
14802SOL    HW246275   4.083   0.181   0.475 -2.8821 -0.4182 -1.4996
14803SOL     OW46276   3.053   3.305   6.233  0.2585  0.2874 -0.3700
14803SOL    HW146277   3.038   3.210   6.230 -1.3103  0.4903 -0.1127
14803SOL    HW246278   3.137   3.318   6.189  0.7483 -1.2632  0.0449
14804SOL     OW46279   3.934   1.809   5.263 -0.5750 -0.0902  0.0779
14804SOL    HW146280   4.006   1.868   5.286  0.9312 -1.8129 -0.0327
14804SOL    HW246281   3.896   1.784   5.347 -0.9097  0.6445  0.1504
14805SOL     OW46282   6.182   5.676   2.290  0.4810  0.2051  0.3666
14805SOL    HW146283   6.119   5.696   2.359 -0.5756 -1.2891 -0.1163
14805SOL    HW246284   6.198   5.760   2.247 -0.5564  0.7593  1.0149
14806SOL     OW46285   8.067   7.846   1.503  0.7071 -0.1360  0.7218
14806SOL    HW146286   7.995   7.908   1.513  0.9193 -0.0368  1.6907
14806SOL    HW246287   8.031   7.763   1.535  0.3751 -0.5706 -0.7074
14807SOL     OW46288   7.475   5.142   5.007  0.2734 -0.2593 -0.1412
14807SOL    HW146289   7.429   5.222   5.031 -1.7045 -2.0927  3.1141
14807SOL    HW246290   7.412   5.094   4.952  0.1720 -0.7490  0.3781
14808SOL     OW46291   1.802   5.599   2.399  0.1032 -0.1219 -0.1262
14808SOL    HW146292   1.830   5.580   2.309 -0.8683  0.4502 -0.5663
14808SOL    HW246293   1.844   5.531   2.452  0.1494 -0.8834 -1.1076
14809SOL     OW46294   2.527   2.089   6.329  0.6502 -0.3834  0.2030
14809SOL    HW146295   2.616   2.055   6.340  0.6763  0.0914  1.6607
14809SOL    HW246296   2.509   2.079   6.236  2.1997 -0.5671 -0.1039
14810SOL     OW46297   0.175   2.551   1.617  0.1152  0.1766  0.2611
14810SOL    HW146298   0.179   2.455   1.623  2.0119  0.1536 -0.6253
14810SOL    HW246299   0.097   2.575   1.666 -0.6269 -1.8577  0.1676
14811SOL     OW46300   4.335   8.284   3.067 -0.3378  0.0016  0.2035
14811SOL    HW146301   4.306   8.285   3.158 -1.8966  2.1417 -0.2418
14811SOL    HW246302   4.256   8.271   3.016  0.4448 -0.6397 -0.8954
14812SOL     OW46303   7.137   0.646   5.740  0.9112  0.7872 -0.4144
14812SOL    HW146304   7.200   0.597   5.792  0.1639  1.0363  0.7782
14812SOL    HW246305   7.131   0.732   5.784 -0.1228  0.8201 -0.5777
14813SOL     OW46306   7.278   2.650   2.936 -0.7757 -0.7192  0.5791
14813SOL    HW146307   7.261   2.557   2.919  1.2991 -1.0159 -0.1298
14813SOL    HW246308   7.242   2.695   2.859 -0.0035 -1.1439 -0.0423
14814SOL     OW46309   4.046   6.067   5.701  0.1137 -0.7441  0.3756
14814SOL    HW146310   3.991   6.027   5.634  0.8120 -0.5738 -0.3143
14814SOL    HW246311   3.989   6.130   5.744 -0.8235 -2.0097  1.0647
14815SOL     OW46312   4.788   5.143   3.206  0.7994  0.1425 -0.2173
14815SOL    HW146313   4.839   5.062   3.208 -0.1975 -0.4795  0.5362
14815SOL    HW246314   4.707   5.122   3.253 -0.1760  1.1073 -1.4069
14816SOL     OW46315   0.209   3.592   1.547  0.0894  0.0962  0.1409
14816SOL    HW146316   0.138   3.621   1.490 -0.1048  0.4026  0.5371
14816SOL    HW246317   0.283   3.646   1.522  0.2121 -0.2816 -0.3320
14817SOL     OW46318   3.794   7.447   1.207  0.0188  0.3392  0.0266
14817SOL    HW146319   3.734   7.452   1.282 -0.1195  0.7388 -0.1056
14817SOL    HW246320   3.739   7.466   1.131  0.2577  0.4270 -0.1254
14818SOL     OW46321   7.642   6.582   7.223  0.1391  0.8439 -0.3922
14818SOL    HW146322   7.714   6.626   7.267  0.6060 -0.6032  0.3208
14818SOL    HW246323   7.569   6.587   7.285  0.5490 -0.4440  0.2074
14819SOL     OW46324   2.013   8.592   5.848  0.4977 -0.1352  0.8198
14819SOL    HW146325   1.959   8.520   5.881  0.4259 -0.9730 -0.9709
14819SOL    HW246326   1.965   8.671   5.872 -0.7299 -0.8002  0.6757
14820SOL     OW46327   5.060   4.009   7.034 -0.0267  0.4055 -0.2074
14820SOL    HW146328   5.040   4.101   7.019 -0.4384  0.5289  0.9827
14820SOL    HW246329   5.141   4.009   7.084  0.1622  0.1010 -0.5062
14821SOL     OW46330   5.250   6.621   0.274 -0.0620 -0.4635 -0.1004
14821SOL    HW146331   5.329   6.634   0.327 -0.0285 -0.6264 -0.1089
14821SOL    HW246332   5.179   6.617   0.338  0.0438 -1.2147 -0.0216
14822SOL     OW46333   7.432   1.123   5.932  0.4728  0.1072  0.0529
14822SOL    HW146334   7.403   1.191   5.994 -1.7645  0.3840 -1.2073
14822SOL    HW246335   7.395   1.150   5.848  0.7337 -1.9502 -0.7717
14823SOL     OW46336   2.761   2.316   1.664  0.2981 -0.5208 -0.2796
14823SOL    HW146337   2.845   2.359   1.646 -0.0339  0.0005 -0.6204
14823SOL    HW246338   2.782   2.223   1.667  1.1576 -0.3125  1.1165
14824SOL     OW46339   7.504   0.870   5.839 -0.1962 -0.6674  0.2291
14824SOL    HW146340   7.482   0.818   5.917  1.5353  1.1618  2.0432
14824SOL    HW246341   7.517   0.958   5.872  0.5280  0.2018 -2.1978
14825SOL     OW46342   7.440   8.207   5.340  0.3770 -0.3234  0.2533
14825SOL    HW146343   7.484   8.289   5.362  0.7599 -0.4657  0.0293
14825SOL    HW246344   7.390   8.228   5.261 -1.2565  0.2775  1.3915
14826SOL     OW46345   5.123   7.111   0.954 -0.4728  0.1416  0.4479
14826SOL    HW146346   5.109   7.189   1.008  0.2112  0.2196  0.5264
14826SOL    HW246347   5.072   7.127   0.874 -0.0335  0.8516  0.2971
14827SOL     OW46348   3.556   6.218   1.431  0.4491 -0.0420  0.5942
14827SOL    HW146349   3.550   6.291   1.492 -0.8641 -1.0531  1.7252
14827SOL    HW246350   3.565   6.141   1.486  2.2921 -0.7436 -0.5904
14828SOL     OW46351   2.120   0.475   0.239  0.1239  0.7356  0.0194
14828SOL    HW146352   2.111   0.389   0.278 -2.3386 -0.4728 -2.7629
14828SOL    HW246353   2.077   0.534   0.301 -1.4270 -0.6712  0.3682
14829SOL     OW46354   6.418   3.355   4.280 -0.0353 -0.8472 -0.2364
14829SOL    HW146355   6.371   3.423   4.232 -2.3179 -2.2424 -0.1313
14829SOL    HW246356   6.402   3.376   4.372  2.9754  0.8937  0.0087
14830SOL     OW46357   6.605   6.872   2.483  0.4821 -0.4844  0.7358
14830SOL    HW146358   6.599   6.965   2.462 -1.2144 -0.7780 -0.3096
14830SOL    HW246359   6.625   6.869   2.576 -1.1850  0.9542  1.1968
14831SOL     OW46360   6.380   8.339   0.416  0.4225 -0.1226  0.0030
14831SOL    HW146361   6.404   8.312   0.504 -1.4700 -1.0386  0.2952
14831SOL    HW246362   6.440   8.291   0.359 -0.3467 -2.0301  0.6978
14832SOL     OW46363   6.255   3.936   1.200  0.1482  0.1999 -0.0992
14832SOL    HW146364   6.242   3.872   1.270 -4.2516 -1.3129 -1.9015
14832SOL    HW246365   6.184   4.000   1.212 -0.5974  0.0444 -2.8429
14833SOL     OW46366   7.325   0.764   3.929 -0.6600  0.2489  0.0626
14833SOL    HW146367   7.401   0.783   3.875 -1.4688 -1.5276 -1.8241
14833SOL    HW246368   7.290   0.850   3.953  0.2222  1.0868 -1.5586
14834SOL     OW46369   5.049   8.746   8.448 -0.0058 -0.2029  0.1554
14834SOL    HW146370   5.025   8.691   8.523 -1.9542  0.9752  0.4708
14834SOL    HW246371   5.104   8.689   8.394 -2.3269 -2.7193  0.1793
14835SOL     OW46372   0.017   5.487   5.599 -0.1302  0.0620 -0.8450
14835SOL    HW146373   0.055   5.495   5.512  0.5671  2.5223 -0.3724
14835SOL    HW246374   0.092   5.488   5.659 -0.6616 -0.4654 -0.1514
14836SOL     OW46375   6.656   7.577   2.591  0.1729  0.3361 -0.0239
14836SOL    HW146376   6.700   7.525   2.658  2.8294  2.1775 -0.1958
14836SOL    HW246377   6.715   7.575   2.516 -1.2472  0.8867 -1.2094
14837SOL     OW46378   0.301   0.111   5.064 -0.2848  0.1278  0.0618
14837SOL    HW146379   0.335   0.029   5.027  0.2428  0.7914 -0.9710
14837SOL    HW246380   0.240   0.082   5.132 -2.3168 -1.2536 -2.1456
14838SOL     OW46381   0.916   7.997   5.654 -0.5965 -0.0443 -0.2458
14838SOL    HW146382   0.837   8.051   5.656  0.3117  1.4898 -2.2675
14838SOL    HW246383   0.980   8.045   5.707 -0.0522  0.4802 -1.3357
14839SOL     OW46384   6.610   5.573   2.837  0.0454 -0.5582  0.1018
14839SOL    HW146385   6.683   5.532   2.790 -2.1301 -3.0642 -1.3345
14839SOL    HW246386   6.541   5.583   2.771 -1.4467  0.4022  1.7192
14840SOL     OW46387   3.552   4.226   7.802  0.1428  0.3007 -0.2901
14840SOL    HW146388   3.577   4.133   7.805 -0.7961  0.0630  1.8045
14840SOL    HW246389   3.493   4.237   7.877 -0.9851  2.2576 -1.4024
14841SOL     OW46390   4.306   7.459   2.823 -0.1582  0.7469 -0.1576
14841SOL    HW146391   4.258   7.406   2.886 -0.9725  1.2521 -0.3353
14841SOL    HW246392   4.344   7.396   2.763  1.1945  0.2030  1.1946
14842SOL     OW46393   4.839   1.772   5.358  0.0748 -0.4170  0.0722
14842SOL    HW146394   4.869   1.726   5.280  0.8493  0.9614 -0.4854
14842SOL    HW246395   4.744   1.759   5.359  0.0107 -0.2026 -1.2824
14843SOL     OW46396   8.103   2.024   1.433  0.5499 -0.2568 -0.2616
14843SOL    HW146397   8.132   1.991   1.519  1.8888  3.0901  0.7252
14843SOL    HW246398   8.049   2.100   1.454 -0.5676 -0.4016 -2.4030
14844SOL     OW46399   2.691   8.931   4.979 -0.3822 -0.0795  0.3937
14844SOL    HW146400   2.687   8.998   4.911 -1.2953  0.0345  0.5394
14844SOL    HW246401   2.693   8.980   5.062 -2.7276 -0.1875  0.5759
14845SOL     OW46402   7.203   0.669   0.991  0.5745  0.0194 -0.5182
14845SOL    HW146403   7.220   0.657   1.084 -0.2428 -0.4156 -0.4143
14845SOL    HW246404   7.161   0.588   0.963  0.3057  0.3583 -1.1350
14846SOL     OW46405   0.092   6.942   5.224  0.0284 -0.1648 -0.1514
14846SOL    HW146406   0.026   7.010   5.239  1.6914  1.4591  0.1806
14846SOL    HW246407   0.067   6.871   5.283 -2.5423 -0.5034 -1.5016
14847SOL     OW46408   0.530   3.825   4.323 -0.0611  0.1208  0.2331
14847SOL    HW146409   0.473   3.862   4.256  1.4726  1.9802 -0.1549
14847SOL    HW246410   0.549   3.736   4.292 -2.2242 -0.3397  0.0977
14848SOL     OW46411   1.058   1.387   7.181 -0.0897  0.2204  0.5249
14848SOL    HW146412   1.101   1.470   7.203 -1.8128  0.9432  1.4188
14848SOL    HW246413   1.063   1.381   7.086 -1.8984  2.5738  0.1781
14849SOL     OW46414   6.965   5.780   0.741  1.2756 -0.0349  0.3793
14849SOL    HW146415   6.961   5.870   0.709  0.2850 -0.1651  0.0852
14849SOL    HW246416   6.958   5.787   0.836  2.5090  0.2627  0.4559
14850SOL     OW46417   1.734   1.420   7.868  0.4152 -0.0154 -0.6288
14850SOL    HW146418   1.741   1.330   7.836 -0.1252  0.2712 -1.6185
14850SOL    HW246419   1.743   1.413   7.963  1.4914 -0.9818 -0.7742
14851SOL     OW46420   1.551   3.235   3.932 -0.4056  0.2912  0.3972
14851SOL    HW146421   1.455   3.243   3.925 -0.3258  2.2774  0.7867
14851SOL    HW246422   1.580   3.215   3.843 -1.1158  0.7378  0.0510
14852SOL     OW46423   0.606   7.084   6.286  0.0367  0.2336 -0.2527
14852SOL    HW146424   0.587   7.129   6.204  1.1930 -0.8554 -1.1525
14852SOL    HW246425   0.698   7.101   6.302  0.8579 -2.6129 -1.2232
14853SOL     OW46426   3.765   1.157   2.405 -0.1736 -0.2667 -0.0573
14853SOL    HW146427   3.698   1.090   2.414  0.3451 -0.7085  0.6775
14853SOL    HW246428   3.799   1.169   2.494 -0.4338  1.1617 -0.1234
14854SOL     OW46429   2.108   5.322   3.900 -0.2438  0.3500 -0.1143
14854SOL    HW146430   2.114   5.256   3.970 -1.2536 -0.7660 -1.0325
14854SOL    HW246431   2.124   5.273   3.820 -0.0051  1.4405 -0.7475
14855SOL     OW46432   4.140   0.476   2.321 -0.2382 -0.0082 -0.4429
14855SOL    HW146433   4.234   0.493   2.317 -0.0444 -0.8951  0.1901
14855SOL    HW246434   4.100   0.562   2.305  0.6762  0.4944 -0.1141
14856SOL     OW46435   3.283   1.686   8.076  0.2845  0.6207  0.3165
14856SOL    HW146436   3.234   1.623   8.024  1.9460 -2.5253  2.2514
14856SOL    HW246437   3.215   1.740   8.118 -1.3146 -0.8038 -0.3094
14857SOL     OW46438   2.080   0.672   4.031  0.2301 -0.4566 -0.0397
14857SOL    HW146439   2.028   0.648   4.108  0.8401  0.2982  0.6351
14857SOL    HW246440   2.053   0.762   4.011  0.3549 -0.5147 -0.4772
14858SOL     OW46441   4.582   2.135   0.191 -0.4898 -0.0057  0.0198
14858SOL    HW146442   4.568   2.223   0.157  0.3684 -0.1357 -0.7258
14858SOL    HW246443   4.562   2.078   0.116  1.6514 -0.2930 -0.3923
14859SOL     OW46444   6.989   6.805   4.702 -0.2139 -0.5658  0.0728
14859SOL    HW146445   6.987   6.869   4.630  1.4726  1.0504  1.3869
14859SOL    HW246446   6.899   6.806   4.736 -0.2225  1.1520  0.0809
14860SOL     OW46447   8.916   1.670   8.012  0.0085 -0.3883  0.3455
14860SOL    HW146448   8.993   1.644   7.961 -0.8389  0.0244 -1.2035
14860SOL    HW246449   8.881   1.746   7.966 -1.0471 -0.2654  1.3110
14861SOL     OW46450   0.559   4.512   7.139  0.3466  0.1444  0.6224
14861SOL    HW146451   0.479   4.531   7.089 -0.6827 -0.7132  1.8968
14861SOL    HW246452   0.624   4.491   7.072 -0.7336 -0.0167 -0.4079
14862SOL     OW46453   1.203   4.585   2.509 -0.0363  0.3735 -0.6325
14862SOL    HW146454   1.142   4.609   2.579  2.5362 -0.3259  2.0245
14862SOL    HW246455   1.189   4.491   2.496  0.3000  0.2660 -0.2142
14863SOL     OW46456   5.535   8.450   8.112  0.1001 -0.2371 -0.6313
14863SOL    HW146457   5.467   8.512   8.139  0.3750 -1.0625  2.3240
14863SOL    HW246458   5.490   8.366   8.105  0.2862 -0.2666 -1.6915
14864SOL     OW46459   3.957   7.189   2.462 -0.5683 -0.4541  0.1545
14864SOL    HW146460   3.913   7.118   2.509 -1.8367  1.5058  2.1307
14864SOL    HW246461   3.898   7.209   2.389 -0.5416 -0.9875 -0.0162
14865SOL     OW46462   0.401   3.712   5.017 -0.1681 -0.3916 -0.1443
14865SOL    HW146463   0.352   3.781   5.062  0.8736 -1.0598  2.1686
14865SOL    HW246464   0.333   3.656   4.979 -1.1924 -0.3969  1.5655
14866SOL     OW46465   2.838   4.543   2.187  1.0348  0.5500 -0.0599
14866SOL    HW146466   2.914   4.491   2.161  2.1455  2.3818 -0.6709
14866SOL    HW246467   2.770   4.519   2.124  1.2086 -0.8110  0.2359
14867SOL     OW46468   2.555   1.110   0.245 -0.0041  0.0114  0.5186
14867SOL    HW146469   2.623   1.048   0.273  0.6575  1.0844  1.3892
14867SOL    HW246470   2.600   1.194   0.240 -0.9820  0.5084 -0.2153
14868SOL     OW46471   6.237   6.951   1.531  0.2925 -0.5536  0.1431
14868SOL    HW146472   6.156   6.957   1.581  0.1914  0.1964 -0.0947
14868SOL    HW246473   6.279   6.871   1.562 -1.5854 -2.1845 -1.2929
14869SOL     OW46474   0.932   2.570   5.436  0.0067  0.1715 -0.0307
14869SOL    HW146475   1.024   2.576   5.411  0.5918  0.0114  1.9254
14869SOL    HW246476   0.931   2.510   5.511 -1.5533  0.9745  0.6429
14870SOL     OW46477   0.771   0.181   8.924 -0.3092  0.0343 -0.1940
14870SOL    HW146478   0.729   0.266   8.911 -0.5579  0.2873  1.8971
14870SOL    HW246479   0.755   0.134   8.842 -0.0113  2.0321 -1.4741
14871SOL     OW46480   5.958   6.885   7.958 -0.4129  0.0423  0.1539
14871SOL    HW146481   5.937   6.967   7.914 -0.3523  0.2629  0.5403
14871SOL    HW246482   5.879   6.832   7.950 -0.7951  0.5147  0.7826
14872SOL     OW46483   6.605   4.509   2.123 -0.5210  0.1744 -0.3475
14872SOL    HW146484   6.544   4.447   2.163 -0.7478  1.1058  0.8069
14872SOL    HW246485   6.680   4.455   2.097 -1.3648 -0.8140 -0.8098
14873SOL     OW46486   6.606   6.894   5.684 -0.7097  0.2216  0.2856
14873SOL    HW146487   6.579   6.847   5.764 -0.7620 -3.7419 -1.7765
14873SOL    HW246488   6.686   6.850   5.657 -0.5405  1.6471 -1.7064
14874SOL     OW46489   6.614   7.030   6.894 -0.2678 -0.2282  0.3113
14874SOL    HW146490   6.618   7.107   6.952  2.7530 -0.3295  0.3663
14874SOL    HW246491   6.614   6.955   6.953 -1.3532 -0.3157  0.2181
14875SOL     OW46492   5.844   6.838   8.478 -0.2382 -0.3688  0.1048
14875SOL    HW146493   5.753   6.840   8.450 -0.4736  0.5944  0.8906
14875SOL    HW246494   5.894   6.859   8.399 -0.7441 -0.0251 -0.1266
14876SOL     OW46495   8.169   4.410   2.262 -0.1268  0.3645 -0.2602
14876SOL    HW146496   8.155   4.357   2.184  1.0027  0.4487 -0.5338
14876SOL    HW246497   8.081   4.438   2.288 -0.5097  0.3566 -1.5057
14877SOL     OW46498   5.455   8.672   4.021 -0.0648  0.1576  0.0437
14877SOL    HW146499   5.513   8.598   4.044 -0.4425  0.3291  1.7206
14877SOL    HW246500   5.411   8.644   3.941  0.6767 -0.9355 -0.0104
14878SOL     OW46501   2.405   6.910   0.753 -0.0551 -0.2655 -0.1289
14878SOL    HW146502   2.366   6.961   0.825 -0.3393  0.1040 -0.5336
14878SOL    HW246503   2.441   6.976   0.694 -0.1826 -0.5447 -0.5258
14879SOL     OW46504   3.681   7.421   3.238 -0.3837 -0.3391 -0.0595
14879SOL    HW146505   3.775   7.423   3.222 -0.1846 -0.8460  0.9799
14879SOL    HW246506   3.672   7.391   3.328 -1.5684 -1.0330 -0.3797
14880SOL     OW46507   4.461   0.034   7.576 -0.0079 -0.2164 -0.1323
14880SOL    HW146508   4.414   0.060   7.656 -0.0965  1.7040 -0.7612
14880SOL    HW246509   4.398   0.048   7.506  1.0475  1.2377 -0.8551
14881SOL     OW46510   6.352   8.800   5.424 -0.3659 -0.5533 -0.2296
14881SOL    HW146511   6.389   8.785   5.338  1.2930 -0.7282  0.4752
14881SOL    HW246512   6.318   8.715   5.452  2.3683 -1.4399  0.7227
14882SOL     OW46513   5.583   6.750   1.680 -0.5483 -0.4366  0.2328
14882SOL    HW146514   5.670   6.784   1.660 -0.9260 -0.8679 -2.5168
14882SOL    HW246515   5.546   6.813   1.742  1.9306 -0.6434  2.0612
14883SOL     OW46516   6.270   8.199   0.130  0.4790  0.0047  0.2545
14883SOL    HW146517   6.323   8.276   0.113  1.6141 -0.8680 -0.3272
14883SOL    HW246518   6.330   8.137   0.172 -0.3088 -0.6924  0.3925
14884SOL     OW46519   4.551   5.874   0.939  0.4340 -0.2990  0.2641
14884SOL    HW146520   4.458   5.882   0.917  0.1098 -1.2126  1.2534
14884SOL    HW246521   4.566   5.780   0.951  1.5960 -0.2108 -0.2857
14885SOL     OW46522   6.186   0.193   5.523  0.2526 -0.0003  0.1627
14885SOL    HW146523   6.123   0.152   5.583 -0.6689  1.5122  0.2940
14885SOL    HW246524   6.169   0.287   5.532  0.0170  0.2984 -2.5347
14886SOL     OW46525   0.541   1.437   1.298  0.1426 -0.1667 -0.8197
14886SOL    HW146526   0.541   1.353   1.342 -1.1455  0.4551  0.4521
14886SOL    HW246527   0.602   1.426   1.225  2.2812 -1.2942  1.0041
14887SOL     OW46528   6.171   0.502   8.495  0.2171 -0.1201 -0.5138
14887SOL    HW146529   6.138   0.418   8.528 -0.6421  0.4801  0.1944
14887SOL    HW246530   6.158   0.496   8.400  0.6021 -0.9713 -0.5251
14888SOL     OW46531   5.731   8.662   3.890 -0.0325  0.0365  0.0174
14888SOL    HW146532   5.761   8.743   3.931 -1.6014 -0.4423  2.2742
14888SOL    HW246533   5.668   8.689   3.824  0.7580  0.7085 -0.4801
14889SOL     OW46534   1.308   8.432   5.950  0.2697 -0.0905 -0.4516
14889SOL    HW146535   1.316   8.337   5.952  2.7500  0.0568  0.1202
14889SOL    HW246536   1.374   8.463   6.011 -0.0516  2.0272 -1.0851
14890SOL     OW46537   6.246   8.402   7.505 -0.5983 -0.1081  0.6827
14890SOL    HW146538   6.265   8.488   7.467  2.2050  0.5198  3.1316
14890SOL    HW246539   6.227   8.420   7.597 -0.1904 -2.0612  1.2024
14891SOL     OW46540   0.481   1.664   7.451  0.0128 -0.0820  0.2025
14891SOL    HW146541   0.411   1.726   7.472  0.4196  0.4269  0.0976
14891SOL    HW246542   0.508   1.688   7.362  0.0533 -0.5301  0.0922
14892SOL     OW46543   5.604   1.436   0.230  0.3329 -0.0432 -0.0243
14892SOL    HW146544   5.673   1.461   0.291  1.1851 -0.1699 -0.9067
14892SOL    HW246545   5.639   1.361   0.183  0.3041  0.9241 -1.6630
14893SOL     OW46546   8.681   2.599   3.592  0.2258 -0.2202  0.3003
14893SOL    HW146547   8.607   2.539   3.580  0.3603 -0.2107 -0.6677
14893SOL    HW246548   8.756   2.541   3.608  0.1202 -0.2522  0.6922
14894SOL     OW46549   7.923   0.677   6.477  0.2976 -0.2717  0.0859
14894SOL    HW146550   8.002   0.623   6.483  1.1100  0.7704 -0.7864
14894SOL    HW246551   7.892   0.665   6.387 -1.8258 -2.3509  0.9889
14895SOL     OW46552   4.060   6.226   8.599 -0.2963 -0.0162  0.1084
14895SOL    HW146553   4.015   6.229   8.683  1.0709 -0.5103  0.8694
14895SOL    HW246554   3.990   6.208   8.536 -1.1227 -1.3073  1.3258
14896SOL     OW46555   6.641   8.595   4.675 -0.1813  0.0692 -0.1253
14896SOL    HW146556   6.685   8.575   4.758  0.4180  1.4975 -0.0790
14896SOL    HW246557   6.683   8.675   4.644 -0.8986 -0.0447 -1.4552
14897SOL     OW46558   2.969   1.136   3.932 -0.3542  0.0334 -0.2375
14897SOL    HW146559   2.943   1.106   4.019  0.5484  0.9798  0.3824
14897SOL    HW246560   2.924   1.077   3.871 -1.3688 -0.3452  0.8544
14898SOL     OW46561   6.172   5.650   8.168 -0.1957 -0.1914 -0.3081
14898SOL    HW146562   6.118   5.639   8.090  0.3184 -2.4564 -0.4155
14898SOL    HW246563   6.165   5.567   8.214  2.5611 -0.3271  0.0453
14899SOL     OW46564   1.080   1.429   5.499 -0.1209 -0.1171 -0.1097
14899SOL    HW146565   1.156   1.418   5.443  0.1084 -0.3774  0.2476
14899SOL    HW246566   1.014   1.371   5.462 -0.5864  1.0476 -1.1788
14900SOL     OW46567   5.230   8.073   0.450  0.1246  0.5967  0.1177
14900SOL    HW146568   5.147   8.074   0.402  0.6906  0.7026 -0.8875
14900SOL    HW246569   5.219   8.005   0.517 -0.5320  0.1420 -0.4434
14901SOL     OW46570   8.946   3.669   0.935  0.7216  0.6413 -0.0140
14901SOL    HW146571   8.929   3.748   0.985  1.5407  1.3175 -0.7681
14901SOL    HW246572   9.009   3.696   0.868  1.2190 -0.7031 -0.1247
14902SOL     OW46573   6.772   4.286   1.674  0.3235 -0.3639 -0.0875
14902SOL    HW146574   6.746   4.366   1.629 -0.2101 -1.6472 -2.1854
14902SOL    HW246575   6.863   4.271   1.647  1.8301  1.4910  3.3585
14903SOL     OW46576   5.066   4.239   0.538 -0.1153 -0.2306 -0.5136
14903SOL    HW146577   4.978   4.277   0.542 -0.7656 -1.7506  1.2392
14903SOL    HW246578   5.125   4.314   0.530 -1.4836  0.9161 -0.1923
14904SOL     OW46579   4.946   5.882   4.659  0.0906 -0.1831 -0.5960
14904SOL    HW146580   4.980   5.826   4.589  0.0133 -1.1633  0.1269
14904SOL    HW246581   5.021   5.894   4.718 -0.4946 -1.5038  0.4701
14905SOL     OW46582   6.642   0.894   3.109  0.2182  0.3267  0.3197
14905SOL    HW146583   6.698   0.821   3.135 -1.6057 -1.1505  0.2169
14905SOL    HW246584   6.633   0.886   3.014 -0.8088  0.0672  0.4314
14906SOL     OW46585   2.738   7.334   4.993  0.0053 -0.0078 -0.0067
14906SOL    HW146586   2.701   7.254   4.955  1.4560  0.4221 -2.6138
14906SOL    HW246587   2.673   7.401   4.976  0.2251 -0.0169 -0.9663
14907SOL     OW46588   8.078   0.601   3.856 -0.3906  0.0588  0.4398
14907SOL    HW146589   8.023   0.591   3.934 -0.7996  0.7671  0.2482
14907SOL    HW246590   8.068   0.693   3.831 -1.1095 -0.3863 -1.0683
14908SOL     OW46591   0.001   7.735   1.121  0.0552 -0.3995  0.3762
14908SOL    HW146592  -0.058   7.747   1.046  0.9011 -1.1013 -0.4264
14908SOL    HW246593  -0.041   7.666   1.173 -0.4776  0.0080  0.5019
14909SOL     OW46594   7.381   1.910   2.297  0.0965 -0.4528  0.7067
14909SOL    HW146595   7.355   1.958   2.376 -1.5067  0.0646 -0.0943
14909SOL    HW246596   7.299   1.881   2.259  0.8791 -1.1316 -0.5152
14910SOL     OW46597   7.565   4.762   3.028 -0.1184  0.0498  0.0285
14910SOL    HW146598   7.498   4.817   3.067 -1.5697 -2.3187  1.0251
14910SOL    HW246599   7.519   4.685   2.996  1.9680 -1.1417 -0.3244
14911SOL     OW46600   2.374   3.202   5.572  0.2472 -0.1297  0.4604
14911SOL    HW146601   2.397   3.109   5.563 -1.2336 -0.4300 -0.5895
14911SOL    HW246602   2.433   3.247   5.511 -1.1730 -0.7852 -1.5097
14912SOL     OW46603   7.845   4.068   2.241  0.2534  0.1672 -0.0469
14912SOL    HW146604   7.762   4.113   2.258  0.5915  0.9517 -0.4182
14912SOL    HW246605   7.889   4.123   2.177  1.4976  0.2838  0.8677
14913SOL     OW46606   0.289   6.986   5.538  0.2160 -0.4611  0.5322
14913SOL    HW146607   0.361   7.043   5.508  0.2163 -0.5847  0.2958
14913SOL    HW246608   0.210   7.028   5.505  0.3033 -1.3686 -0.9296
14914SOL     OW46609   3.457   6.641   5.387 -0.5272  0.6608  0.6667
14914SOL    HW146610   3.449   6.600   5.473 -0.2711 -1.6733 -0.3562
14914SOL    HW246611   3.505   6.577   5.334 -1.3016  1.7084 -1.4098
14915SOL     OW46612   1.807   3.153   2.721 -0.2377  0.1420  0.0945
14915SOL    HW146613   1.879   3.131   2.781 -0.3845 -1.0664 -0.1358
14915SOL    HW246614   1.747   3.078   2.727  1.1263 -1.5127 -3.6714
14916SOL     OW46615   2.727   2.151   2.536  0.6807  0.0350 -0.0284
14916SOL    HW146616   2.722   2.194   2.621  0.8027 -1.0933  0.5639
14916SOL    HW246617   2.723   2.058   2.555 -0.6809 -0.2268 -1.3690
14917SOL     OW46618   6.685   6.100   8.568  0.1162  0.4648 -0.1271
14917SOL    HW146619   6.769   6.146   8.562  0.8313 -0.6012  1.1995
14917SOL    HW246620   6.696   6.039   8.641 -0.5549 -2.2481 -2.1330
14918SOL     OW46621   0.131   6.181   3.255 -0.3248 -0.4057  0.0780
14918SOL    HW146622   0.194   6.165   3.325 -0.3429  0.3107  0.2593
14918SOL    HW246623   0.184   6.194   3.177 -0.0748  2.5455  0.6405
14919SOL     OW46624   7.391   0.665   0.779 -0.1162 -0.6982  0.1928
14919SOL    HW146625   7.476   0.708   0.790  0.5112 -1.2373 -2.0673
14919SOL    HW246626   7.350   0.670   0.866  1.3212  1.4415  0.8164
14920SOL     OW46627   0.273   5.416   3.873  0.3082  0.0213  0.0038
14920SOL    HW146628   0.215   5.350   3.836 -1.2677  1.8898 -1.0181
14920SOL    HW246629   0.283   5.481   3.804  2.4905  0.5018  0.6872
14921SOL     OW46630   0.040   7.450   1.703 -0.1955 -0.0969 -0.2729
14921SOL    HW146631  -0.008   7.399   1.768 -1.3759  0.5201 -0.6105
14921SOL    HW246632   0.131   7.424   1.713 -0.5123 -0.8381  0.8515
14922SOL     OW46633   2.199   7.666   0.419 -0.6984  0.1077  0.0669
14922SOL    HW146634   2.290   7.682   0.392 -1.1389  1.5000 -0.6946
14922SOL    HW246635   2.200   7.681   0.514 -0.4900  1.9990 -0.2054
14923SOL     OW46636   5.263   7.988   2.047  0.4293  0.0782  0.0700
14923SOL    HW146637   5.270   7.959   1.956 -0.0239  0.6590 -0.1591
14923SOL    HW246638   5.315   8.068   2.051 -2.2018  1.9618 -0.5510
14924SOL     OW46639   4.759   4.844   3.720 -0.1234  0.4456  0.0776
14924SOL    HW146640   4.777   4.756   3.755 -0.3370  0.0264 -0.8262
14924SOL    HW246641   4.746   4.898   3.797  0.8351 -0.1369  0.6712
14925SOL     OW46642   0.975   7.379   8.828  0.5350 -0.5957  0.0011
14925SOL    HW146643   0.975   7.316   8.900 -0.2900 -0.6931 -0.0749
14925SOL    HW246644   0.906   7.442   8.851  1.8134  0.7265  0.4418
14926SOL     OW46645   3.971   3.805   5.624 -0.2924 -0.0765 -0.5559
14926SOL    HW146646   3.982   3.710   5.636  2.4508  0.0315 -1.5773
14926SOL    HW246647   3.905   3.812   5.554 -0.2737 -1.2449 -0.7112
14927SOL     OW46648   0.951   5.733   3.059  0.3384  0.2345  0.4573
14927SOL    HW146649   0.947   5.677   3.137  0.5883 -0.6583 -0.1607
14927SOL    HW246650   0.937   5.674   2.986  2.7720  0.5592 -0.3768
14928SOL     OW46651   0.126   3.782   3.354 -0.2215  0.0545  0.2064
14928SOL    HW146652   0.135   3.707   3.294 -0.2803  0.5733 -0.4675
14928SOL    HW246653   0.123   3.743   3.441 -2.6458 -0.9476 -0.2441
14929SOL     OW46654   2.252   1.759   2.593  0.3175 -0.3919 -0.4724
14929SOL    HW146655   2.268   1.817   2.518 -1.6294  2.0767  0.8821
14929SOL    HW246656   2.318   1.784   2.657  0.1763 -0.5013 -0.2852
14930SOL     OW46657   3.960   8.329   7.297  0.1435  0.4045 -0.0302
14930SOL    HW146658   3.993   8.241   7.316 -0.5764  0.4488  1.5474
14930SOL    HW246659   3.921   8.359   7.379  0.1695  2.1202 -0.5979
14931SOL     OW46660   5.211   0.992   2.521 -0.9762  0.2150 -0.1281
14931SOL    HW146661   5.240   1.067   2.468  0.0816 -0.8526 -1.1181
14931SOL    HW246662   5.130   0.964   2.479 -0.8964  0.2564 -0.3130
14932SOL     OW46663   3.849   4.993   1.717 -0.3658  0.3551  0.3379
14932SOL    HW146664   3.932   5.016   1.676 -0.8462 -1.1242 -1.6469
14932SOL    HW246665   3.789   5.063   1.691 -0.9085 -0.9908 -2.5815
14933SOL     OW46666   1.161   5.383   3.910 -0.0259 -0.2469  0.4319
14933SOL    HW146667   1.078   5.393   3.956  1.7411  0.4047  3.8490
14933SOL    HW246668   1.183   5.472   3.880  0.0949 -0.1470  0.8131
14934SOL     OW46669   7.206   1.861   3.051  0.7361 -0.3455  0.0887
14934SOL    HW146670   7.174   1.945   3.085  1.2727  0.2412 -0.8044
14934SOL    HW246671   7.247   1.819   3.126 -1.6323 -0.8934  1.1372
14935SOL     OW46672   6.105   1.965   2.826 -0.2548  0.3431  0.1332
14935SOL    HW146673   6.031   2.022   2.848 -2.3912 -2.2084 -0.0466
14935SOL    HW246674   6.143   1.941   2.910  2.5418  4.0347  0.2184
14936SOL     OW46675   2.476   3.794   5.096 -0.0729 -0.2742 -0.1276
14936SOL    HW146676   2.559   3.818   5.138  0.5197  0.0677 -1.4416
14936SOL    HW246677   2.500   3.724   5.034 -0.0199  2.1660 -3.1127
14937SOL     OW46678   8.885   0.969   0.122 -0.0889  0.2848  0.2538
14937SOL    HW146679   8.921   0.946   0.036  2.0936  0.2059  1.1322
14937SOL    HW246680   8.854   0.886   0.158  0.6197  0.0145  0.2556
14938SOL     OW46681   6.742   3.441   6.232 -0.1335  0.3274 -0.0041
14938SOL    HW146682   6.730   3.523   6.185 -0.6119 -0.6367 -1.6745
14938SOL    HW246683   6.659   3.395   6.220  0.0155 -0.2777  1.1682
14939SOL     OW46684   1.312   3.402   4.641 -0.7257 -0.2791 -0.1266
14939SOL    HW146685   1.327   3.446   4.557  2.0829  0.3334  0.5645
14939SOL    HW246686   1.236   3.447   4.678  0.0236  1.7848 -0.9048
14940SOL     OW46687   5.323   1.321   5.902 -0.0590 -0.0649  0.1378
14940SOL    HW146688   5.360   1.375   5.972  1.0465  0.3753 -0.7695
14940SOL    HW246689   5.266   1.381   5.853 -0.3406 -0.2214  0.2660
14941SOL     OW46690   0.679   1.143   7.906  0.1159 -0.4861 -0.4941
14941SOL    HW146691   0.672   1.108   7.995  0.2984 -1.0180 -0.6865
14941SOL    HW246692   0.596   1.121   7.865  0.0793 -0.3474 -0.4954
14942SOL     OW46693   3.421   5.015   0.971  0.5499 -0.2021 -0.8616
14942SOL    HW146694   3.409   4.942   0.911 -1.0863  0.9509 -2.0121
14942SOL    HW246695   3.435   5.091   0.915 -0.7753  0.8758  0.1824
14943SOL     OW46696   1.140   7.424   0.222 -0.5069  0.1191 -0.0605
14943SOL    HW146697   1.171   7.368   0.293 -1.0195 -1.3502 -0.9522
14943SOL    HW246698   1.122   7.508   0.264  1.2793 -0.0288  1.1186
14944SOL     OW46699   1.531   2.017   5.681  0.0525  0.3898  0.6288
14944SOL    HW146700   1.541   1.946   5.743 -1.9153 -1.3593 -0.9002
14944SOL    HW246701   1.534   1.975   5.595 -0.5126  2.2460 -0.3689
14945SOL     OW46702   3.851   5.629   7.995 -0.5615 -0.1170  0.2481
14945SOL    HW146703   3.760   5.607   7.977 -0.4551  0.5456 -1.2891
14945SOL    HW246704   3.875   5.690   7.925  0.5306  1.1525  1.6738
14946SOL     OW46705   6.577   2.584   6.208 -0.0834 -0.0656  0.0173
14946SOL    HW146706   6.519   2.565   6.281  0.6247  1.8034  1.1483
14946SOL    HW246707   6.528   2.647   6.155 -0.3662 -0.9812 -0.8367
14947SOL     OW46708   6.675   5.212   2.025  0.1817 -0.2456  0.4077
14947SOL    HW146709   6.597   5.236   2.075 -0.4366  0.4514 -0.8443
14947SOL    HW246710   6.648   5.134   1.975  0.1113  0.2724 -0.3859
14948SOL     OW46711   7.811   1.863   6.506  0.1162 -0.2501 -0.0041
14948SOL    HW146712   7.750   1.801   6.466 -1.2559  0.8318  0.3229
14948SOL    HW246713   7.757   1.938   6.529  1.5379  0.6379  0.5855
14949SOL     OW46714   6.607   2.350   7.093  0.4388  0.0734  0.1573
14949SOL    HW146715   6.674   2.283   7.079  1.2234  0.0799  3.1979
14949SOL    HW246716   6.528   2.300   7.115  0.2209  0.1349 -0.4536
14950SOL     OW46717   7.252   6.400   2.991  0.5057 -0.3723 -0.1762
14950SOL    HW146718   7.336   6.423   2.950  0.1798 -0.3631 -0.8601
14950SOL    HW246719   7.260   6.431   3.081  0.7593  0.7903 -0.5852
14951SOL     OW46720   6.115   3.830   2.743 -0.0735  0.3960  0.0428
14951SOL    HW146721   6.106   3.867   2.831 -0.7372  0.9554 -0.2547
14951SOL    HW246722   6.149   3.902   2.690 -0.0676  0.1830 -0.2450
14952SOL     OW46723   8.092   3.081   2.726 -0.3632 -0.0587 -0.7638
14952SOL    HW146724   8.014   3.049   2.771 -0.6718  0.7380 -0.7069
14952SOL    HW246725   8.132   3.142   2.788  0.7119 -1.0033 -0.5069
14953SOL     OW46726   0.622   3.045   1.374 -0.4526  0.2129 -0.2571
14953SOL    HW146727   0.628   3.119   1.434  0.2193 -1.2110  1.5364
14953SOL    HW246728   0.529   3.038   1.353 -0.6139  1.1102  0.1179
14954SOL     OW46729   3.741   6.465   5.132 -0.3782 -0.7665 -0.9066
14954SOL    HW146730   3.662   6.448   5.182  1.1825 -1.4272  1.4990
14954SOL    HW246731   3.804   6.399   5.162  1.4130  0.3560 -1.9615
14955SOL     OW46732   4.813   1.102   7.608 -0.0594  0.3072 -0.3758
14955SOL    HW146733   4.847   1.027   7.558  1.1145  0.8055 -0.3397
14955SOL    HW246734   4.799   1.170   7.543  0.0046  0.4517 -0.2383
14956SOL     OW46735   7.877   7.107   5.235  0.5428  0.0006  0.1348
14956SOL    HW146736   7.915   7.134   5.151  0.5540  1.3527  0.5384
14956SOL    HW246737   7.911   7.171   5.298 -1.6283  0.7423  0.6728
14957SOL     OW46738   1.748   3.410   3.313 -0.2176  0.6421 -0.2263
14957SOL    HW146739   1.808   3.375   3.247  1.0257  3.1509 -0.5776
14957SOL    HW246740   1.795   3.402   3.396 -0.6798 -0.1347 -0.0366
14958SOL     OW46741   8.657   8.645   1.915  0.7737 -0.5311  0.2881
14958SOL    HW146742   8.606   8.679   1.842  0.3006 -0.3933  0.6772
14958SOL    HW246743   8.742   8.623   1.877  1.2129  1.3797  0.0946
14959SOL     OW46744   6.321   4.969   1.633  0.1712  0.4404  0.0825
14959SOL    HW146745   6.241   5.022   1.633 -0.0297  0.1623  1.0200
14959SOL    HW246746   6.389   5.028   1.602 -0.5709  0.3812 -1.8049
14960SOL     OW46747   8.997   6.542   5.587  0.1412 -0.7500 -0.1749
14960SOL    HW146748   9.001   6.512   5.678 -0.3130  1.5600  0.6705
14960SOL    HW246749   8.913   6.587   5.581 -0.4743 -2.0146 -2.1787
14961SOL     OW46750   5.189   7.930   5.316 -0.3404 -0.1720 -0.4851
14961SOL    HW146751   5.267   7.960   5.269 -0.2449 -2.0176 -1.6152
14961SOL    HW246752   5.207   7.838   5.335 -2.1089 -0.5512 -0.4898
14962SOL     OW46753   7.726   5.682   0.162 -0.2833 -0.0711 -0.3190
14962SOL    HW146754   7.656   5.619   0.145  1.2681 -1.8300 -0.5623
14962SOL    HW246755   7.718   5.702   0.255 -2.3225  1.3923 -0.7249
14963SOL     OW46756   2.237   8.003   1.690 -0.2822  0.0115 -0.2737
14963SOL    HW146757   2.266   8.033   1.776 -0.5837 -2.0890  0.6119
14963SOL    HW246758   2.217   8.084   1.642  0.1153  1.2364  1.5265
14964SOL     OW46759   4.314   7.016   2.869 -0.3852 -0.4136 -0.4567
14964SOL    HW146760   4.224   7.025   2.838 -0.3061  0.8112 -0.3558
14964SOL    HW246761   4.319   6.926   2.901 -1.0622 -1.0634 -2.0658
14965SOL     OW46762   2.090   1.926   3.522  0.3061  0.3181  0.2662
14965SOL    HW146763   2.089   1.847   3.576 -0.2412  1.2038  1.6097
14965SOL    HW246764   2.133   1.900   3.441  0.5258 -1.2371  0.8609
14966SOL     OW46765   8.533   7.825   4.412  0.0066 -0.2049  0.0690
14966SOL    HW146766   8.605   7.872   4.370 -0.2089  1.1590  1.1629
14966SOL    HW246767   8.454   7.853   4.366 -0.1697  0.8895  0.9803
14967SOL     OW46768   4.293   6.299   6.273  0.2040  0.0730  0.0199
14967SOL    HW146769   4.266   6.361   6.341  1.2954 -0.5911  1.0787
14967SOL    HW246770   4.216   6.242   6.261 -0.3431  0.8078 -0.0268
14968SOL     OW46771   6.599   0.017   7.930 -0.4190 -0.0268 -0.2811
14968SOL    HW146772   6.507   0.038   7.913 -0.2624  0.3539 -0.6605
14968SOL    HW246773   6.609  -0.073   7.899 -0.3878  0.3100 -1.2603
14969SOL     OW46774   8.756   0.672   1.528  0.3062  0.2617  0.1529
14969SOL    HW146775   8.772   0.633   1.443  1.6730 -1.1786  1.0187
14969SOL    HW246776   8.661   0.687   1.531  0.1784 -0.1820 -1.3727
14970SOL     OW46777   1.945   0.896   7.816  0.0261  0.1686  0.4327
14970SOL    HW146778   2.021   0.935   7.773  0.2191  1.9563  2.2487
14970SOL    HW246779   1.976   0.811   7.847  0.6587  0.0202 -0.5618
14971SOL     OW46780   0.874   2.521   2.965  0.5388  0.4103  0.0500
14971SOL    HW146781   0.885   2.593   2.903  1.8981  0.1564 -0.0287
14971SOL    HW246782   0.920   2.549   3.044 -3.9915  2.2518  2.4064
14972SOL     OW46783   0.498   6.611   6.889 -0.4361 -0.5984  0.2386
14972SOL    HW146784   0.468   6.647   6.806  0.2590 -0.2860  0.1148
14972SOL    HW246785   0.543   6.684   6.932 -0.1895 -0.9489  0.5823
14973SOL     OW46786   6.027   3.633   6.705  0.3143  0.4220  0.3780
14973SOL    HW146787   5.955   3.613   6.765  0.0899  3.1417  1.1469
14973SOL    HW246788   6.076   3.703   6.749  1.6677  0.7109 -1.4694
14974SOL     OW46789   0.663   5.288   7.374  0.1661 -0.0262  0.4595
14974SOL    HW146790   0.610   5.297   7.453 -0.6764  1.3844 -0.2363
14974SOL    HW246791   0.709   5.204   7.385 -2.5987 -1.5930  0.8436
14975SOL     OW46792   6.166   6.015   0.054  0.2504  0.3320 -1.1058
14975SOL    HW146793   6.122   5.937   0.089 -0.7194  1.7920  1.1675
14975SOL    HW246794   6.102   6.054  -0.006 -0.2875  0.6731 -0.3326
14976SOL     OW46795   7.730   7.554   5.611 -0.2568  0.2903 -0.3448
14976SOL    HW146796   7.759   7.611   5.683 -0.4557 -0.2591  0.1824
14976SOL    HW246797   7.692   7.614   5.547  0.6364  0.8687 -0.3536
14977SOL     OW46798   2.836   8.544   7.077  0.1794  0.2648 -0.0449
14977SOL    HW146799   2.915   8.491   7.091  0.1498  0.2450  0.0524
14977SOL    HW246800   2.844   8.577   6.988 -1.0716 -2.1079 -1.1613
14978SOL     OW46801   7.967   5.483   3.597  0.6670 -0.1194  0.3932
14978SOL    HW146802   7.904   5.417   3.568  0.6521  0.5915 -1.2919
14978SOL    HW246803   7.920   5.566   3.591  0.8521  0.1501  1.9877
14979SOL     OW46804   1.993   3.649   2.995  0.0721 -0.1678  0.1621
14979SOL    HW146805   2.067   3.699   2.960  0.2690 -0.6360 -0.0916
14979SOL    HW246806   2.013   3.638   3.088 -0.7644  1.6508  0.6120
14980SOL     OW46807   1.759   1.498   8.640  0.1835  0.0847  0.6208
14980SOL    HW146808   1.701   1.571   8.664 -0.0832  0.0455  0.1005
14980SOL    HW246809   1.706   1.420   8.658 -0.2377  0.0617 -0.6099
14981SOL     OW46810   6.648   8.456   6.064 -0.0057  0.2610  0.5974
14981SOL    HW146811   6.731   8.501   6.074 -0.5521  1.0904  1.5687
14981SOL    HW246812   6.655   8.378   6.119 -0.5882  1.4067  2.4065
14982SOL     OW46813   8.531   4.180   0.771 -0.3166 -0.0046  0.2184
14982SOL    HW146814   8.615   4.134   0.773 -0.1090  0.2109 -1.7206
14982SOL    HW246815   8.519   4.205   0.679 -2.7509 -0.5024  0.3191
14983SOL     OW46816   5.143   0.813   4.769 -0.6290 -0.1730  0.6317
14983SOL    HW146817   5.130   0.719   4.780 -1.6444 -0.1438 -0.1626
14983SOL    HW246818   5.145   0.827   4.675  2.4685  0.2617  0.6663
14984SOL     OW46819   5.392   4.365   8.700 -0.0096  0.1564  0.1160
14984SOL    HW146820   5.450   4.315   8.757  0.3803 -0.6753 -0.9716
14984SOL    HW246821   5.435   4.450   8.692  0.9432 -0.3587 -0.4593
14985SOL     OW46822   2.192   2.840   6.538 -0.0581 -0.6050  0.6133
14985SOL    HW146823   2.215   2.836   6.631 -1.3271 -2.1320  0.9040
14985SOL    HW246824   2.124   2.907   6.534 -0.7415 -1.2615  0.9787
14986SOL     OW46825   8.715   7.096   8.731 -0.0400 -0.3560  0.1101
14986SOL    HW146826   8.695   7.030   8.665  0.1280  0.1888 -0.4986
14986SOL    HW246827   8.658   7.075   8.805 -0.6442 -0.6345 -0.4268
14987SOL     OW46828   2.004   4.719   8.272  0.1444 -0.7212 -0.4241
14987SOL    HW146829   1.918   4.709   8.231  0.2153 -0.1624 -0.7149
14987SOL    HW246830   2.060   4.752   8.202 -0.4319  3.4038  0.7777
14988SOL     OW46831   3.969   7.891   5.932 -0.5224  0.2454 -0.2278
14988SOL    HW146832   4.006   7.955   5.994  2.1724 -1.3695  0.0137
14988SOL    HW246833   3.885   7.929   5.906 -0.8363  2.0031  2.7955
14989SOL     OW46834   7.411   6.214   7.839  0.2175  0.4254  0.0509
14989SOL    HW146835   7.330   6.258   7.813  0.9017  1.2795 -0.6864
14989SOL    HW246836   7.429   6.153   7.768 -0.6821 -1.0436  1.0301
14990SOL     OW46837   5.053   2.825   2.346  0.3188 -0.6491 -0.1360
14990SOL    HW146838   5.014   2.818   2.258 -0.2959 -0.4124  0.1099
14990SOL    HW246839   5.108   2.903   2.341 -0.0736 -0.3698 -0.1829
14991SOL     OW46840   5.283   5.805   0.521  0.3642 -0.1783  0.4163
14991SOL    HW146841   5.295   5.798   0.427  0.4336 -2.6702  0.5426
14991SOL    HW246842   5.205   5.858   0.532  0.9418  1.0022 -0.9935
14992SOL     OW46843   1.241   0.110   8.046 -0.1878 -0.0680  0.2404
14992SOL    HW146844   1.329   0.077   8.063 -0.3506 -0.6510 -0.0115
14992SOL    HW246845   1.202   0.045   7.988 -0.9371 -0.0424  0.6978
14993SOL     OW46846   2.638   7.588   7.135 -0.0601 -0.2832  0.4349
14993SOL    HW146847   2.577   7.554   7.201 -0.6921  0.0760  0.0484
14993SOL    HW246848   2.722   7.548   7.157 -0.6048 -1.4657  0.4769
14994SOL     OW46849   3.217   8.024   0.808 -0.3307  0.2726  0.5581
14994SOL    HW146850   3.304   8.055   0.834 -1.8264  1.7729  4.5487
14994SOL    HW246851   3.179   8.098   0.761  0.7430 -0.7284 -2.0535
14995SOL     OW46852   4.220   4.386   4.084  0.0660  0.1234 -0.7675
14995SOL    HW146853   4.132   4.384   4.047 -0.3309 -0.5284  0.1728
14995SOL    HW246854   4.229   4.303   4.131  0.9676  0.4298 -0.3600
14996SOL     OW46855   5.285   3.179   4.024 -0.2682  0.1472  0.0713
14996SOL    HW146856   5.263   3.098   4.070 -0.0808 -0.6548 -1.2140
14996SOL    HW246857   5.316   3.238   4.093 -0.1703 -0.9490  0.9932
14997SOL     OW46858   8.516   3.635   5.957 -1.0217  0.2856  0.1630
14997SOL    HW146859   8.488   3.551   5.992  1.9829 -1.7543 -1.8331
14997SOL    HW246860   8.566   3.676   6.027 -0.8950 -0.4873  0.5225
14998SOL     OW46861   7.878   4.797   7.151  0.0184  0.6102 -0.0468
14998SOL    HW146862   7.821   4.750   7.211 -0.5094 -0.9747 -1.7192
14998SOL    HW246863   7.865   4.890   7.173 -2.1405  0.2095  0.5362
14999SOL     OW46864   3.476   3.172   1.882 -0.5183  0.2277 -0.3831
14999SOL    HW146865   3.505   3.081   1.887 -2.9924 -0.5659  1.7239
14999SOL    HW246866   3.391   3.172   1.925 -1.2329  3.3148 -1.5692
15000SOL     OW46867   3.139   5.884   5.172  0.0295  0.0188  0.6257
15000SOL    HW146868   3.220   5.864   5.218  0.1025 -0.3770  0.3343
15000SOL    HW246869   3.158   5.863   5.080 -0.8952 -1.6750  0.7702
15001SOL     OW46870   0.138   8.433   6.761  0.1199 -0.5671  0.3592
15001SOL    HW146871   0.231   8.415   6.755  0.5943  1.6737  0.0465
15001SOL    HW246872   0.130   8.497   6.832 -1.0285  0.0392 -0.2804
15002SOL     OW46873   8.163   0.742   5.619  0.9505  0.1657 -0.7911
15002SOL    HW146874   8.098   0.680   5.650  0.4984  0.5878 -0.8728
15002SOL    HW246875   8.160   0.735   5.523 -1.6688  2.7835 -1.0403
15003SOL     OW46876   0.641   2.244   6.232 -0.0997 -0.0620 -0.0643
15003SOL    HW146877   0.574   2.240   6.163  1.4098  2.4698 -1.8372
15003SOL    HW246878   0.608   2.309   6.294  0.6360  1.1773 -0.9322
15004SOL     OW46879   2.044   5.799   0.435 -0.2021  0.0761  0.2128
15004SOL    HW146880   2.072   5.711   0.411  1.8122  1.2506 -2.2124
15004SOL    HW246881   1.961   5.812   0.388  1.0347  0.4601 -1.9844
15005SOL     OW46882   7.191   2.931   4.884  0.4313  0.0245 -0.4111
15005SOL    HW146883   7.234   3.016   4.873 -1.1095  1.0015  0.6673
15005SOL    HW246884   7.250   2.881   4.940  1.0927  0.5773 -0.5975
15006SOL     OW46885   0.145   4.134   7.199 -0.2361  0.2696  0.4138
15006SOL    HW146886   0.182   4.194   7.264  0.4347  0.2605  0.0534
15006SOL    HW246887   0.213   4.127   7.132 -0.6014 -0.3384  0.0992
15007SOL     OW46888   2.645   2.230   4.341  0.6328  0.3586  0.5359
15007SOL    HW146889   2.633   2.147   4.295  0.6123  1.5071 -1.7057
15007SOL    HW246890   2.740   2.236   4.355  0.8948  0.8085 -1.1558
15008SOL     OW46891   3.004   8.493   3.910  0.3133 -0.3436  0.1632
15008SOL    HW146892   3.082   8.520   3.863 -0.9285 -0.1233 -1.9056
15008SOL    HW246893   3.033   8.423   3.969  2.3964  1.1162  0.9788
15009SOL     OW46894   4.887   7.968   5.190 -0.0803  0.2094 -0.3462
15009SOL    HW146895   4.904   7.968   5.096  0.4080  1.3741 -0.2732
15009SOL    HW246896   4.974   7.966   5.230 -0.2188  1.3188  0.0535
15010SOL     OW46897   0.914   5.999   0.546 -0.0505  0.3784 -0.1501
15010SOL    HW146898   0.827   5.963   0.529  0.3804 -1.1587  0.7111
15010SOL    HW246899   0.897   6.076   0.601 -0.9059  0.5658 -0.6593
15011SOL     OW46900   3.626   8.263   7.752 -0.5083  0.7719  0.3141
15011SOL    HW146901   3.608   8.250   7.845 -0.7034 -2.1081 -0.0080
15011SOL    HW246902   3.710   8.218   7.738 -1.0635  0.0986 -1.0641
15012SOL     OW46903   7.792   6.086   0.320 -0.4591  0.4548 -0.3242
15012SOL    HW146904   7.739   6.037   0.382 -1.1914  0.6066 -0.8139
15012SOL    HW246905   7.760   6.058   0.234 -1.5066  2.3802 -0.6307
15013SOL     OW46906   6.372   5.019   2.157  0.1321  0.2711  0.2739
15013SOL    HW146907   6.331   5.106   2.158 -0.5805 -0.0297 -0.8434
15013SOL    HW246908   6.303   4.961   2.124  1.0607 -0.4726 -0.3868
15014SOL     OW46909   0.469   3.034   4.120 -0.6039 -0.4500  0.3525
15014SOL    HW146910   0.466   3.120   4.162 -0.5541 -0.0082 -0.5210
15014SOL    HW246911   0.561   3.022   4.097 -1.0751  0.9502 -2.8247
15015SOL     OW46912   7.212   8.907   7.904 -1.0084  0.1550  0.3904
15015SOL    HW146913   7.142   8.868   7.956 -1.2390  2.4088  1.8604
15015SOL    HW246914   7.246   8.833   7.852 -2.5068 -1.6094  1.7685
15016SOL     OW46915   7.316   8.933   3.955  0.0918  0.2208 -0.4608
15016SOL    HW146916   7.381   8.958   3.889  0.5814  1.0361  0.3115
15016SOL    HW246917   7.312   8.837   3.950  2.1512  0.0466  0.1815
15017SOL     OW46918   4.289   6.410   5.849 -0.0962 -0.1486 -0.1839
15017SOL    HW146919   4.298   6.315   5.857 -0.9709 -0.1204  1.8124
15017SOL    HW246920   4.256   6.438   5.935 -1.6569  1.7383 -1.3134
15018SOL     OW46921   6.771   6.285   5.300 -0.2498  0.5592 -0.0835
15018SOL    HW146922   6.850   6.288   5.246  0.4672 -0.3263  0.8906
15018SOL    HW246923   6.786   6.350   5.369  0.7715 -1.3354  1.5754
15019SOL     OW46924   3.560   2.793   3.846 -0.1421 -0.1723 -0.2415
15019SOL    HW146925   3.636   2.744   3.876 -1.4155 -1.4468  1.0498
15019SOL    HW246926   3.526   2.836   3.925 -0.7610  0.3897 -0.7972
15020SOL     OW46927   0.028   4.005   1.694  0.4175 -0.2207  0.0541
15020SOL    HW146928  -0.020   3.963   1.765 -1.3024  2.5196  0.6767
15020SOL    HW246929  -0.009   3.966   1.614  2.1562 -3.1024  0.5343
15021SOL     OW46930   8.460   5.547   3.212  1.0953  0.1948  0.4371
15021SOL    HW146931   8.479   5.510   3.298 -1.1589 -1.0982  0.4411
15021SOL    HW246932   8.365   5.546   3.206  1.2006 -0.2922 -2.2869
15022SOL     OW46933   1.705   5.352   4.392  0.1192  0.1640 -0.2524
15022SOL    HW146934   1.679   5.292   4.323  0.7952 -0.6313  0.1742
15022SOL    HW246935   1.666   5.436   4.367 -1.9161 -0.7203 -0.2004
15023SOL     OW46936   5.452   8.617   2.136 -0.8655 -0.4581 -0.0627
15023SOL    HW146937   5.490   8.579   2.216 -0.2800 -0.9514 -0.5638
15023SOL    HW246938   5.408   8.697   2.166  1.5474  0.7789  0.3818
15024SOL     OW46939   7.044   2.548   0.547 -0.4999  0.3023 -0.1358
15024SOL    HW146940   7.026   2.470   0.600  0.0900 -0.8489 -1.5616
15024SOL    HW246941   7.082   2.611   0.608 -0.5019 -0.7106  0.9393
15025SOL     OW46942   0.306   5.754   2.052 -0.6329  0.3809  0.4684
15025SOL    HW146943   0.322   5.787   2.141  0.0629 -2.6075  1.5756
15025SOL    HW246944   0.222   5.709   2.058  0.1984 -1.3083  0.1352
15026SOL     OW46945   0.617   7.107   2.992 -0.1141  0.0461 -0.0418
15026SOL    HW146946   0.532   7.136   3.026 -0.4526 -1.9350  0.9551
15026SOL    HW246947   0.601   7.093   2.899 -1.1526 -1.1143  0.2881
15027SOL     OW46948   7.670   2.152   8.993 -0.1605  0.1536  0.3833
15027SOL    HW146949   7.613   2.108   9.056 -1.7108  0.6780 -0.6034
15027SOL    HW246950   7.662   2.100   8.913 -1.1590  1.5500 -0.4716
15028SOL     OW46951   4.926   6.760   3.218  0.7000  0.1754 -0.5696
15028SOL    HW146952   4.881   6.682   3.252  0.9179  0.0106 -0.6557
15028SOL    HW246953   4.937   6.816   3.295 -2.5783  1.7231 -1.0553
15029SOL     OW46954   1.547   2.561   7.557 -0.1484 -0.2221  0.3068
15029SOL    HW146955   1.602   2.580   7.634 -2.3540 -2.9074  2.7890
15029SOL    HW246956   1.481   2.630   7.557 -0.1765 -0.2419  0.8820
15030SOL     OW46957   2.709   0.526   7.040  0.0440  0.7570  0.0776
15030SOL    HW146958   2.736   0.603   7.091 -1.2674 -0.1460  2.2969
15030SOL    HW246959   2.708   0.557   6.949 -1.5818  3.7786  0.9537
15031SOL     OW46960   0.960   7.446   0.606  0.5184 -0.5074 -0.1117
15031SOL    HW146961   0.878   7.406   0.576  0.3570 -1.3939  1.3769
15031SOL    HW246962   0.936   7.490   0.688  1.1138  0.9934 -0.7261
15032SOL     OW46963   7.095   8.856   4.650 -0.1233  0.0054 -0.4565
15032SOL    HW146964   7.183   8.885   4.628 -0.6153  1.6188 -0.4156
15032SOL    HW246965   7.108   8.791   4.719  1.0405  0.0615 -0.6041
15033SOL     OW46966   1.543   7.867   8.851  0.5063  0.0545  0.4176
15033SOL    HW146967   1.519   7.806   8.921 -1.8690 -0.1123 -0.4673
15033SOL    HW246968   1.535   7.816   8.771  2.6713  0.4023 -0.0930
15034SOL     OW46969   2.771   0.588   7.412 -0.5686 -0.0306 -0.0267
15034SOL    HW146970   2.794   0.497   7.393  1.5877  0.7130 -1.3923
15034SOL    HW246971   2.778   0.632   7.327  0.2000  1.7367  0.8980
15035SOL     OW46972   5.383   4.612   8.066 -0.5094  0.3876 -0.2930
15035SOL    HW146973   5.389   4.650   8.154 -1.7575  2.1959 -0.9318
15035SOL    HW246974   5.401   4.519   8.079 -0.1463  0.6962  1.7843
15036SOL     OW46975   0.758   3.218   0.163  0.0552 -0.1035 -0.5379
15036SOL    HW146976   0.773   3.254   0.076 -3.1527  0.1745 -1.0741
15036SOL    HW246977   0.669   3.184   0.161 -0.0172 -0.4162  2.5417
15037SOL     OW46978   6.420   1.019   1.344 -0.7794  0.1206  0.0183
15037SOL    HW146979   6.393   0.947   1.400 -1.8969  0.6401  0.1597
15037SOL    HW246980   6.454   1.085   1.404 -1.0330  0.2645  0.0055
15038SOL     OW46981   0.735   7.807   5.955 -0.1863  0.2913  0.0501
15038SOL    HW146982   0.824   7.774   5.948 -0.2294  0.3183 -0.7609
15038SOL    HW246983   0.744   7.897   5.987  0.4225  1.8216 -3.8696
15039SOL     OW46984   7.903   6.395   7.496 -0.2287 -0.1645  0.2827
15039SOL    HW146985   7.997   6.390   7.513  0.0708 -0.5110 -1.2356
15039SOL    HW246986   7.864   6.417   7.580  1.2353  0.2782  0.8838
15040SOL     OW46987   8.402   7.268   4.866 -0.0459 -0.2470 -0.2236
15040SOL    HW146988   8.383   7.309   4.950 -2.5637 -0.1093 -0.7885
15040SOL    HW246989   8.417   7.176   4.887  1.2002  0.1088  0.5490
15041SOL     OW46990   5.889   7.192   4.927 -0.4065 -0.0289 -0.1089
15041SOL    HW146991   5.854   7.252   4.992  1.3430  1.6988 -0.6719
15041SOL    HW246992   5.814   7.168   4.873 -1.2660  1.1466  0.5205
15042SOL     OW46993   7.645   1.619   7.684 -0.0631  0.4002  0.4949
15042SOL    HW146994   7.710   1.665   7.631  0.0659  0.1457  0.4307
15042SOL    HW246995   7.585   1.688   7.713  2.2405  1.3328  3.6374
15043SOL     OW46996   0.587   6.146   5.024 -0.3455 -0.0709  0.1772
15043SOL    HW146997   0.582   6.134   4.929  0.6421 -0.9557  0.2194
15043SOL    HW246998   0.558   6.236   5.039 -1.1004 -0.1190 -0.8988
15044SOL     OW46999   5.298   0.061   6.045  0.2572 -0.7205  0.0506
15044SOL    HW147000   5.244   0.019   5.979  2.4841  1.1103 -3.2370
15044SOL    HW247001   5.383   0.019   6.037  0.1228 -1.8938  3.3994
15045SOL     OW47002   4.534   1.377   1.707 -0.1503 -0.2566 -0.3169
15045SOL    HW147003   4.592   1.305   1.683  0.0589  0.0542 -0.7662
15045SOL    HW247004   4.454   1.361   1.657 -1.1354 -1.5990  1.5347
15046SOL     OW47005   0.030   8.915   1.919 -0.3487  0.9369 -0.0763
15046SOL    HW147006   0.049   8.822   1.915  0.7777  1.1454  0.0203
15046SOL    HW247007   0.028   8.943   1.828 -1.5151  0.6704 -0.1388
15047SOL     OW47008   8.527   4.767   7.190 -0.3355  0.3021 -0.3036
15047SOL    HW147009   8.591   4.713   7.143  0.4910  0.2170  0.8541
15047SOL    HW247010   8.497   4.831   7.126 -1.3245 -1.4882 -1.7115
15048SOL     OW47011   0.148   4.131   4.485  0.4349 -0.0121  0.4846
15048SOL    HW147012   0.226   4.163   4.439  0.5331 -1.9679 -0.8717
15048SOL    HW247013   0.164   4.037   4.496 -1.7382 -0.4758  0.1233
15049SOL     OW47014   1.737   6.371   5.279  0.5007  0.4330 -0.1235
15049SOL    HW147015   1.667   6.433   5.298 -0.2653 -0.4470  0.0387
15049SOL    HW247016   1.810   6.424   5.249 -0.1212  1.4026  0.0517
15050SOL     OW47017   7.736   7.030   3.060  0.5508 -0.3653 -0.1587
15050SOL    HW147018   7.743   6.936   3.046  2.0116 -0.4768  1.0596
15050SOL    HW247019   7.658   7.040   3.115  0.5944 -0.8982  0.0028
15051SOL     OW47020   1.332   5.211   8.161  0.3449 -0.3786  0.4474
15051SOL    HW147021   1.327   5.116   8.158  0.6551 -0.3813 -1.0332
15051SOL    HW247022   1.349   5.237   8.070 -1.4437  1.1710  0.4686
15052SOL     OW47023   8.671   2.746   5.944  0.5469 -1.2229 -0.3988
15052SOL    HW147024   8.716   2.672   5.984  0.9654 -0.4806  0.5566
15052SOL    HW247025   8.658   2.808   6.016 -0.2417 -0.5757 -1.0719
15053SOL     OW47026   3.228   0.556   3.799  0.2807  0.4622 -0.1900
15053SOL    HW147027   3.316   0.593   3.796  0.0535  1.1342  0.9467
15053SOL    HW247028   3.185   0.600   3.872 -0.6347 -0.6741 -0.0008
15054SOL     OW47029   3.648   2.569   5.381 -0.2851  0.4860 -0.0907
15054SOL    HW147030   3.696   2.652   5.376 -0.5784  0.7061  0.5905
15054SOL    HW247031   3.561   2.593   5.413 -0.6811  0.0216 -0.7898
15055SOL     OW47032   1.430   4.838   7.131 -0.2729  0.0101  0.6461
15055SOL    HW147033   1.355   4.829   7.072 -1.5132  0.4882  2.0671
15055SOL    HW247034   1.460   4.749   7.146 -0.3709 -0.1633 -0.1730
15056SOL     OW47035   4.837   2.257   4.284  0.5442 -0.1449 -0.2002
15056SOL    HW147036   4.901   2.230   4.349 -0.4299  1.1405  1.3736
15056SOL    HW247037   4.881   2.246   4.200  2.0052 -1.3997  0.6961
15057SOL     OW47038   6.135   2.645   1.002  0.4126  0.1474  0.0119
15057SOL    HW147039   6.188   2.716   0.967  0.3483  0.2589  0.1421
15057SOL    HW247040   6.191   2.602   1.066  0.9269 -0.7254 -0.9789
15058SOL     OW47041   1.681   5.537   2.014  0.0315 -0.4460 -0.3478
15058SOL    HW147042   1.609   5.504   2.068 -0.1817 -1.4178 -1.2149
15058SOL    HW247043   1.756   5.538   2.074 -0.3821 -0.7341  0.1895
15059SOL     OW47044   3.754   8.753   2.776  0.1993 -0.1444 -0.2545
15059SOL    HW147045   3.842   8.766   2.741 -0.5074  0.5181 -1.8560
15059SOL    HW247046   3.715   8.686   2.720 -0.1586 -0.8219  0.7731
15060SOL     OW47047   2.142   1.015   8.249  0.2036 -0.2948  0.0601
15060SOL    HW147048   2.089   0.966   8.311 -0.4320  1.0141  0.5607
15060SOL    HW247049   2.118   1.106   8.262 -0.2656 -0.0079 -2.4055
15061SOL     OW47050   2.729   1.326   0.311  0.1256 -0.0667  0.3245
15061SOL    HW147051   2.796   1.263   0.284 -0.4886  0.5460 -3.1724
15061SOL    HW247052   2.778   1.403   0.340  0.8772 -0.7856  1.0142
15062SOL     OW47053   0.521   0.742   7.594 -0.5848 -0.2903 -0.1618
15062SOL    HW147054   0.582   0.801   7.638  0.7810 -1.6420 -0.1665
15062SOL    HW247055   0.434   0.773   7.620  0.1396 -0.5703  2.9059
15063SOL     OW47056   8.466   3.553   3.775 -0.0082 -0.3339  0.2612
15063SOL    HW147057   8.443   3.589   3.690 -2.9061 -3.0978 -0.3173
15063SOL    HW247058   8.522   3.478   3.755 -1.1163 -1.3030  0.6716
15064SOL     OW47059   2.301   7.082   3.005 -0.0222  0.4848  0.3168
15064SOL    HW147060   2.207   7.087   3.022 -0.1998 -0.0760 -0.4229
15064SOL    HW247061   2.337   7.033   3.080 -0.3925  0.2910  0.3691
15065SOL     OW47062   3.660   6.612   6.667  0.1503  0.4284  0.2526
15065SOL    HW147063   3.636   6.704   6.652 -0.9488  0.2195  0.6936
15065SOL    HW247064   3.584   6.574   6.710 -0.4841 -1.3715 -2.2387
15066SOL     OW47065   5.024   2.370   5.729  0.2353 -0.6083  0.6302
15066SOL    HW147066   4.937   2.342   5.703  0.3571  1.5541 -2.6866
15066SOL    HW247067   5.082   2.299   5.699 -0.0856 -0.3122 -0.7334
15067SOL     OW47068   5.429   8.008   8.076 -0.3437 -0.5794  0.2730
15067SOL    HW147069   5.479   7.967   8.005  0.4497  0.2313  0.3425
15067SOL    HW247070   5.345   7.962   8.076 -0.1980 -0.8842 -0.9146
15068SOL     OW47071   4.913   3.903   2.157  0.3290  0.0025 -0.3888
15068SOL    HW147072   4.948   3.979   2.110  0.6382 -0.1739 -0.4452
15068SOL    HW247073   4.948   3.827   2.110 -0.9346 -0.1940 -1.0614
15069SOL     OW47074   0.550   8.000   4.499  0.0157 -0.4152  0.3264
15069SOL    HW147075   0.624   7.943   4.477 -0.5114 -1.5193  1.2898
15069SOL    HW247076   0.521   7.968   4.585 -2.3900 -0.8853 -0.5977
15070SOL     OW47077   7.557   4.601   0.600  0.3209  0.5269  0.3258
15070SOL    HW147078   7.487   4.541   0.628  0.3012  0.0436 -0.6975
15070SOL    HW247079   7.606   4.551   0.535  0.9329  1.2697  0.2102
15071SOL     OW47080   8.268   3.833   4.329  0.6431  0.0356 -0.0968
15071SOL    HW147081   8.249   3.877   4.411  1.2495  0.1743 -0.0232
15071SOL    HW247082   8.352   3.790   4.344  0.2592 -0.7972 -0.3091
15072SOL     OW47083   0.610   3.931   6.326 -0.2505 -0.2156 -0.1476
15072SOL    HW147084   0.563   3.860   6.281 -0.5307 -0.3173  0.3009
15072SOL    HW247085   0.552   4.006   6.319 -1.0261 -0.6295  1.4048
15073SOL     OW47086   6.620   0.900   7.938 -0.1874 -0.3203 -0.2426
15073SOL    HW147087   6.526   0.912   7.925  0.1644  1.4314 -1.6626
15073SOL    HW247088   6.652   0.868   7.853  0.6138  0.0897 -0.1090
15074SOL     OW47089   4.499   8.618   5.641 -0.1699 -0.4323 -0.0077
15074SOL    HW147090   4.547   8.687   5.596 -0.2707 -1.0171 -1.0653
15074SOL    HW247091   4.531   8.537   5.600 -2.6034 -0.8119 -1.3663
15075SOL     OW47092   4.437   8.925   5.072  0.1282  0.0808  0.1862
15075SOL    HW147093   4.382   8.849   5.090  1.0871 -0.7533 -0.2597
15075SOL    HW247094   4.518   8.888   5.036  0.3499  1.3546 -0.7227
15076SOL     OW47095   1.233   6.330   0.931  0.0027  0.0486 -1.1020
15076SOL    HW147096   1.217   6.293   0.844  1.0106 -2.6342 -0.2575
15076SOL    HW247097   1.173   6.282   0.988  1.9235 -0.9547  0.1806
15077SOL     OW47098   2.117   8.079   8.649 -0.0054  0.4988 -0.5830
15077SOL    HW147099   2.181   8.055   8.716  1.9599  1.5911 -1.9774
15077SOL    HW247100   2.082   8.163   8.679 -0.2504  0.2684 -0.2066
15078SOL     OW47101   6.560   1.622   2.090  0.4376 -0.4950  0.9090
15078SOL    HW147102   6.479   1.666   2.115  0.4557 -0.2926  0.6205
15078SOL    HW247103   6.560   1.624   1.994  2.5676  2.9178  0.8107
15079SOL     OW47104   3.462   6.275   8.671 -1.0582 -0.1539 -0.7338
15079SOL    HW147105   3.515   6.336   8.723  1.8864 -0.5725 -3.0140
15079SOL    HW247106   3.411   6.331   8.613 -1.9429  0.1925  0.3214
15080SOL     OW47107   0.670   7.587   7.867  0.0957 -0.3436 -0.0024
15080SOL    HW147108   0.647   7.543   7.786  0.1772 -1.2826  0.4683
15080SOL    HW247109   0.757   7.555   7.888 -0.5652 -1.3991  1.2904
15081SOL     OW47110   7.053   5.526   5.613  0.3133 -0.1901  0.1024
15081SOL    HW147111   7.110   5.451   5.629 -0.2195 -0.8624 -1.0613
15081SOL    HW247112   6.970   5.488   5.584  0.3961  0.8385 -1.6537
15082SOL     OW47113   7.376   0.746   8.818  0.0515  0.5096 -0.5077
15082SOL    HW147114   7.390   0.768   8.910  1.1032 -1.3140 -0.1835
15082SOL    HW247115   7.402   0.654   8.811 -1.4541  0.1569 -2.3172
15083SOL     OW47116   1.526   0.470   6.699  0.0866 -0.2531  0.4979
15083SOL    HW147117   1.540   0.548   6.645 -0.5466  1.1489  2.2558
15083SOL    HW247118   1.574   0.488   6.780 -0.1715 -1.6414  0.9760
15084SOL     OW47119   3.626   1.196   6.162  0.5832  0.2376 -0.1911
15084SOL    HW147120   3.700   1.244   6.124  0.2253  1.8220  0.9708
15084SOL    HW247121   3.666   1.125   6.211  1.2413  0.2417 -0.7046
15085SOL     OW47122   7.156   8.019   4.805 -0.2306 -0.0047  0.1722
15085SOL    HW147123   7.203   7.935   4.806 -0.4813 -0.1796 -0.7914
15085SOL    HW247124   7.109   8.022   4.888 -0.5599 -1.0370  0.0396
15086SOL     OW47125   8.648   2.514   5.351  0.0461 -0.6037  0.4425
15086SOL    HW147126   8.569   2.563   5.373  1.1235  1.0017  0.8715
15086SOL    HW247127   8.649   2.441   5.413 -0.5662 -0.0635  1.1043
15087SOL     OW47128   3.978   4.279   8.719 -0.1173 -0.4858  0.3488
15087SOL    HW147129   4.032   4.358   8.723  0.8688 -1.0891 -0.5925
15087SOL    HW247130   3.944   4.278   8.630  0.8755 -1.7454 -0.0418
15088SOL     OW47131   2.188   1.776   0.888  0.1651 -0.1391 -0.8044
15088SOL    HW147132   2.226   1.718   0.954  0.2246 -1.2971 -1.8331
15088SOL    HW247133   2.261   1.833   0.862 -0.2416  1.4646  1.2506
15089SOL     OW47134   0.103   0.402   6.479  0.0247 -0.4251  0.1733
15089SOL    HW147135   0.038   0.332   6.493 -1.7106  1.4448  2.3547
15089SOL    HW247136   0.058   0.465   6.423  1.6368 -1.0338 -1.9169
15090SOL     OW47137   8.121   5.559   1.812  0.7049  1.1980 -0.1493
15090SOL    HW147138   8.046   5.584   1.866 -0.3522 -2.3539  0.2644
15090SOL    HW247139   8.186   5.527   1.874  0.6605 -0.1499 -0.7641
15091SOL     OW47140   4.807   2.150   2.248 -0.1836 -0.0860 -0.7082
15091SOL    HW147141   4.728   2.134   2.196  0.3862 -0.8291 -1.3867
15091SOL    HW247142   4.855   2.218   2.199  0.4316 -0.9014 -1.2715
15092SOL     OW47143   0.943   0.019   2.314  0.1404  0.5574 -0.0007
15092SOL    HW147144   0.924  -0.063   2.268 -0.0286  0.8282 -0.4055
15092SOL    HW247145   1.005  -0.007   2.383  1.5187  0.3875 -1.2453
15093SOL     OW47146   8.650   5.818   2.299 -0.5577  0.0409 -0.4125
15093SOL    HW147147   8.692   5.737   2.270 -2.0102 -0.4653 -1.2258
15093SOL    HW247148   8.644   5.871   2.219  1.6369  1.5883  0.3688
15094SOL     OW47149   8.674   0.809   8.108 -0.4703 -0.5890  0.5854
15094SOL    HW147150   8.656   0.791   8.200 -1.3378 -0.2909  0.4881
15094SOL    HW247151   8.617   0.883   8.087 -0.0075 -0.4197 -0.0949
15095SOL     OW47152   7.622   8.647   5.235 -0.5268 -0.4175 -0.4063
15095SOL    HW147153   7.607   8.664   5.141  2.0457  1.8606 -0.5118
15095SOL    HW247154   7.646   8.732   5.271  0.4600 -1.6170  1.9469
15096SOL     OW47155   3.751   8.926   5.146  0.4504  0.1262  0.0534
15096SOL    HW147156   3.781   8.947   5.235 -0.7521 -1.1628  0.8172
15096SOL    HW247157   3.750   9.010   5.100 -0.6194  1.1245  1.8081
15097SOL     OW47158   8.669   8.656   1.509 -0.0072 -0.5417  0.5177
15097SOL    HW147159   8.705   8.596   1.574 -0.0490 -0.3574  0.7097
15097SOL    HW247160   8.576   8.663   1.531 -0.1647 -1.0045  0.0305
15098SOL     OW47161   2.798   8.260   6.267 -0.5448  0.1293  0.0768
15098SOL    HW147162   2.782   8.239   6.359  2.1150 -0.5604  0.4932
15098SOL    HW247163   2.850   8.186   6.235  1.0355  1.6849 -1.1302
15099SOL     OW47164   5.500   1.159   6.844  0.2985  0.8979  0.1876
15099SOL    HW147165   5.499   1.185   6.936 -1.7564  0.3207  0.3951
15099SOL    HW247166   5.481   1.065   6.846 -0.7966  1.0756 -0.8354
15100SOL     OW47167   1.298   4.322   0.815  0.0459 -0.3399 -0.4963
15100SOL    HW147168   1.225   4.319   0.753 -0.3777 -1.2328  0.0188
15100SOL    HW247169   1.344   4.403   0.795 -1.2499  0.3874 -0.6523
15101SOL     OW47170   4.980   4.009   8.614 -0.2684  0.2411 -0.3741
15101SOL    HW147171   4.983   4.009   8.710 -1.7682 -3.0232 -0.2075
15101SOL    HW247172   4.929   4.087   8.592  0.5610  1.3643  1.3742
15102SOL     OW47173   5.051   2.265   5.386 -0.0363  0.3545  0.0938
15102SOL    HW147174   4.965   2.226   5.398  0.6960 -1.7641 -0.9397
15102SOL    HW247175   5.108   2.217   5.447  0.3830  1.9148  0.9667
15103SOL     OW47176   6.165   4.664   8.107  0.0651  0.5238  0.4213
15103SOL    HW147177   6.124   4.699   8.187 -1.1920 -0.9913  0.4805
15103SOL    HW247178   6.176   4.571   8.124 -2.6100 -0.4006 -2.0497
15104SOL     OW47179   0.803   7.788   7.102 -0.1657 -0.9327 -0.3760
15104SOL    HW147180   0.883   7.762   7.148 -0.3194 -3.3739 -1.3237
15104SOL    HW247181   0.751   7.832   7.169  2.6176  2.4600 -0.1621
15105SOL     OW47182   8.794   4.703   0.543 -0.1045 -0.1052  0.1787
15105SOL    HW147183   8.713   4.706   0.594 -1.4829  2.5062 -1.8606
15105SOL    HW247184   8.857   4.753   0.594 -0.0537 -1.1962  1.2492
15106SOL     OW47185   1.567   3.220   1.725  0.5056 -0.2331  0.0534
15106SOL    HW147186   1.531   3.135   1.749  2.4426 -0.8526  1.0275
15106SOL    HW247187   1.662   3.209   1.734  0.9478  1.4215 -1.8829
15107SOL     OW47188   2.385   4.092   1.557 -0.1621 -0.1218 -0.4362
15107SOL    HW147189   2.451   4.161   1.558 -1.1692  0.8616  0.0363
15107SOL    HW247190   2.301   4.138   1.553 -1.0353 -1.1315  2.8652
15108SOL     OW47191   4.982   2.366   3.788 -0.3777  0.0472 -0.1369
15108SOL    HW147192   5.060   2.344   3.737 -0.9065  0.0320 -0.9559
15108SOL    HW247193   4.912   2.313   3.750 -0.2480 -2.2250  2.4798
15109SOL     OW47194   5.865   0.717   2.897 -0.0732  0.2423 -0.1283
15109SOL    HW147195   5.781   0.762   2.896  0.6648  1.6585 -0.9036
15109SOL    HW247196   5.853   0.643   2.837 -0.4294  1.0911 -1.1281
15110SOL     OW47197   4.600   6.702   5.861  0.7558  0.4784  0.1149
15110SOL    HW147198   4.538   6.772   5.879  0.0618  0.0226 -0.4217
15110SOL    HW247199   4.666   6.710   5.929 -1.0421 -0.3566  2.0687
15111SOL     OW47200   2.444   2.198   2.972  0.8814  0.0430  0.0778
15111SOL    HW147201   2.410   2.256   2.904  0.7145  0.1002  0.2086
15111SOL    HW247202   2.476   2.258   3.040 -0.9172  0.0120  1.0347
15112SOL     OW47203   8.134   6.610   5.157 -0.1666 -0.5187  0.0768
15112SOL    HW147204   8.192   6.558   5.101  0.1520 -0.9430  0.7879
15112SOL    HW247205   8.136   6.565   5.242 -1.5070 -0.5122  0.1315
15113SOL     OW47206   7.664   5.371   8.126  0.9642 -0.5158  0.0175
15113SOL    HW147207   7.641   5.435   8.058  3.4189  0.8351  0.3556
15113SOL    HW247208   7.694   5.294   8.079  0.2654 -0.5386 -0.4023
15114SOL     OW47209   3.875   0.688   5.164  0.0845  0.1776  0.2296
15114SOL    HW147210   3.817   0.670   5.238 -0.8300  0.9652 -0.2731
15114SOL    HW247211   3.959   0.711   5.204  0.0178 -0.8194  0.9716
15115SOL     OW47212   2.883   6.112   6.524 -0.3698  0.4571  0.3928
15115SOL    HW147213   2.952   6.047   6.509  0.3502  1.7977 -2.8783
15115SOL    HW247214   2.804   6.059   6.538  0.5169 -1.1384 -0.3367
15116SOL     OW47215   4.211   4.544   0.683 -0.0493 -0.2075  0.2119
15116SOL    HW147216   4.215   4.482   0.610 -0.1851 -0.0530  0.0720
15116SOL    HW247217   4.278   4.610   0.662 -0.4951  0.1656 -0.0817
15117SOL     OW47218   4.985   7.970   6.837  0.0825  0.4800 -0.4676
15117SOL    HW147219   4.891   7.956   6.849  0.0345 -0.7673 -1.8839
15117SOL    HW247220   4.991   8.046   6.778  0.1006  2.2640  1.7197
15118SOL     OW47221   4.135   5.275   7.250 -0.1141  0.3613  0.3097
15118SOL    HW147222   4.230   5.276   7.261 -0.0436  0.6167 -0.2706
15118SOL    HW247223   4.122   5.292   7.157 -0.6837 -1.5690  0.0036
15119SOL     OW47224   6.349   2.414   0.020 -0.2007 -0.3386  0.1731
15119SOL    HW147225   6.377   2.471   0.091 -2.2344 -1.0105  1.5966
15119SOL    HW247226   6.305   2.341   0.064 -1.6300 -0.7218 -1.7835
15120SOL     OW47227   8.477   2.861   0.454  0.1255 -0.1662  0.3219
15120SOL    HW147228   8.567   2.829   0.457  0.0873 -0.2267  1.1931
15120SOL    HW247229   8.480   2.946   0.499 -0.2909 -0.2797  0.5713
15121SOL     OW47230   3.308   5.951   1.877  0.6097  0.1110  0.7030
15121SOL    HW147231   3.403   5.954   1.894  0.7602 -0.6211  0.0350
15121SOL    HW247232   3.273   5.895   1.946  1.0584 -1.9057 -0.6481
15122SOL     OW47233   4.331   2.919   0.097 -0.6074  0.0216  0.0779
15122SOL    HW147234   4.254   2.864   0.091  1.3448 -2.8036 -1.0578
15122SOL    HW247235   4.387   2.891   0.025  1.0062  2.8070  0.0870
15123SOL     OW47236   6.375   8.561   4.675  0.2065 -0.0658  0.0129
15123SOL    HW147237   6.471   8.561   4.677  0.1935  0.4971  1.0088
15123SOL    HW247238   6.353   8.512   4.596  1.3166 -0.1463 -0.2596
15124SOL     OW47239   4.305   0.533   2.560  0.1304  0.0548 -0.2707
15124SOL    HW147240   4.323   0.593   2.487  0.5646  0.2033 -0.0467
15124SOL    HW247241   4.246   0.582   2.617  0.2153  0.1448 -0.2583
15125SOL     OW47242   7.486   5.382   7.714  0.2102 -0.3136  0.1026
15125SOL    HW147243   7.556   5.428   7.761  0.6884 -0.9883  0.0647
15125SOL    HW247244   7.427   5.452   7.685  0.4317  0.1976  0.8435
15126SOL     OW47245   5.353   2.025   5.223  0.4293  0.6723  0.3621
15126SOL    HW147246   5.382   1.936   5.200  0.5880  0.8958 -0.3435
15126SOL    HW247247   5.417   2.082   5.180 -1.6335  1.2182 -2.2301
15127SOL     OW47248   0.181   7.603   6.827 -0.1080  0.4887  0.2478
15127SOL    HW147249   0.249   7.587   6.893  0.8318  2.8328 -0.0432
15127SOL    HW247250   0.209   7.552   6.751 -0.5289 -1.2277  1.1913
15128SOL     OW47251   6.800   5.361   5.608  0.2248  0.1786 -0.0129
15128SOL    HW147252   6.796   5.362   5.704  0.9935  1.2611  0.0266
15128SOL    HW247253   6.718   5.402   5.581 -1.2926 -2.5558  0.0712
15129SOL     OW47254   6.844   8.968   0.482  0.2937 -0.7136 -0.2002
15129SOL    HW147255   6.883   8.914   0.551  0.2851 -0.3635  0.0811
15129SOL    HW247256   6.872   8.927   0.400  2.0882  0.0911 -0.0325
15130SOL     OW47257   4.993   7.542   0.992  0.0302 -0.1255  0.0204
15130SOL    HW147258   5.020   7.489   1.067 -0.1314  0.3702  0.4325
15130SOL    HW247259   4.991   7.480   0.919  0.0070 -0.6513  0.4589
15131SOL     OW47260   6.583   4.031   2.742 -0.0364  0.5433 -0.3107
15131SOL    HW147261   6.647   3.974   2.784 -0.2921 -0.5552 -1.3399
15131SOL    HW247262   6.544   3.977   2.673 -2.2862  1.0791  0.4455
15132SOL     OW47263   6.499   7.150   5.255 -0.0038 -0.0965  0.1999
15132SOL    HW147264   6.517   7.243   5.265  0.7935 -0.2174 -0.0370
15132SOL    HW247265   6.446   7.144   5.176 -0.2566  0.1759  0.3464
15133SOL     OW47266   7.965   5.062   7.310 -0.0108 -0.0193 -0.2557
15133SOL    HW147267   8.026   5.033   7.377  1.0145 -1.1621 -1.6211
15133SOL    HW247268   8.014   5.127   7.259  0.1690 -1.0219 -1.4266
15134SOL     OW47269   4.358   8.061   2.515 -0.2153 -0.1632  0.8517
15134SOL    HW147270   4.369   8.083   2.607  0.9289  0.5975  0.5537
15134SOL    HW247271   4.405   7.978   2.503  0.7333  0.3883  0.6958
15135SOL     OW47272   5.026   4.877   1.684 -0.0658  0.3402 -0.0706
15135SOL    HW147273   4.962   4.910   1.621 -2.4189 -1.1162  1.4305
15135SOL    HW247274   5.092   4.834   1.629 -1.4341  0.0857 -1.6060
15136SOL     OW47275   8.386   7.665   1.984  0.5716 -0.0617 -0.3056
15136SOL    HW147276   8.410   7.573   1.988  1.9886  0.2933 -0.0360
15136SOL    HW247277   8.414   7.693   1.897  0.2957  0.1433 -0.3269
15137SOL     OW47278   4.914   8.372   3.559  0.1632 -0.0810  0.0398
15137SOL    HW147279   4.988   8.312   3.554  0.2790  0.1140 -0.5828
15137SOL    HW247280   4.843   8.327   3.513  0.2810  0.2997 -0.5238
15138SOL     OW47281   8.990   6.617   7.217 -0.2619  0.0300 -0.1611
15138SOL    HW147282   8.923   6.589   7.155 -0.8018  0.2352  0.3207
15138SOL    HW247283   9.066   6.561   7.198 -0.2381  0.4437 -1.3409
15139SOL     OW47284   5.133   1.488   3.816 -0.5618 -0.2534  0.4430
15139SOL    HW147285   5.130   1.475   3.722  1.4221  1.7328  0.0396
15139SOL    HW247286   5.136   1.583   3.828 -0.0960 -0.4698  2.4568
15140SOL     OW47287   4.384   3.284   0.280 -0.7454 -0.5073  0.3825
15140SOL    HW147288   4.470   3.249   0.256 -1.5585 -2.1875 -0.2901
15140SOL    HW247289   4.371   3.255   0.370 -1.3590 -1.9282 -0.1284
15141SOL     OW47290   6.705   3.568   4.245  0.2166 -0.0731 -0.0224
15141SOL    HW147291   6.665   3.509   4.182  2.7071 -2.0726  0.1074
15141SOL    HW247292   6.777   3.518   4.283 -1.1613  0.9060  4.5895
15142SOL     OW47293   8.206   5.980   3.291 -0.1097 -0.8986 -0.2464
15142SOL    HW147294   8.286   6.030   3.304  0.1024 -0.6828 -2.1705
15142SOL    HW247295   8.202   5.921   3.366  1.6368 -0.6463  0.0723
15143SOL     OW47296   3.192   5.789   0.674  0.3036 -0.7888 -0.4114
15143SOL    HW147297   3.235   5.863   0.716  0.6244 -2.8871  3.4648
15143SOL    HW247298   3.120   5.828   0.625 -0.8099  2.0859  3.0702
15144SOL     OW47299   2.101   6.863   5.349 -0.3139  0.6487 -0.0363
15144SOL    HW147300   2.119   6.915   5.271 -2.2127 -0.5513 -1.3514
15144SOL    HW247301   2.007   6.877   5.366 -0.6516 -1.5156  0.1610
15145SOL     OW47302   7.141   2.362   2.242  0.2491  0.3267  0.2140
15145SOL    HW147303   7.131   2.457   2.243 -1.1307  0.1971  0.1025
15145SOL    HW247304   7.173   2.342   2.154 -0.2957  0.6149 -0.0518
15146SOL     OW47305   2.065   8.883   4.316 -0.1003 -0.0366 -0.2738
15146SOL    HW147306   2.009   8.948   4.358  0.7007 -0.7748  2.1088
15146SOL    HW247307   2.019   8.859   4.235 -2.6776  0.1538  1.0521
15147SOL     OW47308   8.401   3.988   7.423  0.3094 -0.1884 -0.0770
15147SOL    HW147309   8.412   3.894   7.408  0.8000 -0.0838 -0.4119
15147SOL    HW247310   8.460   4.008   7.496 -1.1361 -0.4620  1.2152
15148SOL     OW47311   3.752   2.216   5.615 -0.7223 -0.2631 -0.0518
15148SOL    HW147312   3.740   2.224   5.520  3.5820 -0.2904 -0.7864
15148SOL    HW247313   3.763   2.306   5.645 -0.0491 -0.3868  0.0727
15149SOL     OW47314   3.161   8.948   3.854 -0.5511 -0.0216 -0.3101
15149SOL    HW147315   3.089   8.993   3.810 -0.2143  0.7979 -0.0481
15149SOL    HW247316   3.128   8.861   3.872 -1.1123  0.0123 -1.1239
15150SOL     OW47317   7.148   6.834   7.424  0.2708  0.6830 -0.2403
15150SOL    HW147318   7.084   6.905   7.432  0.1284  0.9027 -2.7008
15150SOL    HW247319   7.096   6.758   7.396  0.5928 -0.1488  1.2803
15151SOL     OW47320   0.121   0.715   8.184  0.0155 -0.2727  0.0841
15151SOL    HW147321   0.045   0.746   8.135 -0.1796 -1.1139 -0.1720
15151SOL    HW247322   0.083   0.674   8.262  0.3063  0.7819  0.7876
15152SOL     OW47323   8.567   5.612   1.555 -0.2661 -0.2042 -0.2475
15152SOL    HW147324   8.493   5.668   1.578  0.6491  0.1418  2.1147
15152SOL    HW247325   8.528   5.527   1.536 -1.3481  0.2189  0.0023
15153SOL     OW47326   0.877   2.828   0.528 -0.1720 -0.2087 -0.1355
15153SOL    HW147327   0.969   2.803   0.531 -0.2756 -0.7917 -1.1785
15153SOL    HW247328   0.873   2.897   0.461 -0.3120  0.6785  0.7749
15154SOL     OW47329   7.497   8.209   6.296 -0.0702  0.6012  0.1999
15154SOL    HW147330   7.427   8.267   6.323 -0.2645  0.2678  0.4218
15154SOL    HW247331   7.475   8.184   6.206 -0.7459 -0.2510  0.5886
15155SOL     OW47332   3.716   2.445   5.064  0.0334  0.4051  0.8774
15155SOL    HW147333   3.801   2.484   5.085 -0.8373  1.8495  1.8929
15155SOL    HW247334   3.668   2.514   5.017  0.8502 -1.7560 -3.6552
15156SOL     OW47335   6.066   1.323   5.415 -0.0709  0.2704  0.1392
15156SOL    HW147336   6.076   1.243   5.363 -1.4429  0.7331 -0.9021
15156SOL    HW247337   6.036   1.292   5.500 -0.1592 -0.3723 -0.1149
15157SOL     OW47338   0.810   5.423   7.102  0.0567 -0.5275  0.0253
15157SOL    HW147339   0.796   5.340   7.147 -0.3313  0.4090  1.7014
15157SOL    HW247340   0.763   5.413   7.019  0.6204 -2.2175 -0.1246
15158SOL     OW47341   7.364   2.096   6.356  0.4685  0.2378  0.0717
15158SOL    HW147342   7.390   2.179   6.315  1.8766 -0.4871 -0.5546
15158SOL    HW247343   7.288   2.068   6.305 -0.2928  1.3155  0.5530
15159SOL     OW47344   8.504   0.724   5.731  0.2443  0.2055  0.3968
15159SOL    HW147345   8.578   0.663   5.735  0.2177  0.2354  1.6308
15159SOL    HW247346   8.503   0.754   5.640  1.9560  0.4737  0.4341
15160SOL     OW47347   7.360   7.335   8.004 -0.0155  0.8047  0.1652
15160SOL    HW147348   7.338   7.374   7.919  0.7815  0.5223 -0.1823
15160SOL    HW247349   7.448   7.299   7.991 -0.8657 -1.4974  0.3391
15161SOL     OW47350   3.387   6.501   1.211 -1.1636 -0.1008  0.6225
15161SOL    HW147351   3.349   6.526   1.127  1.2304 -0.6069 -0.7275
15161SOL    HW247352   3.424   6.583   1.246  0.0832 -0.3145 -0.1240
15162SOL     OW47353   8.341   7.119   3.623 -0.1567 -0.3316  0.3576
15162SOL    HW147354   8.352   7.024   3.619 -0.3142 -0.3286 -0.4521
15162SOL    HW247355   8.381   7.150   3.542 -2.2858  0.0524 -0.6173
15163SOL     OW47356   5.722   0.928   8.463 -0.0970  0.2328  0.2618
15163SOL    HW147357   5.782   1.000   8.482 -0.3988  0.5035  0.1992
15163SOL    HW247358   5.667   0.922   8.542 -1.3090  1.3133 -0.4573
15164SOL     OW47359   7.116   5.131   0.501  0.0488 -0.1748 -0.1412
15164SOL    HW147360   7.113   5.047   0.545  1.2477  0.2302  0.7573
15164SOL    HW247361   7.185   5.122   0.435 -1.7447 -0.7859 -2.0348
15165SOL     OW47362   7.092   7.621   5.358  0.1840  0.2604  0.7684
15165SOL    HW147363   7.105   7.667   5.275  2.7745  1.0668  1.5126
15165SOL    HW247364   7.065   7.690   5.419  0.3107  0.0587  1.0552
15166SOL     OW47365   6.836   2.233   7.974  0.1002  0.1232  0.2802
15166SOL    HW147366   6.746   2.227   7.943  0.8675 -2.6184 -1.7670
15166SOL    HW247367   6.834   2.193   8.061 -0.8797  1.5747  0.9616
15167SOL     OW47368   2.256   4.914   3.079 -1.4283  0.3271  0.1029
15167SOL    HW147369   2.249   4.840   3.019  0.9313  0.9528 -1.0785
15167SOL    HW247370   2.250   4.875   3.166 -1.6744 -1.0335 -0.4907
15168SOL     OW47371   6.543   5.289   3.212 -0.4653 -0.1473 -0.7508
15168SOL    HW147372   6.610   5.220   3.209  2.1067  2.1666 -0.6322
15168SOL    HW247373   6.553   5.329   3.298 -1.6844  0.5997 -0.9348
15169SOL     OW47374   3.655   7.004   7.487  0.0505 -0.5349  0.2247
15169SOL    HW147375   3.738   7.051   7.479 -0.1137 -0.4184 -1.0317
15169SOL    HW247376   3.622   7.028   7.574 -0.0177  1.6863 -0.3433
15170SOL     OW47377   8.757   6.142   2.297 -0.0612  0.2843  0.3205
15170SOL    HW147378   8.711   6.061   2.276  0.1108  0.4366 -0.7159
15170SOL    HW247379   8.769   6.186   2.212  2.5483 -0.0530  0.4144
15171SOL     OW47380   4.337   3.444   2.679  0.4022  0.0917 -0.1124
15171SOL    HW147381   4.425   3.429   2.644  0.7446 -1.3594  1.2297
15171SOL    HW247382   4.299   3.357   2.686 -1.0036  0.6695 -0.2874
15172SOL     OW47383   5.491   4.180   5.198  0.7212 -0.0106  0.2807
15172SOL    HW147384   5.422   4.183   5.132 -0.3276  3.7648  1.2838
15172SOL    HW247385   5.572   4.166   5.149 -0.2775  0.3183 -1.5305
15173SOL     OW47386   4.706   8.603   6.571 -0.0604 -0.4772 -0.4227
15173SOL    HW147387   4.749   8.523   6.540  0.2664  0.4864 -2.6064
15173SOL    HW247388   4.613   8.583   6.567 -0.0200 -0.4378 -1.9403
15174SOL     OW47389   2.126   0.986   5.305  0.1492  0.6166 -0.3067
15174SOL    HW147390   2.102   0.933   5.381  0.8639  1.3749  0.4792
15174SOL    HW247391   2.108   1.076   5.333 -1.9157  0.7852 -1.9380
15175SOL     OW47392   7.796   0.341   5.880  0.3172  0.1447 -0.0845
15175SOL    HW147393   7.775   0.408   5.815  1.0993 -0.9040 -1.4701
15175SOL    HW247394   7.712   0.318   5.918 -0.1492  0.8724 -0.6400
15176SOL     OW47395   1.394   0.731   2.137 -0.6756  0.2168  0.1673
15176SOL    HW147396   1.308   0.768   2.158 -0.0949  1.5134  0.3918
15176SOL    HW247397   1.401   0.737   2.042 -1.0246 -0.3250  0.1099
15177SOL     OW47398   6.749   0.113   7.648 -0.0115  0.0687  0.1750
15177SOL    HW147399   6.663   0.135   7.683  0.1109 -0.9726  1.2261
15177SOL    HW247400   6.730   0.071   7.564 -0.4020  1.4471 -0.4438
15178SOL     OW47401   6.351   3.309   6.613  0.0503  0.3590 -0.2790
15178SOL    HW147402   6.359   3.255   6.692  0.0294 -0.0481 -0.5512
15178SOL    HW247403   6.296   3.382   6.639 -2.0364 -1.0172 -0.5458
15179SOL     OW47404   6.691   7.097   1.949  0.2102 -0.2584  0.6048
15179SOL    HW147405   6.613   7.088   1.894  0.2596  1.3420  0.2266
15179SOL    HW247406   6.686   7.024   2.010 -2.5137  0.7133  1.7080
15180SOL     OW47407   4.575   3.996   4.999 -0.2171 -0.4357 -0.3826
15180SOL    HW147408   4.577   4.059   5.071 -2.8472 -1.4175  0.6786
15180SOL    HW247409   4.555   3.912   5.040 -3.8542 -0.7317 -2.2463
15181SOL     OW47410   4.920   7.027   0.731  0.2184 -0.6808 -0.6467
15181SOL    HW147411   4.912   7.113   0.689  1.3364 -0.2638 -0.0429
15181SOL    HW247412   4.833   6.988   0.722 -0.1909  0.3373 -1.3087
15182SOL     OW47413   7.233   2.992   1.851 -0.5881 -0.2837 -0.5541
15182SOL    HW147414   7.186   3.054   1.907 -0.2610 -1.3159  0.9160
15182SOL    HW247415   7.230   2.909   1.898  1.5845 -0.6967 -1.0169
15183SOL     OW47416   3.176   1.908   4.978 -0.2781 -0.0462  0.0137
15183SOL    HW147417   3.218   1.889   5.062 -0.5003 -1.3632 -0.1448
15183SOL    HW247418   3.084   1.885   4.993 -0.4841  0.5491 -0.3353
15184SOL     OW47419   8.281   0.822   7.681 -0.0377  0.1045  0.7711
15184SOL    HW147420   8.348   0.790   7.620 -0.5507  0.3240  0.0754
15184SOL    HW247421   8.280   0.757   7.752  1.9223  0.8581  1.5500
15185SOL     OW47422   8.075   4.782   2.290 -0.4287 -0.0726  0.1687
15185SOL    HW147423   8.050   4.806   2.379  0.8097  0.6793  0.3338
15185SOL    HW247424   8.137   4.711   2.300 -1.6661 -1.2482 -0.1976
15186SOL     OW47425   2.997   0.034   8.165  0.2929 -0.3636 -0.2718
15186SOL    HW147426   2.939   0.010   8.093  1.6930  1.7800 -2.2674
15186SOL    HW247427   2.938   0.071   8.231 -0.8410 -0.5323 -1.1442
15187SOL     OW47428   3.324   5.456   3.944 -0.5348 -0.2476  0.3568
15187SOL    HW147429   3.242   5.417   3.913  0.1674 -1.3227 -0.2288
15187SOL    HW247430   3.367   5.386   3.993  0.8586 -0.3314 -0.8990
15188SOL     OW47431   0.844   7.263   8.559  0.2322  0.3255 -0.3379
15188SOL    HW147432   0.843   7.174   8.525  1.0214  0.3548 -0.4541
15188SOL    HW247433   0.920   7.265   8.618 -0.4696  0.5892  0.5774
15189SOL     OW47434   8.244   2.535   0.940 -0.8127  0.5631 -0.1656
15189SOL    HW147435   8.230   2.522   1.034  3.0187 -0.3055  0.4755
15189SOL    HW247436   8.217   2.626   0.924  0.8921  1.6529  2.4541
15190SOL     OW47437   3.452   7.362   4.668 -0.2725  0.1242  0.5635
15190SOL    HW147438   3.439   7.402   4.755  1.4876  0.2110  0.8275
15190SOL    HW247439   3.505   7.426   4.620 -0.8244 -0.1412 -0.4285
15191SOL     OW47440   1.786   6.984   0.467  0.0767 -0.2973 -0.1681
15191SOL    HW147441   1.783   7.064   0.415  0.8539  0.6699  1.2208
15191SOL    HW247442   1.847   7.004   0.538 -1.2985 -1.4057  1.3816
15192SOL     OW47443   6.741   1.867   5.976  0.6927  0.3081 -0.0901
15192SOL    HW147444   6.806   1.806   6.013 -0.6786 -0.6771  0.7837
15192SOL    HW247445   6.738   1.938   6.040  0.2758 -0.0829  0.3330
15193SOL     OW47446   8.655   0.530   4.452 -0.7188 -0.2568  0.5212
15193SOL    HW147447   8.698   0.519   4.537 -3.4563  1.8257  2.3963
15193SOL    HW247448   8.704   0.599   4.409  0.3424 -0.9076  0.6593
15194SOL     OW47449   5.085   4.521   0.760 -0.3211  0.1532 -0.0460
15194SOL    HW147450   5.130   4.524   0.676 -0.1893 -0.1302  0.0124
15194SOL    HW247451   5.020   4.591   0.755 -2.9392 -2.1927 -1.8924
15195SOL     OW47452   7.229   0.697   1.271  0.0475  0.3351  1.1420
15195SOL    HW147453   7.276   0.635   1.327 -0.4410 -2.5233 -1.3493
15195SOL    HW247454   7.141   0.700   1.308 -0.2882 -1.5486  0.5937
15196SOL     OW47455   0.436   0.493   0.293 -0.3052  0.0228 -0.2433
15196SOL    HW147456   0.513   0.505   0.349  0.1503  1.4898 -1.1387
15196SOL    HW247457   0.410   0.582   0.269 -1.4966 -0.5201 -1.0178
15197SOL     OW47458   2.602   2.129   8.452  0.0730  0.2220 -0.6219
15197SOL    HW147459   2.653   2.060   8.410 -0.7234 -1.7001  1.3781
15197SOL    HW247460   2.661   2.204   8.456  1.9974 -1.2479 -0.3034
15198SOL     OW47461   2.744   2.472   1.088 -0.5293 -0.7919 -0.0060
15198SOL    HW147462   2.671   2.487   1.027  0.5703  0.4514 -1.1023
15198SOL    HW247463   2.733   2.541   1.154 -0.7864 -1.1056  0.2819
15199SOL     OW47464   4.983   2.737   4.222  0.2031  0.0509  0.1665
15199SOL    HW147465   4.992   2.702   4.134  1.2382 -1.7275  0.9235
15199SOL    HW247466   4.891   2.721   4.244  0.2448 -0.6749 -0.1432
15200SOL     OW47467   4.881   7.034   0.329  0.1441  0.1910  0.5687
15200SOL    HW147468   4.966   7.002   0.357  0.3261 -1.9492 -2.0343
15200SOL    HW247469   4.837   6.957   0.294 -2.5887  1.3905  1.1016
15201SOL     OW47470   2.286   8.225   5.699  0.1720  0.3020  0.6035
15201SOL    HW147471   2.360   8.177   5.735  1.2766  1.1370 -0.4811
15201SOL    HW247472   2.274   8.299   5.759  1.6841  1.4055 -0.3743
15202SOL     OW47473   5.721   0.985   2.832 -0.1903  0.0736 -0.3807
15202SOL    HW147474   5.694   1.059   2.778  0.1143  0.2141 -0.3403
15202SOL    HW247475   5.680   0.909   2.792 -1.0353  0.3424 -0.0582
15203SOL     OW47476   3.802   4.603   0.692 -0.5921 -0.9021  0.2937
15203SOL    HW147477   3.829   4.684   0.648  2.6249 -1.6480  0.7043
15203SOL    HW247478   3.720   4.580   0.649 -0.2788  1.1951 -1.6366
15204SOL     OW47479   5.890   3.991   3.196 -0.6900  0.2272  0.8396
15204SOL    HW147480   5.938   4.046   3.258 -2.0010  3.4335 -0.7602
15204SOL    HW247481   5.949   3.984   3.120 -0.9470  0.3764  0.6228
15205SOL     OW47482   3.105   2.843   0.987  0.2057 -0.4171 -0.1130
15205SOL    HW147483   3.033   2.905   0.993  0.3027 -0.3761  0.6513
15205SOL    HW247484   3.184   2.897   0.994  0.2899 -0.6295  0.6474
15206SOL     OW47485   8.646   8.625   2.909 -0.2665  0.1057  0.5068
15206SOL    HW147486   8.585   8.676   2.962 -0.0245  0.7224  0.2013
15206SOL    HW247487   8.671   8.552   2.965  0.7150  1.2478  1.6078
15207SOL     OW47488   1.295   0.713   0.199 -0.3490  0.1618 -0.5925
15207SOL    HW147489   1.217   0.691   0.251 -0.7350  0.8590 -0.8530
15207SOL    HW247490   1.363   0.654   0.231 -1.3886 -1.6064 -1.4843
15208SOL     OW47491   0.360   2.239   1.403 -0.1837  0.0992 -0.1154
15208SOL    HW147492   0.407   2.316   1.437  1.0600 -1.5136  2.1010
15208SOL    HW247493   0.429   2.180   1.373 -0.6969 -1.8853  2.2334
15209SOL     OW47494   7.889   2.871   6.345 -0.3794 -0.3837 -0.5408
15209SOL    HW147495   7.971   2.830   6.316 -0.4432 -0.6752 -0.3127
15209SOL    HW247496   7.829   2.798   6.358 -0.4765 -0.2256 -0.0646
15210SOL     OW47497   3.706   3.135   7.080 -1.3260 -0.1825 -0.4254
15210SOL    HW147498   3.754   3.061   7.117  0.0167  0.8425 -0.0559
15210SOL    HW247499   3.644   3.095   7.019 -2.2699 -1.7716  1.4618
15211SOL     OW47500   2.912   5.398   7.876 -0.8439  0.0975  0.0288
15211SOL    HW147501   2.928   5.378   7.784  0.0469  2.2420 -0.3508
15211SOL    HW247502   2.897   5.493   7.877 -1.2422  0.0467  2.0445
15212SOL     OW47503   1.641   0.995   8.114 -0.2101 -0.4608 -0.5715
15212SOL    HW147504   1.635   0.957   8.027 -0.4304 -0.1827 -0.6822
15212SOL    HW247505   1.711   0.947   8.158 -0.1548 -0.6550 -0.8740
15213SOL     OW47506   5.104   2.923   6.653  0.1615  0.2004  0.0501
15213SOL    HW147507   5.090   2.853   6.589 -0.9434  1.4217 -1.1113
15213SOL    HW247508   5.159   2.883   6.721  1.2264 -1.1913 -1.5589
15214SOL     OW47509   5.827   2.359   5.752 -0.1315 -0.2636 -0.0451
15214SOL    HW147510   5.821   2.454   5.759  2.0343 -0.0904  0.1320
15214SOL    HW247511   5.785   2.326   5.831 -0.4029  0.5684  0.1666
15215SOL     OW47512   0.320   1.786   8.500 -0.1901 -0.0207 -0.1166
15215SOL    HW147513   0.234   1.744   8.501 -0.2902  0.1666  1.6309
15215SOL    HW247514   0.315   1.847   8.426 -0.1658 -2.6747 -2.4817
15216SOL     OW47515   2.335   1.892   5.735 -0.3839  0.2899  0.3906
15216SOL    HW147516   2.392   1.890   5.658 -0.8088  0.9494  0.0474
15216SOL    HW247517   2.284   1.811   5.730 -0.1169  0.1323  0.2051
15217SOL     OW47518   8.372   5.220   1.829 -0.2066  0.3425 -0.5121
15217SOL    HW147519   8.412   5.138   1.859 -1.0951 -0.0063 -0.2594
15217SOL    HW247520   8.408   5.233   1.741  0.6967  0.2039 -0.1756
15218SOL     OW47521   4.941   6.807   4.532 -0.4085  0.2663 -0.1618
15218SOL    HW147522   4.956   6.816   4.438  1.1498 -0.2013  0.0184
15218SOL    HW247523   4.996   6.873   4.573  1.3150 -1.4786  0.5313
15219SOL     OW47524   7.957   4.767   1.861 -0.2438  0.0931  0.1295
15219SOL    HW147525   7.968   4.736   1.772  0.0893  0.1740  0.1447
15219SOL    HW247526   7.951   4.686   1.914 -0.0362  0.0502  0.0864
15220SOL     OW47527   3.172   8.748   3.198  0.2801  0.0809  0.1678
15220SOL    HW147528   3.151   8.747   3.105 -2.6256 -0.9055  0.7339
15220SOL    HW247529   3.249   8.693   3.206  0.0901 -0.4807 -1.5666
15221SOL     OW47530   3.222   2.786   3.536 -0.2675  0.3323 -0.0665
15221SOL    HW147531   3.189   2.825   3.617 -0.4808 -0.2576  0.1324
15221SOL    HW247532   3.290   2.847   3.507 -1.1367  1.2752 -0.1878
15222SOL     OW47533   7.922   3.532   0.793 -0.3992 -0.3216 -0.4294
15222SOL    HW147534   7.999   3.497   0.839 -0.8534 -0.2380  0.4070
15222SOL    HW247535   7.921   3.485   0.709  0.8080 -0.0106 -0.6456
15223SOL     OW47536   3.799   2.226   6.162  0.1819  0.3605  0.2360
15223SOL    HW147537   3.774   2.187   6.246  1.5048  0.8822  0.8989
15223SOL    HW247538   3.815   2.318   6.182  1.8900  0.2073 -0.2646
15224SOL     OW47539   6.561   2.217   7.898 -0.7235 -0.1827 -0.3347
15224SOL    HW147540   6.566   2.154   7.826 -2.4062 -0.6780 -0.0650
15224SOL    HW247541   6.473   2.205   7.934  0.2327 -0.3022  2.1555
15225SOL     OW47542   5.681   4.717   6.801  0.1296 -0.8574 -0.3142
15225SOL    HW147543   5.702   4.663   6.877  2.0628 -0.4713 -0.5292
15225SOL    HW247544   5.638   4.657   6.740  0.2513 -1.6143  0.3304
15226SOL     OW47545   5.822   2.076   0.472  1.0094  0.0471 -0.0444
15226SOL    HW147546   5.896   2.017   0.455  1.1652 -0.0172  0.8167
15226SOL    HW247547   5.819   2.084   0.567  0.2663  0.5181 -0.0988
15227SOL     OW47548   5.169   0.611   5.784 -0.8260 -0.4607  0.0653
15227SOL    HW147549   5.086   0.645   5.817  0.0235  1.5068  0.2716
15227SOL    HW247550   5.218   0.587   5.863 -0.3050  0.5887  0.0725
15228SOL     OW47551   2.820   3.065   8.802 -0.2625 -0.3130 -0.0527
15228SOL    HW147552   2.831   2.978   8.763  1.8989 -0.2482  0.2673
15228SOL    HW247553   2.846   3.125   8.732  0.8413 -0.0806  0.5280
15229SOL     OW47554   6.700   2.825   3.842  0.3817  0.0208  0.1164
15229SOL    HW147555   6.639   2.782   3.902  0.0307 -0.7743 -0.7802
15229SOL    HW247556   6.644   2.873   3.781  0.7080  0.2261 -0.0260
15230SOL     OW47557   8.988   2.053   2.630 -0.3319  0.4020  0.1154
15230SOL    HW147558   9.072   2.054   2.584 -0.3551  1.9326  0.0470
15230SOL    HW247559   8.999   2.117   2.701 -0.4140 -1.6120  2.0544
15231SOL     OW47560   3.629   1.335   8.763  0.0456  0.3334 -0.5147
15231SOL    HW147561   3.609   1.308   8.673  0.7896 -0.8426 -0.3510
15231SOL    HW247562   3.715   1.297   8.781 -0.7182 -0.7051  1.1895
15232SOL     OW47563   7.603   8.016   1.254 -0.2738 -0.2267 -0.7416
15232SOL    HW147564   7.697   8.024   1.238 -0.0547 -1.0856  0.0458
15232SOL    HW247565   7.590   7.923   1.275 -1.0893  0.1426  0.4506
15233SOL     OW47566   7.263   3.313   4.264  0.3147 -0.4043  0.0350
15233SOL    HW147567   7.231   3.340   4.351  0.7722 -1.5553  0.5866
15233SOL    HW247568   7.202   3.245   4.237  0.0216  0.1337 -0.6772
15234SOL     OW47569   1.746   4.949   1.132  0.7588  0.3713 -0.4137
15234SOL    HW147570   1.810   4.886   1.165 -0.3203 -0.1804  0.7008
15234SOL    HW247571   1.783   5.035   1.152  0.8877  0.0525  0.7943
15235SOL     OW47572   6.182   2.630   3.350 -0.3689 -0.5395  0.0667
15235SOL    HW147573   6.089   2.644   3.370  0.1385  0.2709  2.1047
15235SOL    HW247574   6.194   2.536   3.358 -1.5576 -1.0938 -3.1160
15236SOL     OW47575   6.066   4.796   1.811  0.1246  0.0710  0.3027
15236SOL    HW147576   6.093   4.748   1.733 -4.2352 -0.1905 -1.3643
15236SOL    HW247577   6.001   4.739   1.853 -3.6678  3.3061 -0.5530
15237SOL     OW47578   1.665   3.661   3.813 -0.0310 -0.0832 -1.0035
15237SOL    HW147579   1.681   3.742   3.765  0.3838  0.1083 -0.5533
15237SOL    HW247580   1.686   3.682   3.904 -1.9555 -0.1070 -0.5177
15238SOL     OW47581   7.611   5.015   6.058  0.5481 -0.5000  0.3614
15238SOL    HW147582   7.575   4.929   6.078  1.6795 -1.1676 -0.3700
15238SOL    HW247583   7.685   5.025   6.117  0.0714  0.2321  0.8489
15239SOL     OW47584   7.265   2.212   5.184 -0.1192  0.4410  0.6165
15239SOL    HW147585   7.326   2.146   5.217  0.7596  0.9362  0.0097
15239SOL    HW247586   7.302   2.296   5.213 -1.0930  0.6843  1.1727
15240SOL     OW47587   2.515   0.233   3.521  0.3360 -0.1562  0.0692
15240SOL    HW147588   2.555   0.233   3.434 -1.2418 -1.2837 -0.7004
15240SOL    HW247589   2.520   0.324   3.550  2.3176 -0.0448 -0.4938
15241SOL     OW47590   2.851   7.106   2.098 -0.4235 -0.0849 -0.1497
15241SOL    HW147591   2.915   7.133   2.032  0.3187 -0.0669  0.5784
15241SOL    HW247592   2.771   7.090   2.047 -0.0976  0.7305 -0.9534
15242SOL     OW47593   4.740   5.733   1.617  0.5276 -0.2686  0.1142
15242SOL    HW147594   4.813   5.719   1.678 -0.0208 -0.6623  0.6896
15242SOL    HW247595   4.781   5.738   1.531  1.6122  2.7358  0.7010
15243SOL     OW47596   2.008   3.778   8.654 -0.5332  0.0143 -0.4230
15243SOL    HW147597   1.966   3.815   8.732 -1.7360  0.1409 -1.1067
15243SOL    HW247598   2.039   3.854   8.605  1.6840 -0.1101  0.6709
15244SOL     OW47599   8.852   8.424   2.502 -0.1104  0.1395  0.5546
15244SOL    HW147600   8.818   8.482   2.571 -0.3364  1.8235 -0.8984
15244SOL    HW247601   8.785   8.426   2.434  0.8309 -0.1973 -0.4043
15245SOL     OW47602   2.645   6.041   2.706  0.2895 -0.2507 -0.0788
15245SOL    HW147603   2.591   6.105   2.660  1.2380 -0.4251 -1.5112
15245SOL    HW247604   2.640   5.962   2.652  1.2623 -0.5335  0.2243
15246SOL     OW47605   6.177   6.247   4.737 -0.8521 -0.2797 -0.2248
15246SOL    HW147606   6.090   6.219   4.711 -0.4848 -1.6908 -0.0093
15246SOL    HW247607   6.228   6.166   4.743  0.0639  0.3548  1.1684
15247SOL     OW47608   5.556   7.446   5.990 -0.6249  0.0116  0.1099
15247SOL    HW147609   5.630   7.503   6.011  1.1192 -1.3385 -1.8779
15247SOL    HW247610   5.525   7.415   6.075  0.7520  1.0486  1.0350
15248SOL     OW47611   8.132   7.310   4.660  0.0882  0.2853  0.2006
15248SOL    HW147612   8.077   7.236   4.634  1.0408 -0.2065 -0.4815
15248SOL    HW247613   8.128   7.310   4.756  1.0372 -1.4504  0.2908
15249SOL     OW47614   0.245   6.760   0.235  0.3798 -0.2353 -0.9224
15249SOL    HW147615   0.262   6.771   0.329 -0.8710 -0.4458 -0.6499
15249SOL    HW247616   0.203   6.841   0.208 -0.7933 -0.8044 -0.8967
15250SOL     OW47617   8.145   7.534   7.461 -0.2414 -0.1548 -0.2058
15250SOL    HW147618   8.212   7.581   7.412 -0.4493 -0.9392 -1.2864
15250SOL    HW247619   8.136   7.582   7.543  1.0570  0.4246 -0.3874
15251SOL     OW47620   1.337   2.186   8.858  0.4708 -0.6841  0.2346
15251SOL    HW147621   1.420   2.177   8.811 -0.0205  1.7028 -1.2949
15251SOL    HW247622   1.356   2.251   8.926  0.0504 -0.6888  0.3546
15252SOL     OW47623   5.399   2.073   2.657  0.3789  0.3758  0.2425
15252SOL    HW147624   5.387   2.017   2.581 -0.6135  0.7399  0.1184
15252SOL    HW247625   5.321   2.129   2.659 -0.0831 -0.2449  2.0550
15253SOL     OW47626   8.663   4.794   6.873  0.0245 -0.0918 -0.7034
15253SOL    HW147627   8.747   4.837   6.857  0.0093 -0.1721 -1.0043
15253SOL    HW247628   8.678   4.741   6.952 -0.5025  1.9434  0.8380
15254SOL     OW47629   3.911   3.562   7.102 -0.6940  0.5419  0.2917
15254SOL    HW147630   3.822   3.526   7.106 -0.9535  1.1217 -0.1534
15254SOL    HW247631   3.920   3.613   7.182 -0.6710  0.2716  0.4608
15255SOL     OW47632   3.163   4.802   1.468 -0.4034 -0.6096 -0.0913
15255SOL    HW147633   3.186   4.895   1.466  1.3850 -1.0155 -0.0980
15255SOL    HW247634   3.221   4.764   1.534 -1.9737 -1.5272  0.8236
15256SOL     OW47635   3.979   1.479   4.791 -0.4142  0.8006 -0.1302
15256SOL    HW147636   3.993   1.432   4.873  0.6231 -0.3149 -0.8960
15256SOL    HW247637   4.034   1.432   4.728  0.7882  3.1420 -0.9215
15257SOL     OW47638   1.529   7.328   5.481 -0.1558  0.0076 -0.3726
15257SOL    HW147639   1.506   7.242   5.445  4.5739 -1.3023 -0.9323
15257SOL    HW247640   1.544   7.312   5.574  0.5959  0.2616 -0.4467
15258SOL     OW47641   7.760   4.511   3.790 -0.3185  0.0555 -0.6540
15258SOL    HW147642   7.792   4.571   3.857 -1.7479  0.7956 -0.6009
15258SOL    HW247643   7.749   4.566   3.712 -1.7712 -0.0932 -0.5704
15259SOL     OW47644   3.463   4.641   2.112 -0.5528 -0.2277 -0.6072
15259SOL    HW147645   3.442   4.547   2.117  0.3458 -0.4278 -0.3980
15259SOL    HW247646   3.514   4.658   2.191 -0.2169  0.3126 -0.9357
15260SOL     OW47647   3.057   1.282   1.343 -0.8253  0.3162 -0.6724
15260SOL    HW147648   3.115   1.232   1.285  0.0555  0.0652  0.3867
15260SOL    HW247649   3.097   1.368   1.349  1.3208 -0.7077  2.4898
15261SOL     OW47650   1.114   1.273   1.832 -0.5715 -0.1155 -0.1446
15261SOL    HW147651   1.042   1.335   1.842 -0.3319  0.8369 -3.1205
15261SOL    HW247652   1.077   1.201   1.781 -0.1478 -1.0725  0.8820
15262SOL     OW47653   2.844   7.029   7.514 -0.3022 -0.1048 -0.1026
15262SOL    HW147654   2.876   7.118   7.528 -1.9645  0.5266 -0.0459
15262SOL    HW247655   2.912   6.972   7.552  0.7675  1.1230 -0.1202
15263SOL     OW47656   3.804   8.233   4.387  0.2960 -0.0267 -0.2438
15263SOL    HW147657   3.887   8.199   4.354 -0.5189 -0.7074 -1.6812
15263SOL    HW247658   3.751   8.155   4.403 -0.5139  0.4385 -0.5921
15264SOL     OW47659   5.927   6.177   6.523  0.2446 -0.6557  0.4566
15264SOL    HW147660   5.995   6.153   6.587 -0.8182  0.6707  2.1945
15264SOL    HW247661   5.884   6.253   6.562 -1.6889 -0.9335 -0.9938
15265SOL     OW47662   7.812   3.087   8.045 -0.2642 -1.0266  0.5233
15265SOL    HW147663   7.861   3.103   7.965  0.8338 -0.4992  1.2759
15265SOL    HW247664   7.826   2.994   8.064  0.5322 -0.8558  0.7851
15266SOL     OW47665   4.104   0.171   1.478  0.6286 -0.1880 -0.1115
15266SOL    HW147666   4.150   0.132   1.553  0.8572 -0.4956 -0.4142
15266SOL    HW247667   4.172   0.215   1.428  0.5322 -0.2961 -0.3386
15267SOL     OW47668   3.468   3.552   4.239 -0.4248  0.0736 -0.1290
15267SOL    HW147669   3.436   3.484   4.180  0.1284 -0.5347  0.2515
15267SOL    HW247670   3.510   3.503   4.310  0.7596  0.8142 -0.2915
15268SOL     OW47671   6.988   8.185   2.925  0.2140  0.3790  0.3958
15268SOL    HW147672   6.915   8.223   2.877 -0.5543 -1.5456 -0.0536
15268SOL    HW247673   7.065   8.204   2.871 -0.0524  1.7524  0.4852
15269SOL     OW47674   1.565   8.627   5.738 -0.8094 -0.0730  0.4658
15269SOL    HW147675   1.567   8.536   5.768 -0.5299  0.1429  1.1228
15269SOL    HW247676   1.610   8.626   5.653  0.5458 -0.3003  1.1663
15270SOL     OW47677   7.606   6.272   5.184  0.7360 -0.4206 -0.1129
15270SOL    HW147678   7.616   6.193   5.132 -0.2111 -0.6250 -0.0104
15270SOL    HW247679   7.521   6.261   5.227  0.7772  0.4712  0.2135
15271SOL     OW47680   6.946   2.767   2.298 -0.0084  0.1911  0.5530
15271SOL    HW147681   6.907   2.712   2.366 -1.5299  0.7843  0.1790
15271SOL    HW247682   6.925   2.724   2.216  0.1426  0.5039  0.3468
15272SOL     OW47683   3.758   4.459   6.769 -0.1683  0.1669 -0.2398
15272SOL    HW147684   3.694   4.486   6.703 -1.5261  1.2942  1.4385
15272SOL    HW247685   3.756   4.364   6.766 -0.0764  0.1864 -1.8976
15273SOL     OW47686   6.833   5.512   6.365  0.1411 -0.5641  0.6260
15273SOL    HW147687   6.789   5.580   6.414 -0.3494 -0.2711 -0.1913
15273SOL    HW247688   6.884   5.464   6.430 -1.4567 -0.9795  1.6293
15274SOL     OW47689   7.981   0.647   2.203  0.3491  0.4416 -0.5656
15274SOL    HW147690   7.926   0.704   2.149  0.1027 -1.8790 -2.9737
15274SOL    HW247691   8.068   0.686   2.197 -0.0549  1.3140 -1.0094
15275SOL     OW47692   0.754   7.390   2.084 -0.2518 -0.5380 -0.1674
15275SOL    HW147693   0.716   7.354   2.164 -0.7900 -1.1605 -0.6870
15275SOL    HW247694   0.845   7.360   2.085 -0.4394 -1.1142 -0.1205
15276SOL     OW47695   4.943   2.321   6.601  0.6071  0.2335  0.0406
15276SOL    HW147696   5.030   2.360   6.614  1.1845 -0.2127 -2.1542
15276SOL    HW247697   4.942   2.246   6.660  1.6164  0.3919  0.2842
15277SOL     OW47698   7.249   3.916   0.435 -0.1996 -0.0777 -0.1700
15277SOL    HW147699   7.153   3.918   0.436 -0.2061  0.3050 -0.8792
15277SOL    HW247700   7.273   3.940   0.346  0.5548 -0.6285 -0.1267
15278SOL     OW47701   8.969   6.404   3.512  0.0725  0.3925 -0.5456
15278SOL    HW147702   9.058   6.397   3.545  0.6789  2.0938 -1.7067
15278SOL    HW247703   8.916   6.427   3.588  1.0304  1.7500 -0.2644
15279SOL     OW47704   3.575   4.384   8.786  0.5593 -0.6629 -0.1185
15279SOL    HW147705   3.494   4.349   8.822 -0.3163  1.1819 -0.2284
15279SOL    HW247706   3.574   4.357   8.694 -0.1704 -0.2531 -0.2351
15280SOL     OW47707   8.176   7.804   3.608  0.6320  0.0405 -0.4276
15280SOL    HW147708   8.215   7.736   3.553 -0.8935 -1.1649 -0.1001
15280SOL    HW247709   8.089   7.770   3.631  0.2228  1.6446  0.6249
15281SOL     OW47710   4.438   2.113   7.081 -0.3472 -0.0280 -0.8971
15281SOL    HW147711   4.468   2.189   7.129 -2.4667  0.1577  0.2609
15281SOL    HW247712   4.486   2.039   7.118 -0.3977  0.3935  0.0108
15282SOL     OW47713   6.002   8.281   3.315  0.2639 -0.2010 -0.0133
15282SOL    HW147714   6.022   8.205   3.369 -0.1660 -0.5843 -0.3908
15282SOL    HW247715   6.016   8.251   3.225 -1.2576 -0.2606 -0.2489
15283SOL     OW47716   0.861   5.982   5.065  0.5783 -0.3916 -0.3950
15283SOL    HW147717   0.873   5.926   4.989 -0.5616 -0.3949 -0.5965
15283SOL    HW247718   0.779   6.028   5.048 -0.5269 -1.5123  1.4871
15284SOL     OW47719   6.369   1.491   6.771  0.0308 -0.1423 -0.3961
15284SOL    HW147720   6.324   1.480   6.855 -0.6356 -1.6833 -0.9181
15284SOL    HW247721   6.343   1.415   6.720  1.7044 -0.0582 -1.4417
15285SOL     OW47722   4.382   5.724   1.216  0.3754  0.1098  0.5807
15285SOL    HW147723   4.444   5.672   1.268 -1.9232 -2.3882  1.0356
15285SOL    HW247724   4.395   5.692   1.126  1.3603  1.3658  0.2345
15286SOL     OW47725   3.197   3.609   1.955 -0.1470  0.0137 -0.8269
15286SOL    HW147726   3.242   3.532   1.989  2.5143  0.9380 -1.9471
15286SOL    HW247727   3.104   3.588   1.961  0.3430 -1.9407  1.9159
15287SOL     OW47728   5.006   1.276   3.591 -0.1134 -0.0238 -0.1164
15287SOL    HW147729   5.086   1.329   3.590 -0.8508  1.1799  0.8698
15287SOL    HW247730   5.010   1.224   3.511  2.0102 -0.5457  0.2757
15288SOL     OW47731   8.243   3.453   0.132 -0.3869 -0.6913  0.2271
15288SOL    HW147732   8.246   3.428   0.224  1.4174 -0.1088  0.3571
15288SOL    HW247733   8.316   3.513   0.121  0.9141 -2.5135 -2.0931
15289SOL     OW47734   3.541   8.843   2.965  0.1667 -0.3755  0.5302
15289SOL    HW147735   3.627   8.825   2.927  0.7877  1.0140  1.1882
15289SOL    HW247736   3.559   8.854   3.059 -0.6443  0.3980  0.6087
15290SOL     OW47737   6.876   6.492   7.702  0.6664  0.1170  0.0511
15290SOL    HW147738   6.885   6.563   7.766  0.7201  0.0125  0.1592
15290SOL    HW247739   6.957   6.443   7.710  1.4804  1.1592 -1.3800
15291SOL     OW47740   6.377   6.988   2.070  0.1026 -0.3371  0.3188
15291SOL    HW147741   6.324   7.064   2.094  0.0673 -0.1012 -0.4752
15291SOL    HW247742   6.397   7.001   1.977  0.8037 -0.8746  0.3855
15292SOL     OW47743   5.821   6.180   3.135  0.0596 -0.3201  1.0457
15292SOL    HW147744   5.782   6.260   3.170  0.6733  0.7842 -0.6803
15292SOL    HW247745   5.915   6.190   3.154  0.4095  0.3176 -0.8575
15293SOL     OW47746   7.959   8.716   7.592  0.5230 -0.3729  0.3283
15293SOL    HW147747   8.024   8.777   7.558  0.5340  0.2308  1.3907
15293SOL    HW247748   7.925   8.758   7.671 -2.2641  0.0638 -0.9526
15294SOL     OW47749   2.341   6.223   5.704  0.0742  0.1274  0.5566
15294SOL    HW147750   2.265   6.281   5.700  1.4872  2.1123  0.6022
15294SOL    HW247751   2.395   6.259   5.775  0.8312 -1.5298  0.8676
15295SOL     OW47752   6.751   2.964   6.305  0.3768 -0.1923  0.0763
15295SOL    HW147753   6.672   2.937   6.352  1.0975 -0.9410  0.8962
15295SOL    HW247754   6.719   3.015   6.231 -0.8893 -0.7180  0.2400
15296SOL     OW47755   1.794   6.681   5.740  0.0043 -0.1354 -0.3124
15296SOL    HW147756   1.805   6.774   5.716 -0.5901  0.3110  1.0455
15296SOL    HW247757   1.866   6.637   5.696  1.3073  1.2247  0.3613
15297SOL     OW47758   5.911   2.946   3.719  0.7540  0.0568 -0.3736
15297SOL    HW147759   5.965   3.020   3.693 -1.8703  2.3264  0.2633
15297SOL    HW247760   5.951   2.914   3.800  2.1274  0.4855 -0.8589
15298SOL     OW47761   2.010   7.074   3.890  0.5277  0.3345  0.5941
15298SOL    HW147762   2.083   7.132   3.867 -0.6112  1.5058 -0.2103
15298SOL    HW247763   2.006   7.011   3.819  1.6609 -0.6834  1.3850
15299SOL     OW47764   0.808   2.829   3.145  0.2319 -0.9439 -0.0427
15299SOL    HW147765   0.735   2.780   3.182  0.9474 -1.3149  0.8999
15299SOL    HW247766   0.767   2.905   3.103 -0.5546 -0.0846  2.1602
15300SOL     OW47767   5.303   8.201   7.624  0.1020 -0.2072 -1.0142
15300SOL    HW147768   5.375   8.186   7.563  0.4378  0.8837 -0.9033
15300SOL    HW247769   5.225   8.173   7.577  0.3958  0.3263 -1.8363
15301SOL     OW47770   5.610   3.438   2.127  0.4691  0.6039 -0.5398
15301SOL    HW147771   5.581   3.379   2.057  1.4635 -2.5817  1.5250
15301SOL    HW247772   5.529   3.468   2.168 -0.0764 -0.8020 -0.5328
15302SOL     OW47773   7.980   7.967   8.840 -0.0559 -0.1361  0.3611
15302SOL    HW147774   7.970   7.883   8.883  4.0492 -0.7685  0.5287
15302SOL    HW247775   7.952   8.031   8.905  0.2651 -1.2864  1.6857
15303SOL     OW47776   7.889   8.721   8.175 -0.5188  0.2269  0.8736
15303SOL    HW147777   7.961   8.757   8.123 -1.9487 -0.3979 -1.6929
15303SOL    HW247778   7.854   8.797   8.222  0.0939  1.0500  0.0325
15304SOL     OW47779   3.971   7.894   1.615 -0.0507  0.1752 -0.4393
15304SOL    HW147780   3.992   7.984   1.639 -0.0592 -0.2516  1.2960
15304SOL    HW247781   4.056   7.851   1.608 -0.0544  0.2656 -1.0959
15305SOL     OW47782   8.518   1.826   5.880  0.1714  0.0558 -0.1939
15305SOL    HW147783   8.436   1.863   5.848  0.4597  0.0020 -1.0071
15305SOL    HW247784   8.508   1.825   5.975 -0.5046  0.6697 -0.2485
15306SOL     OW47785   1.937   6.869   0.993  0.1014 -0.0130  0.3249
15306SOL    HW147786   2.001   6.894   1.060 -0.0553 -1.4036  1.0163
15306SOL    HW247787   1.985   6.812   0.934  0.0750  0.7264 -0.4234
15307SOL     OW47788   2.806   4.723   6.868  0.0743 -0.4348 -0.2927
15307SOL    HW147789   2.765   4.761   6.791  1.7880  1.9393 -0.1390
15307SOL    HW247790   2.879   4.672   6.833  1.5187  1.5176 -0.2968
15308SOL     OW47791   6.477   4.254   2.197 -0.6625  0.4518 -0.2350
15308SOL    HW147792   6.559   4.205   2.189 -1.1085 -0.2429 -0.7000
15308SOL    HW247793   6.448   4.239   2.287 -0.6958  0.0201 -0.3174
15309SOL     OW47794   3.326   3.017   0.979 -0.2236 -0.4359  0.0103
15309SOL    HW147795   3.342   3.079   1.050  1.0984  0.7497 -1.2373
15309SOL    HW247796   3.287   3.070   0.910 -1.3728 -1.5388 -0.2051
15310SOL     OW47797   8.147   4.459   7.849  0.0044 -0.1611 -0.3504
15310SOL    HW147798   8.134   4.497   7.936 -1.5064  0.8792 -0.9784
15310SOL    HW247799   8.221   4.507   7.813 -0.3644  0.5285 -0.2144
15311SOL     OW47800   2.435   5.230   5.765 -0.3451  0.8190  0.0914
15311SOL    HW147801   2.427   5.191   5.852 -0.2039  1.0552  0.2133
15311SOL    HW247802   2.518   5.278   5.768 -1.4303  2.7758  0.6226
15312SOL     OW47803   2.427   4.694   0.341 -0.1080 -0.1498 -0.4071
15312SOL    HW147804   2.373   4.703   0.419 -0.1004 -2.4130 -0.0676
15312SOL    HW247805   2.511   4.733   0.366 -0.9652  1.7194 -0.3071
15313SOL     OW47806   1.127   4.771   1.806 -0.1723 -0.2579  0.0026
15313SOL    HW147807   1.116   4.714   1.731  0.6971  1.3018 -1.3751
15313SOL    HW247808   1.220   4.794   1.806 -0.1115 -0.3576  1.6663
15314SOL     OW47809   0.505   2.914   0.448 -0.3317 -0.0084 -0.0134
15314SOL    HW147810   0.570   2.984   0.435 -0.8141  0.6829  1.1037
15314SOL    HW247811   0.557   2.834   0.450  0.3924  0.4468 -0.0805
15315SOL     OW47812   8.866   7.781   8.031 -0.7089 -0.5652 -0.1445
15315SOL    HW147813   8.949   7.742   8.002  0.6239  1.4903  0.6952
15315SOL    HW247814   8.880   7.802   8.123 -0.2397  4.2258 -1.0615
15316SOL     OW47815   6.419   4.987   8.402  0.1249  0.4356  0.6268
15316SOL    HW147816   6.426   5.078   8.375 -0.7952  0.8205  1.6153
15316SOL    HW247817   6.509   4.959   8.417  0.4980  0.8417 -0.6843
15317SOL     OW47818   3.408   8.593   4.352  0.3050 -0.0980  0.3787
15317SOL    HW147819   3.465   8.521   4.323 -2.9522 -2.2860 -1.1843
15317SOL    HW247820   3.429   8.604   4.445  1.4911 -2.5348  0.4707
15318SOL     OW47821   3.744   5.414   8.205  0.0596 -0.6124  0.3871
15318SOL    HW147822   3.649   5.426   8.202  0.2051  0.5224 -0.5744
15318SOL    HW247823   3.774   5.440   8.118  1.3736  0.1558  1.0403
15319SOL     OW47824   5.595   0.547   1.011 -0.2091 -0.3628 -0.1709
15319SOL    HW147825   5.554   0.528   0.927  0.6352 -2.9361 -0.0934
15319SOL    HW247826   5.675   0.594   0.988 -0.9071  0.6116 -0.6486
15320SOL     OW47827   7.090   2.800   8.480 -0.1364  0.6282 -0.0551
15320SOL    HW147828   7.102   2.711   8.514 -1.7780  0.1641 -0.5672
15320SOL    HW247829   7.042   2.845   8.550 -1.0613  0.4935 -0.5824
15321SOL     OW47830   6.212   6.667   2.930  0.3212 -0.0348  0.1153
15321SOL    HW147831   6.210   6.574   2.952 -0.8205 -0.4174 -1.3921
15321SOL    HW247832   6.260   6.671   2.847  0.1859  0.7031  0.0640
15322SOL     OW47833   0.585   0.261   0.615 -0.4107  0.6367  0.0809
15322SOL    HW147834   0.572   0.316   0.692 -1.0928  1.6367 -0.7323
15322SOL    HW247835   0.636   0.315   0.555  1.9710 -0.8731  0.6081
15323SOL     OW47836   8.930   3.801   3.047 -0.2250  0.6443 -0.2183
15323SOL    HW147837   8.914   3.895   3.038  0.5774  0.6546 -1.9083
15323SOL    HW247838   8.845   3.760   3.034 -0.6650  1.1389  1.0011
15324SOL     OW47839   3.400   7.619   1.402 -0.2253 -0.0151 -0.2193
15324SOL    HW147840   3.377   7.619   1.495 -0.4124  1.2940 -0.2485
15324SOL    HW247841   3.438   7.706   1.387  0.6518 -0.5400 -1.1645
15325SOL     OW47842   7.761   5.741   7.834  0.6026  0.0455 -0.2257
15325SOL    HW147843   7.854   5.724   7.852  0.6893  1.1621  0.4915
15325SOL    HW247844   7.761   5.778   7.746  0.7022 -1.0746 -0.7036
15326SOL     OW47845   6.711   7.701   0.631 -0.4249  0.8210 -0.1273
15326SOL    HW147846   6.744   7.760   0.562  1.8180 -0.3131 -0.1195
15326SOL    HW247847   6.773   7.713   0.703 -0.0816 -1.2792 -0.0178
15327SOL     OW47848   8.004   1.673   3.168 -0.0149 -0.3147  0.3743
15327SOL    HW147849   8.042   1.747   3.215 -0.6859  0.4311 -0.2254
15327SOL    HW247850   8.016   1.694   3.075 -1.5886 -0.1941  0.1675
15328SOL     OW47851   3.284   6.829   8.077 -0.3946 -0.2683 -0.1522
15328SOL    HW147852   3.244   6.908   8.040 -1.0974  0.4037  1.8666
15328SOL    HW247853   3.249   6.825   8.166 -0.9035 -3.2677 -0.3914
15329SOL     OW47854   8.056   1.771   4.636  0.1082  0.2547 -0.1166
15329SOL    HW147855   8.026   1.788   4.725 -3.0623  1.2666 -1.2590
15329SOL    HW247856   8.091   1.682   4.639 -1.8310 -0.5219  1.7354
15330SOL     OW47857   8.390   0.662   4.512  0.2547  0.1575  0.2687
15330SOL    HW147858   8.475   0.626   4.485  1.1128  2.5358 -0.4183
15330SOL    HW247859   8.385   0.643   4.606  0.9870 -1.0314  0.0883
15331SOL     OW47860   4.322   7.003   7.826  0.0618  0.1755  0.1923
15331SOL    HW147861   4.403   6.960   7.854  0.1798  0.8069  0.8501
15331SOL    HW247862   4.316   7.081   7.881 -1.4165 -0.2857  0.7298
15332SOL     OW47863   8.500   4.172   7.818 -0.1306  0.7396  0.4344
15332SOL    HW147864   8.430   4.192   7.880 -0.2448 -0.2965  0.6599
15332SOL    HW247865   8.581   4.175   7.871 -0.0075  1.8327  0.1961
15333SOL     OW47866   5.469   4.147   3.680 -0.3554  0.4981  0.1180
15333SOL    HW147867   5.384   4.101   3.678 -0.0582 -0.0395 -1.3608
15333SOL    HW247868   5.451   4.228   3.728 -2.1891  1.2787 -1.7321
15334SOL     OW47869   0.083   2.202   0.341  0.1468 -0.1450 -0.1030
15334SOL    HW147870   0.004   2.245   0.373 -0.2735 -0.2594 -0.9781
15334SOL    HW247871   0.065   2.182   0.250  1.2478 -0.0220 -0.3673
15335SOL     OW47872   0.056   1.588   1.213  0.4188 -0.2694 -0.1568
15335SOL    HW147873   0.075   1.668   1.163 -0.1008  0.4762  0.8018
15335SOL    HW247874  -0.025   1.554   1.174 -1.1017  1.3925  1.3728
15336SOL     OW47875   0.115   6.152   0.741  0.3252  0.6303  0.0252
15336SOL    HW147876   0.169   6.073   0.740 -1.2272 -0.5291 -2.4212
15336SOL    HW247877   0.038   6.127   0.793 -1.1909 -0.3696 -2.4940
15337SOL     OW47878   0.135   4.435   0.030  0.5602 -0.2652  0.2741
15337SOL    HW147879   0.137   4.433   0.125  1.4182 -2.2875  0.2689
15337SOL    HW247880   0.226   4.431   0.003  0.3611  0.8963 -0.6662
15338SOL     OW47881   4.647   5.039   8.902  0.2013  0.0583 -0.3657
15338SOL    HW147882   4.599   5.035   8.985  0.0537  2.4941 -0.2632
15338SOL    HW247883   4.732   5.000   8.921  0.4135  1.1779  1.1663
15339SOL     OW47884   1.634   3.507   4.514  0.0381  0.1041  0.1961
15339SOL    HW147885   1.546   3.543   4.506 -0.4277 -0.0656  3.3149
15339SOL    HW247886   1.691   3.583   4.527  0.0502  0.1119  0.0939
15340SOL     OW47887   0.914   4.831   4.065 -0.2907 -0.5223  0.0554
15340SOL    HW147888   0.849   4.899   4.048 -1.1879 -1.1047  1.0194
15340SOL    HW247889   0.983   4.847   4.001 -0.9077  0.7310 -0.3315
15341SOL     OW47890   3.392   3.177   7.691 -0.5814  0.3733 -0.7782
15341SOL    HW147891   3.356   3.262   7.715 -0.9868 -0.4069  1.5893
15341SOL    HW247892   3.336   3.113   7.734  0.5822 -1.0558 -1.2818
15342SOL     OW47893   1.364   3.473   4.377  0.1102  0.3072  0.3322
15342SOL    HW147894   1.325   3.561   4.378 -0.6361 -0.0012 -0.2676
15342SOL    HW247895   1.392   3.461   4.286 -0.5318 -0.3776  0.2161
15343SOL     OW47896   4.735   1.625   0.589 -0.0432  0.3071 -0.3196
15343SOL    HW147897   4.799   1.632   0.661 -0.6311 -0.4700  0.2951
15343SOL    HW247898   4.784   1.651   0.511  0.6057  1.1844  0.3632
15344SOL     OW47899   5.364   7.850   2.452  0.3169 -0.3912 -0.7401
15344SOL    HW147900   5.401   7.938   2.438  0.2092 -0.5929 -2.6093
15344SOL    HW247901   5.439   7.796   2.476  0.2182  0.3807  1.6003
15345SOL     OW47902   6.093   0.730   4.003  0.2912  0.5073  0.2158
15345SOL    HW147903   6.041   0.729   4.083 -0.7745  2.0571 -0.4030
15345SOL    HW247904   6.182   0.747   4.032 -0.0783  0.9935  1.0887
15346SOL     OW47905   3.475   7.027   8.937  0.9687 -0.7459  0.6078
15346SOL    HW147906   3.528   7.101   8.967 -0.7167  0.0113  1.8221
15346SOL    HW247907   3.472   7.037   8.842  2.6723 -0.6176  0.5269
15347SOL     OW47908   6.890   7.289   6.143 -0.2348  0.2094  0.3123
15347SOL    HW147909   6.948   7.242   6.083  0.3050  2.3937 -1.0095
15347SOL    HW247910   6.857   7.222   6.203 -0.9495 -2.1787 -2.5229
15348SOL     OW47911   5.299   0.959   7.031 -0.0530  0.3208 -0.0012
15348SOL    HW147912   5.287   1.011   7.110  1.7155  1.3406 -0.3542
15348SOL    HW247913   5.385   0.918   7.041  0.4615  0.9038 -1.6000
15349SOL     OW47914   8.751   0.689   6.089  0.4337  0.2290 -0.4717
15349SOL    HW147915   8.732   0.599   6.063 -2.8150  0.4783  0.5567
15349SOL    HW247916   8.714   0.743   6.019 -2.0825  0.7451  1.1167
15350SOL     OW47917   7.050   2.213   7.791 -0.2033 -0.1545  0.3676
15350SOL    HW147918   7.001   2.253   7.720  0.0153 -2.1209 -0.9505
15350SOL    HW247919   7.060   2.284   7.856 -1.3062  1.3842 -1.0630
15351SOL     OW47920   8.628   1.627   6.068  0.1120  0.2306 -0.1133
15351SOL    HW147921   8.603   1.538   6.044  0.2537  0.2365 -0.2821
15351SOL    HW247922   8.721   1.620   6.093 -0.1464  0.1340  0.8822
15352SOL     OW47923   1.469   2.983   4.578  0.8961 -0.2197  0.4770
15352SOL    HW147924   1.561   3.010   4.586  0.2892  1.5658  2.6120
15352SOL    HW247925   1.428   3.053   4.528  0.6710 -0.9763 -0.4050
15353SOL     OW47926   2.076   7.756   4.735  0.0231  0.6655  0.8643
15353SOL    HW147927   2.003   7.708   4.695 -1.1501  0.6710  2.8826
15353SOL    HW247928   2.154   7.709   4.705 -1.0075 -1.7262  1.6655
15354SOL     OW47929   4.943   3.701   7.137 -0.6612  0.0690 -0.8939
15354SOL    HW147930   4.966   3.792   7.158  1.4437 -0.6149 -0.0038
15354SOL    HW247931   4.949   3.696   7.042  0.1459  0.6476 -0.8848
15355SOL     OW47932   3.383   8.994   5.108 -0.1176  0.4969 -0.2338
15355SOL    HW147933   3.398   8.913   5.058 -0.1523  0.6378 -0.4706
15355SOL    HW247934   3.386   9.064   5.042  0.9205  0.7890  0.1034
15356SOL     OW47935   8.573   0.523   3.083 -0.2220  0.0418 -0.1237
15356SOL    HW147936   8.524   0.444   3.062  0.2623 -0.7215  1.4989
15356SOL    HW247937   8.530   0.559   3.160 -0.5450  1.4883 -0.9385
15357SOL     OW47938   5.108   0.696   7.604 -0.2385  0.6508  0.0598
15357SOL    HW147939   5.017   0.710   7.632 -0.3741 -2.0706  1.2622
15357SOL    HW247940   5.116   0.601   7.594  2.1094  0.9214 -1.4496
15358SOL     OW47941   4.377   8.350   0.304 -0.0851  0.0154 -0.7353
15358SOL    HW147942   4.383   8.283   0.236 -0.2600 -0.5141 -0.2296
15358SOL    HW247943   4.411   8.429   0.262  1.9619 -0.8161 -0.7591
15359SOL     OW47944   5.154   4.707   7.578 -0.0797  0.5425 -0.1051
15359SOL    HW147945   5.199   4.622   7.578  1.0899  1.1196 -1.1488
15359SOL    HW247946   5.186   4.751   7.656 -0.4767  0.1374  0.2922
15360SOL     OW47947   8.659   7.172   1.540 -0.2470 -0.5032 -0.0720
15360SOL    HW147948   8.705   7.254   1.520  0.8101 -0.9862  0.2918
15360SOL    HW247949   8.578   7.177   1.490 -0.0499  0.6215 -0.3125
15361SOL     OW47950   3.753   7.439   0.005 -0.2488  0.2637  0.3636
15361SOL    HW147951   3.776   7.495  -0.069  1.2883  0.0704  0.6514
15361SOL    HW247952   3.727   7.500   0.074 -0.8175  0.4896 -0.0447
15362SOL     OW47953   4.934   0.830   3.852  0.0372  0.4979 -0.4212
15362SOL    HW147954   4.920   0.922   3.827  0.7236  1.1741  1.4566
15362SOL    HW247955   4.980   0.836   3.936  1.0313 -1.5939 -0.7846
15363SOL     OW47956   0.741   2.858   8.562  0.7097  0.0889  0.4514
15363SOL    HW147957   0.706   2.776   8.595 -0.4557  0.6384  0.6398
15363SOL    HW247958   0.834   2.856   8.585  0.4217 -0.5941  1.6074
15364SOL     OW47959   8.317   8.851   8.202 -0.3420 -0.1696  0.8994
15364SOL    HW147960   8.402   8.844   8.159 -0.7577  1.3949 -0.2685
15364SOL    HW247961   8.295   8.761   8.226 -0.7555 -1.5421 -3.6499
15365SOL     OW47962   7.461   5.279   1.411 -0.2465 -0.1498 -0.0571
15365SOL    HW147963   7.373   5.293   1.445 -0.2618  0.5218 -0.3713
15365SOL    HW247964   7.513   5.350   1.448 -0.1973  0.4135 -1.1598
15366SOL     OW47965   8.652   3.837   0.721 -0.6104 -0.0815  0.3126
15366SOL    HW147966   8.591   3.861   0.790 -0.6953 -1.4551  0.7330
15366SOL    HW247967   8.722   3.903   0.727 -1.2782  0.5993  0.8132
15367SOL     OW47968   5.267   4.197   8.518  0.0534 -0.3902  0.2565
15367SOL    HW147969   5.247   4.213   8.610 -0.5204 -1.5105  0.3378
15367SOL    HW247970   5.344   4.251   8.501 -0.7808  1.0734  0.9510
15368SOL     OW47971   5.774   0.579   3.176  0.0475  0.2536  0.0083
15368SOL    HW147972   5.739   0.668   3.184  3.1658  1.7191 -1.1081
15368SOL    HW247973   5.772   0.561   3.082  2.4119  0.5292 -0.1419
15369SOL     OW47974   5.115   4.771   3.056 -0.6111 -0.5906 -0.6135
15369SOL    HW147975   5.127   4.711   3.129  0.5645 -1.7225 -1.6923
15369SOL    HW247976   5.193   4.760   3.002  1.2828  4.1987  0.6557
15370SOL     OW47977   8.638   0.263   5.770  0.4615  0.3792  0.2057
15370SOL    HW147978   8.555   0.308   5.754 -0.5861 -1.6967 -0.5335
15370SOL    HW247979   8.634   0.185   5.715  3.3539  0.6874 -0.6024
15371SOL     OW47980   0.107   0.007   3.305 -0.4551 -0.1149  0.4646
15371SOL    HW147981   0.047   0.053   3.247  0.3612  0.5424  0.1039
15371SOL    HW247982   0.111  -0.082   3.270 -0.9900 -0.0790  0.3117
15372SOL     OW47983   3.712   4.143   4.422 -0.1900 -0.4640  0.3758
15372SOL    HW147984   3.623   4.176   4.434  0.2514  0.4478  1.3737
15372SOL    HW247985   3.727   4.089   4.500  0.4413  0.1528  0.6920
15373SOL     OW47986   2.932   1.170   6.013  0.3610 -0.0457 -0.3738
15373SOL    HW147987   2.976   1.215   5.941  1.8448 -0.8404 -0.0061
15373SOL    HW247988   2.989   1.186   6.089  0.0307 -1.1344  0.1132
15374SOL     OW47989   6.958   5.484   6.630 -0.0504 -0.0467  0.3337
15374SOL    HW147990   7.033   5.424   6.639  0.7102  0.7766 -0.2758
15374SOL    HW247991   6.921   5.489   6.718  0.5870 -0.5117  0.6390
15375SOL     OW47992   2.968   2.046   1.948  0.4736  0.2389 -0.5610
15375SOL    HW147993   3.057   2.052   1.981  1.2624 -1.6599 -2.1129
15375SOL    HW247994   2.968   1.966   1.895 -2.8075 -1.2172  1.3619
15376SOL     OW47995   3.766   5.832   8.932 -0.4622 -0.2430  0.2280
15376SOL    HW147996   3.697   5.845   8.867 -0.0053  2.3524  0.1656
15376SOL    HW247997   3.843   5.875   8.894  0.0936  0.4281  2.0036
15377SOL     OW47998   5.128   0.508   5.130  0.2744  0.0430  0.1048
15377SOL    HW147999   5.143   0.602   5.120  0.7278 -0.0660 -0.2670
15377SOL    HW248000   5.212   0.474   5.163  0.6112 -0.4533 -1.2021
15378SOL     OW48001   3.392   3.929   4.101 -0.0810  0.2609 -0.2275
15378SOL    HW148002   3.429   3.955   4.185 -0.1629 -2.3761  0.7393
15378SOL    HW248003   3.299   3.914   4.119 -0.0645 -0.4953 -0.7047
15379SOL     OW48004   2.682   1.870   3.240 -0.1661 -0.4845 -0.2905
15379SOL    HW148005   2.639   1.791   3.274 -0.5464  0.0904  0.5993
15379SOL    HW248006   2.618   1.909   3.182 -1.6822  1.3341  2.3896
15380SOL     OW48007   5.719   4.411   8.841  0.1891 -0.0267 -0.8027
15380SOL    HW148008   5.676   4.492   8.813  0.1950  1.2715  2.5227
15380SOL    HW248009   5.647   4.349   8.854  0.1050 -0.3288 -2.4899
15381SOL     OW48010   4.715   6.659   7.565  0.3133  0.5480 -0.3042
15381SOL    HW148011   4.798   6.706   7.557  1.9989 -2.1245  0.2198
15381SOL    HW248012   4.707   6.640   7.658 -0.3778 -0.0726 -0.4798
15382SOL     OW48013   7.469   5.660   0.685 -0.3713  0.1393  0.5124
15382SOL    HW148014   7.519   5.623   0.612  0.3850  0.6327  0.7708
15382SOL    HW248015   7.388   5.608   0.687 -1.1278  1.1072 -1.6668
15383SOL     OW48016   7.270   6.641   7.053  0.1222  0.4418  0.1472
15383SOL    HW148017   7.302   6.677   6.971  1.1287 -0.2288  0.2278
15383SOL    HW248018   7.295   6.706   7.119 -0.3601  0.8028 -0.0147
15384SOL     OW48019   4.961   1.922   7.913  0.2908 -0.1152  0.2117
15384SOL    HW148020   4.880   1.906   7.865 -0.4817  2.7561  0.3920
15384SOL    HW248021   4.939   1.904   8.005 -0.4047  1.3339  0.3538
15385SOL     OW48022   3.317   7.495   2.910 -0.1958 -0.1940 -0.0183
15385SOL    HW148023   3.254   7.450   2.854  0.5019  1.6174 -2.4256
15385SOL    HW248024   3.272   7.576   2.935 -0.1780 -0.6059  1.4166
15386SOL     OW48025   8.443   0.399   1.382  0.3343 -0.3745  0.0331
15386SOL    HW148026   8.350   0.380   1.369 -0.0460  0.7893  0.8864
15386SOL    HW248027   8.448   0.494   1.380  1.2149 -0.3595  1.8706
15387SOL     OW48028   0.814   5.909   5.445  0.0501 -0.1881 -0.3248
15387SOL    HW148029   0.769   5.975   5.391 -1.0627 -1.2535 -0.7510
15387SOL    HW248030   0.835   5.839   5.383  0.4163 -0.6258  0.2919
15388SOL     OW48031   7.497   8.876   5.484 -0.3636 -0.2920  0.2145
15388SOL    HW148032   7.420   8.866   5.429 -0.8788  0.3673  0.7920
15388SOL    HW248033   7.462   8.896   5.571  0.4656  0.9911  0.2753
15389SOL     OW48034   2.205   0.538   2.502  0.2377 -0.0372 -0.1788
15389SOL    HW148035   2.216   0.603   2.432 -0.8083  0.8521  0.4505
15389SOL    HW248036   2.275   0.559   2.564 -0.0717  0.4856  0.0039
15390SOL     OW48037   0.215   1.512   2.294  0.1960  0.2169 -0.4092
15390SOL    HW148038   0.279   1.579   2.271 -0.0870 -0.7372 -4.7346
15390SOL    HW248039   0.266   1.432   2.306  0.1606  0.3468  0.7246
15391SOL     OW48040   6.935   7.908   6.243 -0.3269 -0.1123  0.1386
15391SOL    HW148041   7.000   7.957   6.192 -0.8092 -0.3882 -0.7847
15391SOL    HW248042   6.939   7.820   6.207 -2.1077  0.1698 -0.8853
15392SOL     OW48043   3.004   8.752   0.129 -0.3247  0.0677  0.6485
15392SOL    HW148044   2.956   8.670   0.113 -1.9670  1.2220 -0.7264
15392SOL    HW248045   2.993   8.768   0.223 -1.5577 -0.3632  0.5993
15393SOL     OW48046   0.100   7.092   4.218  0.2053  0.5774 -0.1013
15393SOL    HW148047   0.071   7.137   4.139  0.4884 -0.0225 -0.5552
15393SOL    HW248048   0.031   7.111   4.283 -1.8504 -1.6921 -1.4422
15394SOL     OW48049   4.894   3.419   8.146 -0.2638  0.1149  0.4533
15394SOL    HW148050   4.889   3.511   8.119 -0.7145  0.3198  1.1806
15394SOL    HW248051   4.974   3.386   8.106 -0.8005  0.4375 -0.9561
15395SOL     OW48052   4.616   5.735   2.406 -0.7082 -0.6921  0.8142
15395SOL    HW148053   4.639   5.642   2.408  2.0424 -0.3929 -3.3574
15395SOL    HW248054   4.528   5.737   2.369  0.8848 -1.8925 -3.8099
15396SOL     OW48055   6.921   2.101   3.643 -0.0226 -0.2761 -0.0747
15396SOL    HW148056   6.979   2.143   3.707 -0.9786  1.2834 -0.1831
15396SOL    HW248057   6.856   2.056   3.696  1.6322 -2.6719  0.0629
15397SOL     OW48058   2.745   2.104   0.931  0.3982  0.5253  0.2336
15397SOL    HW148059   2.738   2.009   0.927  2.1029  0.3099  1.3798
15397SOL    HW248060   2.659   2.136   0.903 -0.8879 -1.3871  1.7574
15398SOL     OW48061   6.815   3.076   8.544  0.0023 -0.7384  0.4589
15398SOL    HW148062   6.889   3.029   8.583 -0.0214 -1.0180  0.1749
15398SOL    HW248063   6.741   3.055   8.601  0.4349  0.7846  1.6373
15399SOL     OW48064   7.646   6.588   8.215 -0.0888 -0.2837  0.0043
15399SOL    HW148065   7.570   6.533   8.232  0.6128 -2.2272 -2.5679
15399SOL    HW248066   7.717   6.549   8.267  0.1201 -1.1565 -0.8999
15400SOL     OW48067   5.058   2.690   3.722 -0.3212 -0.5975  0.1723
15400SOL    HW148068   4.985   2.667   3.664  0.1328  0.1504 -0.7177
15400SOL    HW248069   5.134   2.648   3.683 -0.0337 -0.2207  0.3263
15401SOL     OW48070   7.674   0.785   2.670 -0.1676 -0.3807 -0.5114
15401SOL    HW148071   7.682   0.695   2.640  0.1746 -0.8033  0.7827
15401SOL    HW248072   7.753   0.828   2.637 -0.5294 -0.4391 -1.4726
15402SOL     OW48073   6.446   1.914   5.899  0.2426  0.0950  0.0238
15402SOL    HW148074   6.541   1.920   5.910  0.2576 -2.5935  2.7355
15402SOL    HW248075   6.410   1.963   5.973 -0.5823  1.4761 -1.2290
15403SOL     OW48076   6.278   3.673   5.183  0.0234  0.0279 -0.0125
15403SOL    HW148077   6.369   3.684   5.158  0.2138 -1.8739 -0.3072
15403SOL    HW248078   6.264   3.738   5.252  1.1613  1.3361 -0.9689
15404SOL     OW48079   7.216   1.810   0.190 -0.7156  0.0463  0.3085
15404SOL    HW148080   7.162   1.834   0.265  0.7059 -0.1963  1.4603
15404SOL    HW248081   7.281   1.749   0.225  0.9739  1.1451 -0.7412
15405SOL     OW48082   7.703   8.396   1.660  0.0126 -0.0702  0.2453
15405SOL    HW148083   7.748   8.401   1.744  0.5581  2.5137 -0.0865
15405SOL    HW248084   7.758   8.338   1.607  0.7108 -0.2203  1.1081
15406SOL     OW48085   3.292   4.554   0.682  0.2238  0.1344  0.1470
15406SOL    HW148086   3.238   4.476   0.695  1.1573 -0.2378  2.1432
15406SOL    HW248087   3.238   4.626   0.716 -0.5796  0.3954 -1.5643
15407SOL     OW48088   7.254   5.873   5.175  0.1564 -0.0845  0.0413
15407SOL    HW148089   7.317   5.906   5.240  0.9139 -2.4967  0.6297
15407SOL    HW248090   7.248   5.779   5.193 -0.8061 -0.5606 -2.4122
15408SOL     OW48091   6.110   3.891   7.712  0.0221 -0.2228  0.3736
15408SOL    HW148092   6.144   3.960   7.770  0.5669 -1.0567  1.0646
15408SOL    HW248093   6.055   3.837   7.769 -1.9090  0.6510 -0.5561
15409SOL     OW48094   6.975   6.330   4.382 -0.5617  0.1093 -0.9868
15409SOL    HW148095   7.001   6.238   4.377 -0.7881 -0.0419  0.1939
15409SOL    HW248096   7.001   6.368   4.298 -0.7321 -1.1006 -1.6031
15410SOL     OW48097   2.699   3.881   8.435  0.4062 -0.2220  0.0928
15410SOL    HW148098   2.614   3.843   8.458  0.1361 -0.9376 -1.8351
15410SOL    HW248099   2.763   3.828   8.482 -0.1524 -0.6904  0.3358
15411SOL     OW48100   0.427   6.621   0.648 -0.1649  0.0699  0.3730
15411SOL    HW148101   0.507   6.640   0.696 -1.2243  0.1145  2.2262
15411SOL    HW248102   0.387   6.548   0.696 -2.6767  1.9566  1.3472
15412SOL     OW48103   7.660   5.407   2.115  0.2906 -0.1252 -0.2094
15412SOL    HW148104   7.740   5.449   2.083 -0.0695  1.2404  0.5799
15412SOL    HW248105   7.596   5.422   2.046  0.3083  0.1871 -0.1618
15413SOL     OW48106   6.630   4.315   5.979  0.3369 -0.2541  0.2990
15413SOL    HW148107   6.633   4.284   6.069 -1.0528  1.1284  0.8762
15413SOL    HW248108   6.537   4.328   5.961  0.6662  0.7209 -0.8865
15414SOL     OW48109   4.287   6.074   7.801  0.3022  0.8388  0.3337
15414SOL    HW148110   4.380   6.065   7.784 -0.1432 -1.0936 -1.5812
15414SOL    HW248111   4.264   6.161   7.767  1.2791  1.0723  0.2438
15415SOL     OW48112   6.466   0.953   7.224 -0.1816 -0.3597  0.0730
15415SOL    HW148113   6.526   0.889   7.186  1.1099  1.3286 -0.8777
15415SOL    HW248114   6.436   0.913   7.305  0.8425 -2.0052 -0.3117
15416SOL     OW48115   6.450   0.930   6.223 -0.1901  0.0740 -0.1287
15416SOL    HW148116   6.467   0.896   6.135  0.8166 -0.3743  0.2285
15416SOL    HW248117   6.389   0.867   6.262 -0.7016  0.3155 -0.5200
15417SOL     OW48118   2.844   7.125   2.592  0.2490 -0.0960 -0.0524
15417SOL    HW148119   2.776   7.073   2.633 -1.3740  0.7721 -1.5161
15417SOL    HW248120   2.892   7.063   2.536 -0.6528 -0.3380 -0.5663
15418SOL     OW48121   6.531   4.776   1.631  0.4927  0.2445  0.4017
15418SOL    HW148122   6.457   4.837   1.626  0.1880 -0.2134 -1.5196
15418SOL    HW248123   6.522   4.736   1.717  0.3045  2.3706  1.4525
15419SOL     OW48124   7.530   1.049   0.994 -0.1185 -0.9576 -0.1335
15419SOL    HW148125   7.476   1.085   0.924  0.9946 -0.4271 -0.7420
15419SOL    HW248126   7.468   1.029   1.064 -1.4467 -2.6704 -1.6928
15420SOL     OW48127   7.630   4.462   2.649  0.4052 -0.0504  0.1455
15420SOL    HW148128   7.592   4.519   2.582 -2.0496 -0.3133  1.2088
15420SOL    HW248129   7.678   4.396   2.599  1.4775  1.6202 -1.1764
15421SOL     OW48130   2.538   5.463   5.528 -0.2248  0.0669  0.2862
15421SOL    HW148131   2.601   5.437   5.595  2.1342  0.5644 -1.5785
15421SOL    HW248132   2.514   5.382   5.484  0.8821  0.1047 -0.4124
15422SOL     OW48133   4.084   5.546   8.870  0.5771 -0.2441  0.4086
15422SOL    HW148134   3.989   5.558   8.865  0.7320  0.9676 -0.1964
15422SOL    HW248135   4.104   5.483   8.801  0.2020 -0.6283  0.6449
15423SOL     OW48136   0.942   5.340   8.817 -0.1359  0.3168  0.3131
15423SOL    HW148137   0.847   5.345   8.806  0.1253  0.3241 -2.9145
15423SOL    HW248138   0.974   5.426   8.790  0.8583  0.0672  0.6332
15424SOL     OW48139   1.245   1.735   3.216  0.2453 -0.3359 -0.1548
15424SOL    HW148140   1.305   1.661   3.229  0.6110  0.0935  0.6632
15424SOL    HW248141   1.294   1.797   3.164 -0.6488 -1.3516 -2.3487
15425SOL     OW48142   4.631   0.437   6.869 -0.1110 -0.2291 -0.5969
15425SOL    HW148143   4.608   0.346   6.854 -0.6938 -0.0915 -0.5486
15425SOL    HW248144   4.726   0.440   6.857 -0.1843 -0.6883 -1.3509
15426SOL     OW48145   3.367   6.231   2.920  0.1555  1.0549  0.1341
15426SOL    HW148146   3.374   6.220   3.015 -1.9796 -2.7158  0.0204
15426SOL    HW248147   3.276   6.253   2.904 -0.5652 -2.2486 -1.1291
15427SOL     OW48148   6.113   1.753   7.452  0.0796 -0.2714  0.4162
15427SOL    HW148149   6.079   1.709   7.531 -1.7275 -0.4743 -0.4299
15427SOL    HW248150   6.180   1.693   7.418 -2.2443 -2.4329 -0.6492
15428SOL     OW48151   0.185   6.814   5.014  0.1500  0.3341 -0.4818
15428SOL    HW148152   0.161   6.891   5.066 -0.4583 -1.2001  1.6999
15428SOL    HW248153   0.112   6.804   4.952 -0.9339  0.2720  0.7442
15429SOL     OW48154   8.229   5.782   3.485 -0.1259  0.6681 -0.2134
15429SOL    HW148155   8.256   5.708   3.430 -1.5813 -0.4351  0.4949
15429SOL    HW248156   8.247   5.753   3.574  0.6191  1.7699  0.0208
15430SOL     OW48157   8.179   2.010   3.631  0.6904 -0.3868 -0.7523
15430SOL    HW148158   8.149   2.054   3.711  1.4368  1.4613 -1.4330
15430SOL    HW248159   8.220   2.080   3.579 -1.8321 -0.9832 -3.8249
15431SOL     OW48160   6.848   0.633   5.133 -0.2851  0.5038  0.6136
15431SOL    HW148161   6.783   0.701   5.151  0.1131  0.2242  3.5971
15431SOL    HW248162   6.796   0.557   5.107 -1.1252  0.6592  1.7224
15432SOL     OW48163   4.290   6.016   1.135 -0.3461 -0.1732  0.1122
15432SOL    HW148164   4.341   5.958   1.191 -1.2237 -1.1712 -0.1065
15432SOL    HW248165   4.322   6.104   1.157  1.1766 -0.7363  0.2663
15433SOL     OW48166   8.310   8.358   3.514 -0.2511  0.3738  0.3224
15433SOL    HW148167   8.319   8.355   3.609  0.5075  2.2347  0.3496
15433SOL    HW248168   8.273   8.444   3.495 -0.9068 -0.1701 -1.0524
15434SOL     OW48169   3.954   8.992   6.818  0.0450  0.4917 -0.0537
15434SOL    HW148170   3.895   8.933   6.866 -0.4284 -0.2928 -1.5281
15434SOL    HW248171   4.042   8.968   6.848 -0.3139  1.5366  2.0181
15435SOL     OW48172   2.618   7.008   7.920 -0.0149  0.2766 -0.5445
15435SOL    HW148173   2.632   6.955   7.841 -1.7613 -0.5528 -0.3341
15435SOL    HW248174   2.525   6.997   7.941  0.4346  0.2581  1.7632
15436SOL     OW48175   0.948   4.930   8.883  0.5088  0.1007  0.1349
15436SOL    HW148176   0.977   5.017   8.911 -2.2076  1.0275  0.3894
15436SOL    HW248177   0.863   4.919   8.925 -0.3812 -1.5961 -1.9464
15437SOL     OW48178   2.777   0.571   3.554 -0.0393  0.0838  0.1885
15437SOL    HW148179   2.832   0.496   3.532  1.2036  0.9497  0.2650
15437SOL    HW248180   2.829   0.648   3.531 -2.3682  1.0138 -2.6145
15438SOL     OW48181   4.918   2.080   5.173 -0.5287  0.4128 -0.3339
15438SOL    HW148182   4.988   2.045   5.229  1.1805  0.8192 -2.1039
15438SOL    HW248183   4.911   2.017   5.102  0.2085  1.8557 -1.7558
15439SOL     OW48184   5.744   1.606   7.307 -0.0100 -0.0789  0.0108
15439SOL    HW148185   5.724   1.599   7.213  0.2180  1.1576 -0.1496
15439SOL    HW248186   5.659   1.610   7.350 -0.1696  1.7287 -0.3743
15440SOL     OW48187   4.947   1.686   0.768 -0.1386 -0.9135 -0.0607
15440SOL    HW148188   5.016   1.708   0.706  0.6900 -1.8367  0.4896
15440SOL    HW248189   4.952   1.755   0.835  0.9920 -1.5250  0.5277
15441SOL     OW48190   1.077   4.554   8.545 -1.4264 -0.3941  0.1807
15441SOL    HW148191   1.056   4.625   8.606 -0.2550  0.1426 -0.0073
15441SOL    HW248192   1.111   4.484   8.602  1.1268  0.6605  0.1136
15442SOL     OW48193   2.351   6.204   0.778  0.7189 -0.5936  0.1951
15442SOL    HW148194   2.393   6.195   0.692  0.2742  0.3915 -0.1301
15442SOL    HW248195   2.303   6.122   0.790 -1.2411  0.2272 -1.6080
15443SOL     OW48196   6.098   8.205   5.036 -0.3445  0.2193 -0.0371
15443SOL    HW148197   6.057   8.137   4.982  0.1908  0.4985 -0.8044
15443SOL    HW248198   6.165   8.160   5.085 -1.8542 -0.3476  1.6153
15444SOL     OW48199   6.483   1.188   7.367 -0.1301 -0.1653  0.0784
15444SOL    HW148200   6.437   1.120   7.318 -0.5113  0.2156 -0.0982
15444SOL    HW248201   6.576   1.171   7.350 -0.2078 -0.8397  0.3055
15445SOL     OW48202   3.595   5.378   5.121 -0.0215 -0.1115 -0.2822
15445SOL    HW148203   3.630   5.467   5.116  1.4004 -0.6418 -0.0552
15445SOL    HW248204   3.609   5.342   5.034 -0.5390 -0.1444 -0.3543
15446SOL     OW48205   7.599   2.557   8.124  0.2010 -0.4656  0.0234
15446SOL    HW148206   7.651   2.553   8.205 -0.6497 -0.9443  0.5573
15446SOL    HW248207   7.536   2.486   8.133  0.5183 -0.9444 -1.3687
15447SOL     OW48208   5.724   2.226   8.180  0.2129 -0.7827  0.5031
15447SOL    HW148209   5.707   2.310   8.138  3.3086 -1.4096 -2.4305
15447SOL    HW248210   5.807   2.239   8.225  0.0634 -1.9270  1.1309
15448SOL     OW48211   5.153   1.557   6.113 -0.0715 -0.1272 -0.3465
15448SOL    HW148212   5.079   1.512   6.153 -2.2794  1.8438 -1.9203
15448SOL    HW248213   5.129   1.565   6.021  1.9525  0.9278 -0.8309
15449SOL     OW48214   4.347   8.536   6.641  0.0629 -0.3301  0.6667
15449SOL    HW148215   4.422   8.527   6.700 -2.0955 -2.1396  3.3848
15449SOL    HW248216   4.337   8.450   6.600 -0.0110  0.1734 -0.4374
15450SOL     OW48217   2.199   3.578   4.625  0.1554 -0.3591 -0.0136
15450SOL    HW148218   2.233   3.642   4.563  0.8300  1.1629  1.8258
15450SOL    HW248219   2.109   3.606   4.643  0.2263 -0.3147  0.2837
15451SOL     OW48220   4.146   2.826   2.391 -0.3544 -0.3441  0.2904
15451SOL    HW148221   4.108   2.913   2.400  0.6620  0.2667 -1.0884
15451SOL    HW248222   4.123   2.781   2.473 -0.9387  1.1871  0.9914
15452SOL     OW48223   5.008   3.082   5.393 -0.1215 -0.2660  0.4319
15452SOL    HW148224   4.973   3.118   5.311 -0.4370 -3.1957 -0.8659
15452SOL    HW248225   5.091   3.128   5.406 -1.0886  1.8067 -0.3095
15453SOL     OW48226   0.855   6.133   2.206 -0.2130  0.0527 -0.2937
15453SOL    HW148227   0.766   6.124   2.172  0.2380 -3.6276 -0.8556
15453SOL    HW248228   0.860   6.071   2.279  1.3000  1.7865  1.1902
15454SOL     OW48229   3.743   0.015   6.204  0.1930  0.5731  0.0859
15454SOL    HW148230   3.691   0.083   6.163 -1.0104  1.0633  2.2518
15454SOL    HW248231   3.714   0.015   6.296  4.1602  0.9982  1.5050
15455SOL     OW48232   0.853   2.375   0.044  0.0882  0.1790 -0.4494
15455SOL    HW148233   0.878   2.321  -0.031 -0.6643 -0.1371 -0.4770
15455SOL    HW248234   0.881   2.324   0.121 -0.4323 -0.1630 -0.4817
15456SOL     OW48235   6.726   4.798   7.142  0.7191 -0.3696  0.3537
15456SOL    HW148236   6.678   4.724   7.178 -0.8667  0.7728  0.7175
15456SOL    HW248237   6.738   4.777   7.050 -0.7270 -0.5980  0.1986
15457SOL     OW48238   3.351   7.862   7.086  0.3339  0.2532  0.4845
15457SOL    HW148239   3.358   7.957   7.091 -0.6046  0.3677 -0.0711
15457SOL    HW248240   3.383   7.840   6.999 -1.6676  0.3328 -0.3262
15458SOL     OW48241   1.787   2.053   2.446 -0.1044  0.5124  0.7082
15458SOL    HW148242   1.787   2.049   2.541  0.5899 -0.0683  0.6934
15458SOL    HW248243   1.795   2.146   2.425  1.2706  0.5164  1.2232
15459SOL     OW48244   6.577   0.696   5.201 -0.0574  0.5018 -0.5176
15459SOL    HW148245   6.620   0.708   5.286 -1.6872 -1.1294  0.6232
15459SOL    HW248246   6.572   0.601   5.190 -4.4042  0.4823  0.0950
15460SOL     OW48247   3.770   8.451   3.900 -0.1602  0.3224  0.1394
15460SOL    HW148248   3.712   8.436   3.974  0.0466  0.5499  0.3505
15460SOL    HW248249   3.858   8.438   3.935  0.0656  2.3281  0.4411
15461SOL     OW48250   6.935   4.005   3.113  0.4029  0.4533  0.7299
15461SOL    HW148251   6.941   4.100   3.106  1.0249  0.3131 -1.2557
15461SOL    HW248252   7.023   3.973   3.092  0.3921 -0.5487  2.0771
15462SOL     OW48253   4.115   8.126   1.756 -0.3314  0.1691  0.2011
15462SOL    HW148254   4.094   8.143   1.848 -0.0099 -2.4355  0.8244
15462SOL    HW248255   4.170   8.200   1.730 -0.3547  0.9171  2.1172
15463SOL     OW48256   7.447   3.768   8.817  0.0065  0.5314 -0.3159
15463SOL    HW148257   7.368   3.801   8.774 -0.7319 -0.1477  0.5089
15463SOL    HW248258   7.435   3.788   8.909  0.9378  0.6912 -0.2219
15464SOL     OW48259   4.705   3.516   4.961  0.1380 -0.0593 -0.1107
15464SOL    HW148260   4.758   3.587   4.999 -0.3509  0.0150  0.4478
15464SOL    HW248261   4.766   3.469   4.904  0.8151  0.0073  0.5387
15465SOL     OW48262   4.477   6.537   1.884 -0.2774 -0.1527  0.1165
15465SOL    HW148263   4.481   6.444   1.862 -0.9494 -0.2687  0.4781
15465SOL    HW248264   4.444   6.540   1.974 -0.9917  0.4571 -0.1525
15466SOL     OW48265   7.832   2.805   8.098 -0.3270  0.1005 -0.4806
15466SOL    HW148266   7.790   2.837   8.178  0.6476  0.6401 -0.1596
15466SOL    HW248267   7.765   2.753   8.054 -0.1882 -2.2751  1.8556
15467SOL     OW48268   0.775   2.523   7.059 -0.4002 -0.4352  0.4468
15467SOL    HW148269   0.718   2.590   7.022  0.7538  0.5036  0.2849
15467SOL    HW248270   0.747   2.515   7.150 -0.3095  0.5639  0.5738
15468SOL     OW48271   4.065   3.994   7.924 -0.1539 -0.2644 -0.2066
15468SOL    HW148272   4.122   3.962   7.993  1.1292  0.7393 -0.7680
15468SOL    HW248273   4.016   4.066   7.964  2.9954  2.6266 -1.0911
15469SOL     OW48274   1.280   2.121   3.777  0.0642 -0.3669 -0.3318
15469SOL    HW148275   1.348   2.175   3.818  0.7080  0.4354 -2.3329
15469SOL    HW248276   1.203   2.131   3.833  0.8126  0.9287  0.4854
15470SOL     OW48277   4.061   0.469   0.136  0.3459  0.3936 -0.0510
15470SOL    HW148278   4.018   0.490   0.054 -0.5168 -1.8541 -0.2537
15470SOL    HW248279   3.997   0.418   0.185  0.8760  1.5841  2.0186
15471SOL     OW48280   3.948   8.533   0.986  0.1775 -0.3021  0.1855
15471SOL    HW148281   3.943   8.614   1.036 -0.4783  0.8818 -1.7059
15471SOL    HW248282   3.859   8.519   0.955  0.9921  0.4924 -2.8233
15472SOL     OW48283   3.583   1.774   5.883  0.0466 -0.0569 -0.1721
15472SOL    HW148284   3.492   1.801   5.890  0.4341  0.9710  1.3329
15472SOL    HW248285   3.622   1.835   5.821 -1.0053 -2.7109 -3.8268
15473SOL     OW48286   6.643   8.951   0.800  0.5009  0.1607 -0.1003
15473SOL    HW148287   6.562   8.986   0.764  0.3544  0.4011  0.4526
15473SOL    HW248288   6.694   9.028   0.826  0.5249 -0.0074  0.3703
15474SOL     OW48289   5.017   7.382   0.304 -0.4227 -0.1854  0.2212
15474SOL    HW148290   4.987   7.389   0.213  0.7640 -2.4357 -0.4119
15474SOL    HW248291   5.045   7.291   0.313  0.6901  0.3198  2.4847
15475SOL     OW48292   4.544   3.551   1.518  0.4191  0.0315  0.3203
15475SOL    HW148293   4.563   3.644   1.533  0.3865 -0.1336  1.4959
15475SOL    HW248294   4.522   3.546   1.425 -2.7023  1.7823  0.7964
15476SOL     OW48295   7.454   4.344   5.521 -0.1045  0.0362 -0.1475
15476SOL    HW148296   7.448   4.437   5.502  0.1326 -0.0283 -0.5495
15476SOL    HW248297   7.367   4.309   5.498 -0.5326  0.3223  0.9719
15477SOL     OW48298   3.323   6.004   4.377 -0.3605  0.0465  0.2041
15477SOL    HW148299   3.338   5.912   4.398  0.3528  0.3707  1.2219
15477SOL    HW248300   3.234   6.021   4.406  0.2974  0.2456  2.3000
15478SOL     OW48301   1.694   3.556   8.961  0.2130  0.1014 -0.0358
15478SOL    HW148302   1.774   3.522   9.002 -0.1659 -0.7683  0.0010
15478SOL    HW248303   1.682   3.502   8.883 -0.3897  0.1665  0.0115
15479SOL     OW48304   0.548   6.378   8.031 -0.1760  0.1365  0.3837
15479SOL    HW148305   0.523   6.326   7.955 -0.4394  1.4406 -0.4728
15479SOL    HW248306   0.468   6.425   8.056  0.0471  0.1366  1.1253
15480SOL     OW48307   8.130   6.867   4.544 -0.3636 -0.5025  0.5086
15480SOL    HW148308   8.073   6.944   4.553  1.7074  1.4465 -1.7172
15480SOL    HW248309   8.113   6.834   4.456  0.8273 -0.8081  0.3711
15481SOL     OW48310   1.175   2.390   6.757 -0.7152  0.1478 -0.0229
15481SOL    HW148311   1.251   2.352   6.713 -0.3164  2.1520 -1.1831
15481SOL    HW248312   1.144   2.321   6.815  1.5163 -1.0034 -0.0911
15482SOL     OW48313   6.075   7.350   1.274 -0.4358 -0.1807 -0.2420
15482SOL    HW148314   5.994   7.380   1.231  0.1727  0.5194 -0.9437
15482SOL    HW248315   6.083   7.407   1.350  0.5341  1.3003 -1.3848
15483SOL     OW48316   2.214   0.787   0.013  0.2999  0.6092 -0.0361
15483SOL    HW148317   2.147   0.828   0.067  1.0730  1.6142  0.1899
15483SOL    HW248318   2.250   0.859  -0.039 -0.1419 -0.2536 -1.6077
15484SOL     OW48319   3.398   5.357   6.586  0.2780  0.5286 -0.5327
15484SOL    HW148320   3.462   5.422   6.615  1.5056 -1.1303  0.6657
15484SOL    HW248321   3.361   5.323   6.667 -0.3350 -0.2665 -1.1406
15485SOL     OW48322   7.622   3.814   7.610  0.1487 -0.3106 -0.6878
15485SOL    HW148323   7.664   3.753   7.670 -0.6833 -1.0688 -0.8558
15485SOL    HW248324   7.688   3.881   7.594  0.4768 -0.2417  0.8485
15486SOL     OW48325   0.900   5.264   4.855  0.0077 -0.0073 -0.8867
15486SOL    HW148326   0.824   5.269   4.912 -0.6989 -2.0284 -1.5745
15486SOL    HW248327   0.944   5.349   4.866 -2.4707  1.3372 -0.7071
15487SOL     OW48328   2.410   7.324   8.153  0.5140  0.1874  0.6737
15487SOL    HW148329   2.505   7.338   8.162  0.8992 -1.4991 -0.3084
15487SOL    HW248330   2.401   7.275   8.072 -1.2659  0.6264  0.5651
15488SOL     OW48331   2.090   8.872   6.834  0.0609  0.1845 -0.1874
15488SOL    HW148332   2.034   8.922   6.775 -1.0016 -0.1346  0.5313
15488SOL    HW248333   2.060   8.782   6.826  0.9582 -0.1148 -0.3285
15489SOL     OW48334   1.909   4.073   7.285 -0.1485 -0.1087  0.0022
15489SOL    HW148335   1.985   4.120   7.251 -1.0775  1.7177  0.2973
15489SOL    HW248336   1.885   4.011   7.216  1.6664 -0.8363 -0.0266
15490SOL     OW48337   0.424   3.607   4.018  0.2850 -0.3339 -0.3999
15490SOL    HW148338   0.493   3.547   3.990  1.6345  0.1225  1.6758
15490SOL    HW248339   0.462   3.694   4.003 -1.2638  0.0553 -2.4719
15491SOL     OW48340   3.508   3.228   2.286 -0.1114 -0.0651  0.2160
15491SOL    HW148341   3.500   3.301   2.347  0.3947 -0.1905  0.4357
15491SOL    HW248342   3.433   3.172   2.307  0.2061 -0.2477  0.9196
15492SOL     OW48343   4.210   8.130   3.824 -0.0217 -0.4038 -0.5179
15492SOL    HW148344   4.215   8.220   3.792  0.3426 -0.0515  0.4945
15492SOL    HW248345   4.224   8.137   3.919 -2.2373 -1.2605 -0.0467
15493SOL     OW48346   2.304   4.396   6.153  0.6893 -0.2681  0.4726
15493SOL    HW148347   2.290   4.452   6.076  1.5810  0.7491  1.0302
15493SOL    HW248348   2.230   4.417   6.211  0.1030 -0.9198 -0.0293
15494SOL     OW48349   3.967   0.682   2.316  0.2779  0.2039 -0.0775
15494SOL    HW148350   3.914   0.755   2.282  1.4510  0.3487 -1.7206
15494SOL    HW248351   4.043   0.724   2.356  0.7930 -0.0685 -0.7350
15495SOL     OW48352   3.623   2.929   1.276  0.2424 -0.3527  0.2306
15495SOL    HW148353   3.601   3.022   1.268 -1.5183 -0.7117  0.3505
15495SOL    HW248354   3.571   2.899   1.351  0.4150 -1.5215 -0.0973
15496SOL     OW48355   1.988   0.920   1.481 -0.2195 -0.2304  0.2627
15496SOL    HW148356   1.979   0.965   1.397  3.3628  0.6255  0.1771
15496SOL    HW248357   1.979   0.988   1.547 -0.4761 -0.4347  0.4412
15497SOL     OW48358   8.662   2.380   7.233  0.1270 -0.0709  0.0009
15497SOL    HW148359   8.682   2.446   7.167 -1.2328  0.4332  0.0701
15497SOL    HW248360   8.697   2.416   7.314  0.3778  0.0462 -0.1568
15498SOL     OW48361   4.893   8.490   8.046  0.1342 -0.3907 -0.0949
15498SOL    HW148362   4.963   8.533   7.997  1.3347 -0.4892  1.4243
15498SOL    HW248363   4.846   8.438   7.981  0.3610  1.0402 -1.4744
15499SOL     OW48364   7.812   1.316   2.873 -0.4409  0.2058 -0.1524
15499SOL    HW148365   7.730   1.366   2.876 -0.1110  0.7275  0.2540
15499SOL    HW248366   7.794   1.245   2.811 -1.6489 -0.4871  0.9453
15500SOL     OW48367   6.990   7.125   5.310 -0.2351 -0.1135 -0.2607
15500SOL    HW148368   7.060   7.067   5.281 -0.7978 -0.9272 -0.0181
15500SOL    HW248369   6.935   7.071   5.367  0.6133  1.2990  2.0476
15501SOL     OW48370   3.006   2.784   1.241 -0.0644  0.4406 -0.3006
15501SOL    HW148371   3.049   2.787   1.155  0.0650 -0.5007 -0.2777
15501SOL    HW248372   3.003   2.875   1.269  1.2815  0.6113 -0.6242
15502SOL     OW48373   6.115   0.294   2.008 -0.1244 -0.3240  0.0701
15502SOL    HW148374   6.163   0.316   1.928  1.5557  1.1550  1.3746
15502SOL    HW248375   6.080   0.378   2.038  0.4853 -0.5844  1.5930
15503SOL     OW48376   8.968   4.192   2.416  0.0456 -0.0558  0.0680
15503SOL    HW148377   8.892   4.238   2.451  0.1216 -0.0910  0.2791
15503SOL    HW248378   9.041   4.222   2.470 -0.0928 -1.3658  1.0375
15504SOL     OW48379   6.577   0.364   7.327  0.0811  0.1054 -0.2586
15504SOL    HW148380   6.656   0.415   7.348 -0.1280 -0.5163  2.4576
15504SOL    HW248381   6.563   0.310   7.405 -2.3276 -0.7338 -1.2014
15505SOL     OW48382   8.142   3.499   6.739 -0.4785  0.4333 -0.4936
15505SOL    HW148383   8.107   3.482   6.826  0.7189 -3.3511 -0.5249
15505SOL    HW248384   8.079   3.458   6.679  0.1329  0.3885 -1.1242
15506SOL     OW48385   7.026   7.152   8.471 -0.0374  0.0963  0.5356
15506SOL    HW148386   7.121   7.147   8.463 -0.0790 -0.9369  0.4585
15506SOL    HW248387   7.000   7.222   8.412  0.6701  0.3423  0.5049
15507SOL     OW48388   7.954   0.435   6.079  0.3401  0.0839 -0.3205
15507SOL    HW148389   7.947   0.345   6.110  1.6835 -0.0681 -0.3804
15507SOL    HW248390   7.907   0.435   5.995  0.0250 -0.4738 -0.1491
15508SOL     OW48391   4.354   5.719   3.758 -0.0339 -0.1830 -0.1751
15508SOL    HW148392   4.267   5.757   3.750  0.0897 -0.0075 -0.6781
15508SOL    HW248393   4.397   5.770   3.827 -0.5434 -0.6836  0.5318
15509SOL     OW48394   6.649   1.176   4.768  0.5877 -0.3905  0.8908
15509SOL    HW148395   6.643   1.269   4.749 -0.9807 -0.6351 -0.0432
15509SOL    HW248396   6.695   1.171   4.852  0.1635  1.2543  1.2574
15510SOL     OW48397   7.243   2.320   5.781 -0.2657  0.7875 -0.0737
15510SOL    HW148398   7.194   2.240   5.765  0.8922  0.0180  0.1676
15510SOL    HW248399   7.306   2.325   5.710  0.2574  1.0125  0.3951
15511SOL     OW48400   0.614   0.595   8.910 -0.4895 -0.1743  0.1336
15511SOL    HW148401   0.566   0.526   8.956  0.6996 -0.4698  0.9577
15511SOL    HW248402   0.647   0.552   8.831  0.1412 -0.5363  0.5818
15512SOL     OW48403   7.574   7.102   5.288 -0.6093 -0.0598 -0.4582
15512SOL    HW148404   7.666   7.121   5.308 -0.7468 -0.5384  0.7432
15512SOL    HW248405   7.574   7.010   5.260 -0.5188  0.4046 -2.0612
15513SOL     OW48406   6.903   1.768   7.728 -0.2621  0.1958 -0.1121
15513SOL    HW148407   6.903   1.737   7.818  0.3617  0.1254 -0.1384
15513SOL    HW248408   6.909   1.863   7.735  1.0773  0.1231 -0.1002
15514SOL     OW48409   7.919   3.111   6.470 -0.1149 -0.3657  0.1766
15514SOL    HW148410   7.968   3.075   6.544 -1.9010  1.7045  2.5432
15514SOL    HW248411   7.894   3.034   6.419  1.2116 -1.9038  1.6944
15515SOL     OW48412   5.812   8.999   1.330 -0.6002  0.0105 -0.1698
15515SOL    HW148413   5.786   8.927   1.388 -1.5202  1.5013  1.3696
15515SOL    HW248414   5.874   9.050   1.382 -0.9880  1.0632 -0.7086
15516SOL     OW48415   6.475   1.182   2.580  0.1401 -0.4144 -0.6243
15516SOL    HW148416   6.508   1.271   2.572 -0.0318 -0.3595 -0.7158
15516SOL    HW248417   6.443   1.176   2.669  1.7195 -0.9134 -0.0469
15517SOL     OW48418   1.082   7.298   1.485  0.3736  0.0685  0.4226
15517SOL    HW148419   1.151   7.363   1.492  0.3851 -0.0711  1.7194
15517SOL    HW248420   1.126   7.220   1.449  1.0111 -0.1699  1.6667
15518SOL     OW48421   7.295   7.112   5.281 -0.4120 -0.0772  0.2503
15518SOL    HW148422   7.281   7.201   5.313 -0.1594  0.0956 -0.1079
15518SOL    HW248423   7.390   7.105   5.272 -0.5077  0.1346 -1.1484
15519SOL     OW48424   3.228   5.073   1.420  0.0016  0.4201  0.1674
15519SOL    HW148425   3.211   5.125   1.499  1.0134 -0.3625  0.9300
15519SOL    HW248426   3.235   5.137   1.350 -1.1720  1.1168  0.6541
15520SOL     OW48427   8.415   7.734   8.952  0.2471  0.3782 -0.5047
15520SOL    HW148428   8.382   7.645   8.948 -1.1635  0.7963  0.8340
15520SOL    HW248429   8.456   7.749   8.867  2.4907 -2.2538 -0.0282
15521SOL     OW48430   8.544   2.216   1.286  0.5516 -0.4502  0.3971
15521SOL    HW148431   8.574   2.193   1.198  0.1020 -2.5757  0.7329
15521SOL    HW248432   8.618   2.193   1.343  0.5712  0.2236  0.6541
15522SOL     OW48433   1.839   2.485   5.139  0.4665 -0.0740 -0.3018
15522SOL    HW148434   1.906   2.487   5.209 -0.9184  2.3411  1.1091
15522SOL    HW248435   1.756   2.490   5.186 -0.6411 -0.7015 -2.1071
15523SOL     OW48436   0.821   6.985   3.109  0.6444 -0.3523  0.4470
15523SOL    HW148437   0.883   7.056   3.127  1.0285 -0.9610  1.6247
15523SOL    HW248438   0.747   7.028   3.066  0.8124  0.7898  1.2641
15524SOL     OW48439   2.172   8.974   5.950  0.4104  0.4611  0.3197
15524SOL    HW148440   2.129   9.035   5.890  0.2511  0.4489  0.4227
15524SOL    HW248441   2.115   8.970   6.026  0.5583  0.3909  0.4270
15525SOL     OW48442   3.796   2.293   2.050  0.3220  0.1136 -0.0713
15525SOL    HW148443   3.781   2.303   1.956  2.1023 -0.8753 -0.5168
15525SOL    HW248444   3.722   2.241   2.082  0.6411 -1.1596 -1.3124
15526SOL     OW48445   3.278   5.856   0.208 -0.2847  0.8257 -0.2771
15526SOL    HW148446   3.261   5.926   0.271 -0.8242  1.6509 -1.2934
15526SOL    HW248447   3.339   5.896   0.145  1.1801 -0.3556  0.3445
15527SOL     OW48448   0.993   6.697   0.648 -0.4848  0.0641 -0.0099
15527SOL    HW148449   1.083   6.692   0.682  0.5335 -0.3191 -2.4801
15527SOL    HW248450   0.990   6.781   0.602 -0.6462 -0.8419 -1.7261
15528SOL     OW48451   6.907   8.131   5.944 -0.4809  0.1735  0.5533
15528SOL    HW148452   6.828   8.095   5.984 -0.2164  0.7759  1.6455
15528SOL    HW248453   6.938   8.197   6.006  0.3217  0.6577 -0.3333
15529SOL     OW48454   1.015   4.369   1.161  0.2515 -0.2517 -0.1085
15529SOL    HW148455   0.968   4.292   1.129 -0.8244 -0.1170  1.0868
15529SOL    HW248456   1.003   4.368   1.256 -0.6430  1.9126 -0.1321
15530SOL     OW48457   2.577   2.395   1.999  0.5284 -0.5681  0.2528
15530SOL    HW148458   2.569   2.303   1.972 -2.2282  0.5692 -3.6229
15530SOL    HW248459   2.505   2.408   2.061  0.6894 -0.8680  0.5101
15531SOL     OW48460   5.073   1.503   5.871 -0.4633  0.2924 -0.0874
15531SOL    HW148461   4.979   1.512   5.855 -0.1318  0.3962 -2.2733
15531SOL    HW248462   5.115   1.554   5.801  1.2257 -0.5574  0.2383
15532SOL     OW48463   4.711   7.297   3.598 -0.3739  0.2255 -0.0597
15532SOL    HW148464   4.747   7.382   3.625 -0.2195  0.0947  0.1550
15532SOL    HW248465   4.721   7.296   3.503  0.8364 -0.0947  0.0530
15533SOL     OW48466   6.198   8.675   5.838 -0.4354 -0.0799 -0.0716
15533SOL    HW148467   6.173   8.689   5.929 -2.0983 -0.1118 -0.4950
15533SOL    HW248468   6.272   8.614   5.843 -0.1939  0.2932  1.2679
15534SOL     OW48469   1.362   3.593   5.627  0.1710 -0.1716 -0.2091
15534SOL    HW148470   1.390   3.563   5.540 -0.2778  0.9768 -0.7706
15534SOL    HW248471   1.362   3.514   5.681 -0.5414 -1.1056 -1.5131
15535SOL     OW48472   5.972   5.198   3.468  0.3246 -0.4181  0.3028
15535SOL    HW148473   5.950   5.115   3.509  0.6907 -1.4725 -1.5112
15535SOL    HW248474   6.067   5.207   3.479  0.2688 -0.1796  0.5984
15536SOL     OW48475   0.549   7.646   1.652 -0.7750  0.3140  0.3510
15536SOL    HW148476   0.479   7.674   1.712 -1.4281 -0.8113  0.1463
15536SOL    HW248477   0.506   7.584   1.593  0.1212  0.5652 -0.5813
15537SOL     OW48478   5.789   7.203   3.790  0.5079  0.1729  0.0263
15537SOL    HW148479   5.699   7.220   3.818  0.2886 -1.3077  0.2804
15537SOL    HW248480   5.819   7.287   3.753 -0.3691  1.1797  1.5111
15538SOL     OW48481   0.862   1.574   8.594 -0.7058 -0.1729  0.4489
15538SOL    HW148482   0.851   1.655   8.643 -1.9462 -0.6433  1.0070
15538SOL    HW248483   0.818   1.508   8.648  0.4410 -1.2671  0.1099
15539SOL     OW48484   2.986   6.695   2.008  0.1549 -0.0883 -0.1999
15539SOL    HW148485   2.904   6.745   2.004  0.8456  1.4380  2.2146
15539SOL    HW248486   3.029   6.711   1.924 -1.6994 -0.4145 -1.2590
15540SOL     OW48487   8.854   3.014   4.938  0.5127 -0.1851 -0.2012
15540SOL    HW148488   8.799   3.044   5.011  2.6074 -0.2152  1.4909
15540SOL    HW248489   8.882   3.094   4.894 -0.3976 -0.1433 -0.7296
15541SOL     OW48490   0.518   4.688   4.736 -0.7924 -0.4095  0.0941
15541SOL    HW148491   0.576   4.729   4.800 -1.0061 -1.1627  0.7757
15541SOL    HW248492   0.433   4.686   4.779 -1.2401  0.2847 -0.7298
15542SOL     OW48493   2.069   2.932   1.469  0.3313 -0.3218  0.3714
15542SOL    HW148494   2.076   2.910   1.376  0.2161 -0.3174  0.3624
15542SOL    HW248495   2.120   2.864   1.513  0.9847  0.0773  0.2518
15543SOL     OW48496   5.626   4.008   1.110 -0.1671 -0.1674  0.5133
15543SOL    HW148497   5.578   3.993   1.192  0.1358  2.6747  1.3236
15543SOL    HW248498   5.570   4.066   1.059  1.5359  1.8489  0.7635
15544SOL     OW48499   2.125   3.535   7.548  0.1928  0.2220 -0.2252
15544SOL    HW148500   2.065   3.506   7.616  0.0814  1.2385  0.1335
15544SOL    HW248501   2.088   3.618   7.517  2.0482  1.5643  0.9278
15545SOL     OW48502   5.263   5.535   7.561  0.9037  0.3400 -0.3627
15545SOL    HW148503   5.294   5.461   7.612  0.3245  0.2376 -0.1490
15545SOL    HW248504   5.323   5.540   7.487 -0.2253 -1.6072 -1.4816
15546SOL     OW48505   6.003   6.484   4.118  0.0263  0.3661  0.2130
15546SOL    HW148506   5.953   6.476   4.037 -0.1888  1.1084  0.2586
15546SOL    HW248507   5.975   6.410   4.172  0.6054 -0.4736 -0.6080
15547SOL     OW48508   8.758   7.207   6.313  0.0260 -0.1805 -0.4453
15547SOL    HW148509   8.699   7.197   6.239 -0.4603  1.8864 -0.3950
15547SOL    HW248510   8.845   7.217   6.274  0.1167 -1.4143 -0.5977
15548SOL     OW48511   6.689   3.657   7.464  0.1294  0.3960  0.3498
15548SOL    HW148512   6.721   3.747   7.474 -0.9645  0.7315  0.9885
15548SOL    HW248513   6.611   3.665   7.409 -0.3597 -0.0687  0.9623
15549SOL     OW48514   3.751   0.006   1.090 -0.0308  0.3104  0.0241
15549SOL    HW148515   3.798  -0.027   1.013 -3.2270 -0.1866 -1.9007
15549SOL    HW248516   3.714   0.089   1.061 -1.3646  0.0813  1.0029
15550SOL     OW48517   8.423   8.127   8.708 -0.0077 -0.0580  0.2776
15550SOL    HW148518   8.390   8.058   8.650  0.6011  1.0338 -1.4619
15550SOL    HW248519   8.388   8.106   8.794 -3.5590 -0.1094 -1.0231
15551SOL     OW48520   1.468   6.959   6.284  0.1270 -0.1463  0.2610
15551SOL    HW148521   1.447   6.897   6.214 -0.9121 -1.0167  1.2948
15551SOL    HW248522   1.465   7.045   6.242  1.0054 -0.7401 -1.0731
15552SOL     OW48523   2.338   0.995   1.802  0.0722 -0.1134  0.2833
15552SOL    HW148524   2.285   0.936   1.748  0.1797 -0.4469  0.5374
15552SOL    HW248525   2.275   1.058   1.838 -0.2941 -0.9804  1.2179
15553SOL     OW48526   0.649   0.135   0.982 -0.5967 -0.2734  0.5089
15553SOL    HW148527   0.647   0.058   1.038  1.3904 -0.4099  0.4656
15553SOL    HW248528   0.693   0.107   0.902 -1.5556  0.4440 -0.3051
15554SOL     OW48529   2.460   6.334   3.904 -0.4181 -0.1004 -0.3560
15554SOL    HW148530   2.443   6.262   3.965 -0.5326  0.8820  0.8145
15554SOL    HW248531   2.388   6.395   3.918  0.7954  1.2576  0.2589
15555SOL     OW48532   7.293   2.265   5.499 -0.2398 -0.3315  0.3722
15555SOL    HW148533   7.351   2.190   5.485 -0.2002  0.0686 -2.0866
15555SOL    HW248534   7.278   2.300   5.411 -3.7410 -0.0594  0.9304
15556SOL     OW48535   3.742   0.894   6.177  0.1830 -0.3395 -0.3219
15556SOL    HW148536   3.667   0.835   6.184 -0.2708  0.2937  0.2433
15556SOL    HW248537   3.758   0.923   6.266  0.3539  0.4411 -0.6002
15557SOL     OW48538   2.829   2.562   4.816 -0.7484  0.1444  0.8749
15557SOL    HW148539   2.870   2.509   4.748 -1.3403  0.4520  0.2604
15557SOL    HW248540   2.829   2.651   4.780 -1.6443  0.2018  0.9851
15558SOL     OW48541   8.971   7.537   6.539 -0.0650  0.5630 -0.4869
15558SOL    HW148542   8.898   7.533   6.477 -0.4411  1.1430 -0.0896
15558SOL    HW248543   8.939   7.593   6.610 -0.1497 -1.2146  0.9225
15559SOL     OW48544   3.054   7.007   4.642 -0.1074  0.7232 -0.3734
15559SOL    HW148545   3.131   7.064   4.643 -0.5981  1.4144 -0.8858
15559SOL    HW248546   3.089   6.919   4.655  0.7277  1.0704 -0.2106
15560SOL     OW48547   6.361   2.977   4.842 -0.2647  0.5200 -0.3344
15560SOL    HW148548   6.405   3.044   4.790  1.4217 -0.0765  0.2529
15560SOL    HW248549   6.407   2.896   4.821  0.7614  0.3113  2.2953
15561SOL     OW48550   3.561   0.462   4.143  0.4135 -0.3405  0.6782
15561SOL    HW148551   3.627   0.398   4.172  0.1911 -0.1436  1.6452
15561SOL    HW248552   3.582   0.477   4.050  0.5846 -1.6720  0.4746
15562SOL     OW48553   0.586   2.352   0.216 -0.0094  0.1678 -0.0139
15562SOL    HW148554   0.657   2.307   0.260 -0.5066  0.7658  1.4673
15562SOL    HW248555   0.506   2.316   0.255 -0.4578  1.0067 -0.1245
15563SOL     OW48556   7.956   7.165   4.017 -0.6522  0.3936 -0.1965
15563SOL    HW148557   8.005   7.209   3.947 -0.5200 -0.1674 -0.4630
15563SOL    HW248558   7.871   7.208   4.017 -0.4765  0.7517 -0.3525
15564SOL     OW48559   8.708   8.161   8.526  0.3992 -0.6537 -0.5607
15564SOL    HW148560   8.671   8.100   8.462  0.8672 -3.1265  1.3550
15564SOL    HW248561   8.643   8.231   8.532 -0.8610 -1.6366 -1.9035
15565SOL     OW48562   7.943   8.021   2.434  0.4174  0.5588  0.4071
15565SOL    HW148563   7.895   8.104   2.426  0.6971  0.8647  1.6659
15565SOL    HW248564   8.008   8.024   2.364 -0.0701  1.0551 -0.0403
15566SOL     OW48565   0.706   3.469   3.495  0.1552 -0.1301 -0.5705
15566SOL    HW148566   0.647   3.487   3.568  1.4601 -0.5653  0.6288
15566SOL    HW248567   0.661   3.504   3.418 -1.3386  0.1547  0.4071
15567SOL     OW48568   5.735   1.731   0.415  0.2839  0.0030 -0.1661
15567SOL    HW148569   5.660   1.792   0.421  0.9812  1.0129 -1.3255
15567SOL    HW248570   5.763   1.737   0.324 -1.2124 -4.0675 -1.0946
15568SOL     OW48571   7.802   7.959   5.547  0.2185 -0.4871 -0.2704
15568SOL    HW148572   7.732   7.904   5.583  0.2135 -0.4350 -0.2018
15568SOL    HW248573   7.799   7.942   5.453  0.9163 -1.4217 -0.1321
15569SOL     OW48574   6.304   2.170   5.238  0.1121 -0.2391  0.2183
15569SOL    HW148575   6.236   2.106   5.215 -0.5716  0.5270  0.0568
15569SOL    HW248576   6.366   2.121   5.292 -1.2925 -0.6177  1.5534
15570SOL     OW48577   2.902   4.048   1.663 -0.2982  0.4050  0.2495
15570SOL    HW148578   2.902   4.142   1.649  0.5774  0.2238 -1.1375
15570SOL    HW248579   2.964   4.033   1.734 -1.4232  0.9597  1.3888
15571SOL     OW48580   6.126   2.885   3.172 -0.2300  0.5398 -0.3163
15571SOL    HW148581   6.144   2.979   3.177 -1.6905  0.8212  0.1886
15571SOL    HW248582   6.170   2.849   3.249 -0.1677  0.9037 -0.1780
15572SOL     OW48583   6.932   0.236   8.987  0.8875  0.2790  0.0550
15572SOL    HW148584   6.951   0.286   8.907  0.4582 -0.0882 -0.2888
15572SOL    HW248585   6.914   0.148   8.955  0.8607  0.0963  0.5769
15573SOL     OW48586   1.130   2.140   8.452  0.5423 -0.0139 -0.1955
15573SOL    HW148587   1.179   2.141   8.370  0.7737  0.4379 -0.0534
15573SOL    HW248588   1.056   2.082   8.435 -0.4154  1.4741 -1.3202
15574SOL     OW48589   6.465   8.374   6.662  0.0780 -0.0694 -0.6201
15574SOL    HW148590   6.535   8.437   6.646 -0.2483  0.5661  0.3184
15574SOL    HW248591   6.467   8.315   6.587  0.9006  0.5968 -1.1367
15575SOL     OW48592   4.303   5.621   4.325 -1.0035  0.2210 -0.1280
15575SOL    HW148593   4.216   5.660   4.328 -1.2017 -0.1104 -1.1699
15575SOL    HW248594   4.345   5.661   4.249 -0.9465 -1.0333 -0.7824
15576SOL     OW48595   8.385   0.054   0.302  0.3084 -0.2486 -0.3814
15576SOL    HW148596   8.310   0.005   0.268 -0.0542  0.1817 -0.2164
15576SOL    HW248597   8.380   0.041   0.397  1.1934 -1.2715 -0.4530
15577SOL     OW48598   4.537   4.119   4.547 -0.3265 -0.5452  1.0241
15577SOL    HW148599   4.537   4.082   4.459  0.8090  0.8153  0.4204
15577SOL    HW248600   4.613   4.079   4.590  0.2997  0.2744  0.7062
15578SOL     OW48601   5.775   6.195   8.692 -0.3642 -0.8850  0.7258
15578SOL    HW148602   5.698   6.195   8.750 -1.0424 -0.5890 -0.1505
15578SOL    HW248603   5.738   6.200   8.604  0.7005  2.0896  0.3400
15579SOL     OW48604   1.172   5.666   8.780 -0.0211  0.3338 -0.4562
15579SOL    HW148605   1.179   5.747   8.730 -0.9057  0.5698 -0.2197
15579SOL    HW248606   1.117   5.610   8.726  0.4410 -0.0468 -0.5361
15580SOL     OW48607   5.482   6.104   5.109 -0.1375  0.3227 -0.0769
15580SOL    HW148608   5.429   6.082   5.033  0.6935 -0.2038 -0.5229
15580SOL    HW248609   5.507   6.195   5.096  0.0800  0.2053 -0.4860
15581SOL     OW48610   7.324   8.754   7.726 -0.1476 -0.7479  0.1478
15581SOL    HW148611   7.395   8.807   7.690  0.0212  0.4771  2.1840
15581SOL    HW248612   7.287   8.709   7.649 -0.3905  2.3870 -1.7217
15582SOL     OW48613   2.409   0.742   0.724 -0.2824  0.3017  0.1614
15582SOL    HW148614   2.476   0.810   0.730 -0.4850  0.4824  0.3513
15582SOL    HW248615   2.326   0.788   0.726 -0.4372  0.2691 -2.2081
15583SOL     OW48616   3.763   4.582   4.577 -0.3515  0.0972  0.6581
15583SOL    HW148617   3.750   4.544   4.490 -0.9533 -0.3881  0.9476
15583SOL    HW248618   3.719   4.520   4.636  1.5420 -0.5152  1.4915
15584SOL     OW48619   2.077   5.548   5.849 -0.3651  0.0494 -0.2853
15584SOL    HW148620   2.096   5.575   5.939 -0.9107 -0.7437  0.0853
15584SOL    HW248621   2.110   5.619   5.795  0.7145  0.1738  0.4970
15585SOL     OW48622   2.229   6.769   3.235 -0.2131 -0.4047 -0.2054
15585SOL    HW148623   2.269   6.682   3.233  1.2120  0.1779  0.8975
15585SOL    HW248624   2.302   6.830   3.219 -1.0072  0.6291 -0.0357
15586SOL     OW48625   1.632   2.027   4.420 -0.2241 -0.0565  0.4417
15586SOL    HW148626   1.543   2.008   4.449 -0.8806  1.7101 -0.2597
15586SOL    HW248627   1.640   1.982   4.336  0.6861 -2.7990  1.8946
15587SOL     OW48628   4.698   3.460   8.358 -0.0733 -0.1998 -0.0881
15587SOL    HW148629   4.639   3.387   8.375 -0.7921 -0.3425 -2.8141
15587SOL    HW248630   4.774   3.421   8.315  0.8685  0.3303  1.0281
15588SOL     OW48631   3.090   3.923   5.141  0.6423  0.4926 -0.4362
15588SOL    HW148632   3.028   3.866   5.187  0.5136  0.4335 -0.6781
15588SOL    HW248633   3.076   3.902   5.049  0.5013  1.0118 -0.5350
15589SOL     OW48634   6.067   5.767   5.911  0.1881 -0.4303  0.2947
15589SOL    HW148635   5.984   5.722   5.895  0.7962 -1.4093 -0.1854
15589SOL    HW248636   6.050   5.858   5.885 -0.3225 -0.9166 -1.2071
15590SOL     OW48637   8.576   4.912   0.196 -0.1701  0.2348 -0.0815
15590SOL    HW148638   8.543   4.877   0.278  0.5572 -1.7356 -0.5842
15590SOL    HW248639   8.671   4.904   0.202 -0.0847  0.4661 -0.9510
15591SOL     OW48640   5.051   0.110   5.271  0.1629 -0.3129 -0.7741
15591SOL    HW148641   5.051   0.179   5.205  0.0048 -1.2835 -1.8129
15591SOL    HW248642   5.143   0.096   5.293  0.1147  1.2839  0.6045
15592SOL     OW48643   0.031   0.170   8.787  0.3666 -0.3310 -0.0253
15592SOL    HW148644  -0.062   0.195   8.797  0.0947 -1.5829  0.7641
15592SOL    HW248645   0.072   0.247   8.748 -0.8041  0.6582  0.6102
15593SOL     OW48646   3.924   6.277   0.692  0.2899  0.3924 -0.4071
15593SOL    HW148647   3.993   6.243   0.635 -0.8300 -0.6128 -1.2046
15593SOL    HW248648   3.898   6.202   0.745 -0.5279  0.6384 -0.4511
15594SOL     OW48649   0.825   5.354   5.098  0.8874  0.8627  0.5156
15594SOL    HW148650   0.799   5.405   5.174 -1.9825  0.0983  0.1422
15594SOL    HW248651   0.841   5.266   5.131 -0.4078  0.5182  0.2648
15595SOL     OW48652   7.212   4.317   2.873 -0.0095 -0.3395  0.1325
15595SOL    HW148653   7.273   4.382   2.838  0.0620  0.2796  1.3963
15595SOL    HW248654   7.268   4.251   2.914 -0.1109 -0.9186 -0.6220
15596SOL     OW48655   1.752   3.622   6.288 -0.1237  0.2899  0.3984
15596SOL    HW148656   1.738   3.556   6.220 -0.7185  0.6204  0.1954
15596SOL    HW248657   1.746   3.573   6.370  1.9084 -0.3594  0.2151
15597SOL     OW48658   8.149   5.027   0.268 -0.3956 -1.0245 -0.1202
15597SOL    HW148659   8.179   4.937   0.282  0.6888 -0.7323 -0.4171
15597SOL    HW248660   8.147   5.066   0.355 -1.8942 -1.6189  0.1391
15598SOL     OW48661   7.284   8.113   0.012 -0.3441 -0.2600 -0.2764
15598SOL    HW148662   7.303   8.108  -0.082  1.5013 -0.4409  0.0619
15598SOL    HW248663   7.192   8.088   0.020 -0.4197 -0.6357 -1.9882
15599SOL     OW48664   6.052   5.314   5.035 -0.1823  0.1665  0.3385
15599SOL    HW148665   5.970   5.325   4.987 -0.0334  1.5249  0.3789
15599SOL    HW248666   6.103   5.253   4.981 -0.1627  1.3769 -1.0501
15600SOL     OW48667   2.797   4.802   8.453  0.5145  0.3072  0.2403
15600SOL    HW148668   2.727   4.746   8.418 -1.3559  1.3846  2.0020
15600SOL    HW248669   2.831   4.753   8.528  0.7060  0.3783  0.1987
15601SOL     OW48670   3.390   8.162   2.157 -0.4189 -0.1199 -0.2299
15601SOL    HW148671   3.360   8.098   2.222  1.7232 -1.6869 -0.6764
15601SOL    HW248672   3.485   8.152   2.156 -0.3568 -0.0439 -3.4861
15602SOL     OW48673   3.092   2.492   5.096 -0.2449 -0.2044  0.0449
15602SOL    HW148674   3.183   2.491   5.066 -0.3145  1.9928 -0.3915
15602SOL    HW248675   3.099   2.510   5.190 -0.1953  3.0894 -0.4664
15603SOL     OW48676   2.407   4.640   8.818 -0.0522  0.4565  0.0118
15603SOL    HW148677   2.359   4.589   8.883 -0.7770  0.5162 -0.4708
15603SOL    HW248678   2.478   4.581   8.789 -1.5103 -0.7410 -1.3319
15604SOL     OW48679   8.950   2.944   8.304 -0.3601 -0.1901  0.2843
15604SOL    HW148680   8.937   3.017   8.243 -0.0079 -0.2318  0.1526
15604SOL    HW248681   9.024   2.895   8.267 -1.2207 -1.1898 -0.1842
15605SOL     OW48682   6.724   3.955   6.864  0.0606  0.2846  0.2894
15605SOL    HW148683   6.806   3.914   6.836  0.5524  0.6228  1.2165
15605SOL    HW248684   6.685   3.988   6.782  0.7683 -0.0020 -0.1719
15606SOL     OW48685   7.893   8.002   4.737 -0.2120  0.3757  0.1677
15606SOL    HW148686   7.967   7.958   4.779 -0.4248  0.4921  0.6676
15606SOL    HW248687   7.816   7.967   4.782 -0.5304 -0.4108 -0.9440
15607SOL     OW48688   2.881   8.476   1.831  0.3534 -0.0592  0.3052
15607SOL    HW148689   2.930   8.545   1.786  1.8138 -0.3821  1.3270
15607SOL    HW248690   2.790   8.507   1.831  1.0926  2.3872  1.5852
15608SOL     OW48691   2.242   6.360   5.438 -0.4133  0.4520 -0.1193
15608SOL    HW148692   2.155   6.397   5.453  0.0033  1.1728  0.5937
15608SOL    HW248693   2.249   6.289   5.502 -0.7270 -0.0593 -0.6383
15609SOL     OW48694   8.051   6.622   3.887  0.0060  0.0469  0.2869
15609SOL    HW148695   8.000   6.542   3.890 -0.5826  0.2553 -2.1079
15609SOL    HW248696   8.097   6.625   3.970 -2.6310 -0.9718  1.8989
15610SOL     OW48697   7.204   5.314   8.253 -0.6406 -0.3223 -0.8006
15610SOL    HW148698   7.172   5.224   8.252  2.6914 -1.6726 -0.0512
15610SOL    HW248699   7.218   5.336   8.161  0.1282 -1.2696 -0.9293
15611SOL     OW48700   0.656   4.284   4.685  0.3950 -0.0249  0.2169
15611SOL    HW148701   0.736   4.321   4.648 -0.5489  1.4019 -0.4898
15611SOL    HW248702   0.659   4.307   4.778 -0.3213  2.2182 -0.2577
15612SOL     OW48703   4.330   1.097   8.415 -0.1262 -0.8067 -0.2000
15612SOL    HW148704   4.278   1.175   8.433  2.4453  1.1915 -0.7586
15612SOL    HW248705   4.299   1.067   8.329 -4.2520 -3.3107  1.8611
15613SOL     OW48706   8.560   2.307   5.500  0.2970 -0.2898  0.1902
15613SOL    HW148707   8.523   2.369   5.564  1.2727 -0.7221  1.2058
15613SOL    HW248708   8.510   2.227   5.512 -0.2183 -0.0548 -0.3405
15614SOL     OW48709   4.215   5.300   4.676  0.3791  0.0437  0.0602
15614SOL    HW148710   4.150   5.292   4.606  0.3856  1.8592 -0.2215
15614SOL    HW248711   4.261   5.381   4.655  0.9252  0.1938  1.7318
15615SOL     OW48712   1.156   6.735   2.551 -0.2088  0.6744 -0.1919
15615SOL    HW148713   1.074   6.716   2.598  1.3657  0.5239  2.7624
15615SOL    HW248714   1.199   6.650   2.543  1.5684  1.1949  2.4022
15616SOL     OW48715   7.394   0.378   5.669  0.0024  0.1831 -0.2057
15616SOL    HW148716   7.470   0.330   5.702  0.5047  1.3502  0.3699
15616SOL    HW248717   7.366   0.432   5.742 -1.1119  0.1051 -0.5595
15617SOL     OW48718   3.919   5.550   4.418 -0.0004 -0.3483 -0.0490
15617SOL    HW148719   3.958   5.464   4.401 -2.2924 -1.1678 -1.7492
15617SOL    HW248720   3.946   5.604   4.344 -1.1831 -0.6153 -0.6955
15618SOL     OW48721   1.425   3.690   5.190  0.4637  0.0059 -0.4334
15618SOL    HW148722   1.509   3.716   5.151 -0.1221  0.2884 -1.5628
15618SOL    HW248723   1.397   3.766   5.239  1.2321 -0.3661  0.6281
15619SOL     OW48724   3.616   7.240   5.515  0.1865  0.1097  0.0868
15619SOL    HW148725   3.617   7.208   5.424  2.0020 -1.0040  0.4515
15619SOL    HW248726   3.565   7.175   5.562  2.3127 -1.3911  0.4787
15620SOL     OW48727   4.469   0.728   1.024  0.3621  0.0706 -0.1342
15620SOL    HW148728   4.552   0.702   1.063 -0.8260 -2.0810  1.1906
15620SOL    HW248729   4.481   0.714   0.930  0.8387 -2.4697  0.2429
15621SOL     OW48730   8.431   1.029   1.866  0.4476 -0.3431  0.0776
15621SOL    HW148731   8.464   1.029   1.776  1.0595 -0.4177  0.2973
15621SOL    HW248732   8.390   1.114   1.877 -1.5715 -1.1214 -0.9630
15622SOL     OW48733   7.159   4.218   8.723  0.2791  0.0280  0.5346
15622SOL    HW148734   7.136   4.304   8.755  0.6801  0.1812  0.4261
15622SOL    HW248735   7.119   4.157   8.784 -0.2466  0.2850  0.4458
15623SOL     OW48736   8.087   1.237   1.654  0.0398 -0.3645 -0.1405
15623SOL    HW148737   8.022   1.167   1.646 -0.2293 -0.1180 -0.1328
15623SOL    HW248738   8.113   1.256   1.564 -0.9300  0.4949 -0.2464
15624SOL     OW48739   1.265   5.019   7.642  0.3315  0.4897  0.6466
15624SOL    HW148740   1.293   4.971   7.720  3.7711  0.8868 -0.2009
15624SOL    HW248741   1.284   4.959   7.569  0.5408  1.4453 -0.1055
15625SOL     OW48742   0.514   4.820   3.330 -0.4588  0.1023  0.2694
15625SOL    HW148743   0.452   4.872   3.279 -1.0337 -0.2783  0.5591
15625SOL    HW248744   0.462   4.788   3.404 -0.2991 -1.4174 -0.2445
15626SOL     OW48745   6.596   1.425   4.610  0.0894 -0.7533  0.6184
15626SOL    HW148746   6.553   1.433   4.695  1.2407 -0.6297  1.2031
15626SOL    HW248747   6.563   1.499   4.559  0.5826  0.0933  1.5004
15627SOL     OW48748   0.419   7.747   1.861 -0.1841 -0.2718 -0.9449
15627SOL    HW148749   0.501   7.786   1.891 -0.6551  0.3320 -0.3969
15627SOL    HW248750   0.388   7.696   1.936 -0.1879 -0.6872 -1.2319
15628SOL     OW48751   7.055   4.479   0.596 -0.8460  0.0720  0.1860
15628SOL    HW148752   7.057   4.514   0.685 -0.5587 -1.6797  0.9069
15628SOL    HW248753   7.096   4.393   0.603 -0.5420  0.0277 -1.7135
15629SOL     OW48754   7.356   8.879   1.792  0.1112 -0.2671  0.1497
15629SOL    HW148755   7.431   8.869   1.851 -0.8287  0.2770  1.4864
15629SOL    HW248756   7.311   8.794   1.797  1.1741 -0.9894 -1.5040
15630SOL     OW48757   0.661   6.203   5.883  0.1451  0.4392  0.3739
15630SOL    HW148758   0.711   6.126   5.913 -0.2845 -0.2083 -0.5153
15630SOL    HW248759   0.714   6.239   5.812  0.6991  1.4090  1.2583
15631SOL     OW48760   4.887   1.071   3.731 -0.3449 -0.3197  0.4135
15631SOL    HW148761   4.928   1.156   3.712  0.0277 -0.6219 -0.1652
15631SOL    HW248762   4.814   1.065   3.671  0.0653 -0.7193 -0.0581
15632SOL     OW48763   8.823   6.594   2.588  0.0665 -0.2733 -0.3034
15632SOL    HW148764   8.748   6.566   2.641  1.1906 -0.2990  1.3568
15632SOL    HW248765   8.788   6.663   2.532 -1.1377 -0.1022  0.6084
15633SOL     OW48766   6.343   2.413   5.612  0.5029  0.3838  0.1694
15633SOL    HW148767   6.309   2.329   5.642  0.5878 -0.1325 -1.1362
15633SOL    HW248768   6.265   2.460   5.582  0.5552  0.4601  0.1532
15634SOL     OW48769   3.300   0.982   1.895  0.0543  0.0535 -0.0217
15634SOL    HW148770   3.322   0.894   1.863 -0.8169 -0.3261  0.4107
15634SOL    HW248771   3.223   1.007   1.846  0.4405  0.6888 -0.3174
15635SOL     OW48772   4.958   5.163   1.305 -0.3765  0.3557  0.8713
15635SOL    HW148773   4.948   5.098   1.235 -1.4768  1.7852 -0.3639
15635SOL    HW248774   5.051   5.159   1.328  0.5579  1.2899 -2.2216
15636SOL     OW48775   8.254   6.017   7.385  0.2447 -0.0066 -0.0192
15636SOL    HW148776   8.193   5.965   7.438  1.1646  0.0221  1.0972
15636SOL    HW248777   8.217   6.015   7.296  0.0678 -2.2637  0.0641
15637SOL     OW48778   2.339   2.267   5.374  0.1917 -0.2222 -0.3120
15637SOL    HW148779   2.263   2.312   5.338  0.0596 -0.8235 -0.8039
15637SOL    HW248780   2.303   2.196   5.427  0.3996  0.2365  0.4575
15638SOL     OW48781   2.187   4.268   4.231  0.6229  0.2110 -0.7944
15638SOL    HW148782   2.198   4.313   4.314 -0.3530 -0.4235 -0.3016
15638SOL    HW248783   2.160   4.179   4.255 -0.1194  0.1539 -1.7912
15639SOL     OW48784   3.786   0.500   1.743  0.1727  0.1973 -0.4542
15639SOL    HW148785   3.735   0.445   1.683 -0.6143  2.0105 -1.5214
15639SOL    HW248786   3.878   0.479   1.722 -0.0882 -1.2073 -0.3156
15640SOL     OW48787   6.461   7.706   1.255  0.0233 -0.1353 -0.6593
15640SOL    HW148788   6.369   7.731   1.266 -0.5999 -2.0538 -1.1272
15640SOL    HW248789   6.490   7.681   1.343 -0.1207 -0.2329 -0.6395
15641SOL     OW48790   8.488   1.080   3.696  0.0411  0.3610 -0.1767
15641SOL    HW148791   8.480   1.118   3.784 -0.4881 -0.6964  0.2456
15641SOL    HW248792   8.476   0.986   3.710 -0.0390  0.1873 -1.3850
15642SOL     OW48793   1.007   5.939   6.225  0.2168  0.3925 -0.0503
15642SOL    HW148794   1.048   6.015   6.267 -3.0473  1.5139  1.3580
15642SOL    HW248795   0.981   5.882   6.297  0.7679 -1.1469 -1.0020
15643SOL     OW48796   3.931   8.907   3.622 -0.5602 -0.0163 -0.0609
15643SOL    HW148797   3.846   8.890   3.663 -0.6138  1.5718  0.5550
15643SOL    HW248798   3.973   8.970   3.680  0.4768  0.2465 -1.0685
15644SOL     OW48799   3.371   8.936   7.589 -0.3857  0.0110  0.5434
15644SOL    HW148800   3.362   8.999   7.660  1.1429 -0.2900  1.0311
15644SOL    HW248801   3.339   8.853   7.626  1.2748 -0.3559  1.2207
15645SOL     OW48802   6.283   2.648   1.986  0.2386 -0.0025  0.1011
15645SOL    HW148803   6.308   2.736   1.956 -0.6804  0.9697  1.9691
15645SOL    HW248804   6.258   2.602   1.906  2.4327  0.8044 -1.1481
15646SOL     OW48805   8.456   5.399   2.208 -0.1027 -0.3541  0.3707
15646SOL    HW148806   8.369   5.432   2.187  0.3309 -0.2375 -1.4279
15646SOL    HW248807   8.463   5.407   2.303 -1.7266  0.4157  0.4558
15647SOL     OW48808   2.877   8.497   0.150 -0.4358  0.2133  0.3377
15647SOL    HW148809   2.787   8.524   0.131 -0.7293 -1.8550 -1.6728
15647SOL    HW248810   2.880   8.404   0.126  2.1367  0.1231  0.7179
15648SOL     OW48811   2.868   3.460   4.590  0.0712 -0.0344 -0.3036
15648SOL    HW148812   2.942   3.451   4.530  0.1600  1.7924 -0.5343
15648SOL    HW248813   2.895   3.411   4.668  1.6273  0.7083 -0.3161
15649SOL     OW48814   1.980   2.695   6.393  0.1988 -0.0111  0.3585
15649SOL    HW148815   2.074   2.703   6.405  0.2105 -0.4069  0.5545
15649SOL    HW248816   1.969   2.619   6.336  0.0114  0.2197  0.0820
15650SOL     OW48817   5.799   2.412   0.606 -0.1417  0.9530 -0.6779
15650SOL    HW148818   5.866   2.432   0.541 -1.1689  3.8855 -1.0060
15650SOL    HW248819   5.842   2.425   0.690  0.3289  0.4180 -0.8319
15651SOL     OW48820   3.302   3.712   4.644  0.5302  0.0851  0.7780
15651SOL    HW148821   3.372   3.759   4.598 -0.7091  2.2206  0.9407
15651SOL    HW248822   3.236   3.696   4.577  0.7232 -1.0856  0.8337
15652SOL     OW48823   0.060   3.510   2.858  0.8175  0.3109  0.3452
15652SOL    HW148824   0.069   3.581   2.795  0.0882 -0.2321 -0.3865
15652SOL    HW248825   0.011   3.548   2.931  2.2663  1.1380  0.9239
15653SOL     OW48826   1.513   7.039   4.547  0.2541 -0.0576 -0.0264
15653SOL    HW148827   1.593   7.034   4.495  0.4265 -0.5947  0.2856
15653SOL    HW248828   1.509   7.131   4.576 -0.0068  0.3276 -1.2253
15654SOL     OW48829   5.857   5.767   1.949  0.0189 -0.3780  0.2429
15654SOL    HW148830   5.807   5.711   2.008 -0.2423 -0.4455 -0.0440
15654SOL    HW248831   5.944   5.727   1.946 -0.3148 -1.0564 -0.3615
15655SOL     OW48832   5.551   8.577   6.964  0.0591 -0.3159  0.3101
15655SOL    HW148833   5.607   8.513   6.919  0.6258 -0.4642  1.1851
15655SOL    HW248834   5.479   8.594   6.904  1.6127  0.7136 -1.3486
15656SOL     OW48835   8.523   4.365   8.233 -0.0466 -0.2520 -0.1818
15656SOL    HW148836   8.587   4.404   8.292 -1.2017  0.5990  0.5326
15656SOL    HW248837   8.503   4.434   8.170 -1.8428  0.2528  0.8798
15657SOL     OW48838   5.424   4.894   6.015  0.1895  0.5356 -0.0050
15657SOL    HW148839   5.507   4.851   6.039  0.1188  0.4101  0.0152
15657SOL    HW248840   5.445   4.988   6.015  0.3872  0.4914 -0.2159
15658SOL     OW48841   3.934   5.939   8.660  0.0823 -0.2327  0.2250
15658SOL    HW148842   3.907   5.925   8.570 -0.5838 -0.0911  0.3985
15658SOL    HW248843   4.027   5.915   8.662  0.3585  0.6807 -0.7108
15659SOL     OW48844   2.127   0.303   1.450 -0.3818  0.0449 -0.6603
15659SOL    HW148845   2.152   0.363   1.379 -1.2829  0.6977 -0.4379
15659SOL    HW248846   2.033   0.317   1.461 -0.1262  0.5533  1.2195
15660SOL     OW48847   8.526   3.191   2.244 -0.2375 -0.1873 -0.4599
15660SOL    HW148848   8.572   3.270   2.273  0.4536 -0.2047 -1.4833
15660SOL    HW248849   8.591   3.143   2.193 -1.1167 -0.6872 -1.1198
15661SOL     OW48850   2.739   0.816   5.919 -0.3789 -0.3910  0.0556
15661SOL    HW148851   2.698   0.830   6.003 -1.0346  0.1957 -0.3582
15661SOL    HW248852   2.696   0.738   5.884 -1.3855  0.3940 -0.5093
15662SOL     OW48853   0.353   3.427   4.398 -0.0205  0.1596  1.1967
15662SOL    HW148854   0.440   3.387   4.406 -0.3529 -0.8727  0.0290
15662SOL    HW248855   0.296   3.355   4.372 -0.3992  1.5458 -2.4389
15663SOL     OW48856   1.150   5.057   2.211  0.3714  0.2276  0.1926
15663SOL    HW148857   1.090   4.983   2.205  0.1295  0.4639 -0.3611
15663SOL    HW248858   1.205   5.049   2.133  1.2899 -0.1810  0.8710
15664SOL     OW48859   8.112   6.894   7.699 -0.0794  0.3070  0.6928
15664SOL    HW148860   8.103   6.906   7.605 -0.6913 -0.2653  0.6704
15664SOL    HW248861   8.172   6.962   7.726  1.0659 -0.2788 -0.2956
15665SOL     OW48862   6.751   6.454   2.813  0.1565  0.4676  0.0643
15665SOL    HW148863   6.800   6.428   2.735  0.8264  3.2612 -0.5669
15665SOL    HW248864   6.815   6.454   2.884 -0.3452 -1.5897  0.5920
15666SOL     OW48865   4.365   7.932   4.928  0.1525 -0.2119  0.0401
15666SOL    HW148866   4.334   8.009   4.975  0.9303  1.2479 -1.7177
15666SOL    HW248867   4.320   7.858   4.971 -0.8788  1.2132  1.5532
15667SOL     OW48868   2.254   4.706   6.327 -0.3725  0.1919  0.5565
15667SOL    HW148869   2.277   4.781   6.273  0.4376 -0.7479 -0.4509
15667SOL    HW248870   2.335   4.657   6.337 -1.0574 -1.0250  0.4108
15668SOL     OW48871   3.504   7.238   0.584 -0.0606 -0.1676 -0.2746
15668SOL    HW148872   3.571   7.170   0.578 -0.1682 -0.3436  0.4567
15668SOL    HW248873   3.422   7.189   0.590 -0.0772 -0.0025  1.1156
15669SOL     OW48874   2.350   4.594   6.773 -0.4003  0.3503  0.6540
15669SOL    HW148875   2.432   4.552   6.750 -0.6525  0.6563 -0.9364
15669SOL    HW248876   2.322   4.551   6.854 -0.0332 -1.6838 -0.2478
15670SOL     OW48877   8.206   3.792   1.714  0.3884 -0.0424 -0.2768
15670SOL    HW148878   8.112   3.783   1.733  0.2346 -2.1025 -1.5849
15670SOL    HW248879   8.233   3.703   1.689  2.7702  0.4584  0.3528
15671SOL     OW48880   8.278   0.889   0.379 -0.4530 -0.4291  0.1572
15671SOL    HW148881   8.228   0.932   0.309  0.7466  0.7104 -0.0477
15671SOL    HW248882   8.233   0.806   0.393 -1.0371 -0.4639 -1.6197
15672SOL     OW48883   2.105   4.242   5.473 -0.0242 -0.8622 -0.0414
15672SOL    HW148884   2.150   4.206   5.396  0.5126 -1.0058  0.3335
15672SOL    HW248885   2.076   4.166   5.522 -1.0004 -0.7740 -0.4486
15673SOL     OW48886   1.373   4.498   3.532  0.2060 -0.2622  0.2298
15673SOL    HW148887   1.352   4.563   3.465  1.9198 -0.2368 -0.3149
15673SOL    HW248888   1.426   4.433   3.487  1.6123 -0.1232  1.5912
15674SOL     OW48889   2.449   2.235   8.699 -0.2071 -0.0960 -0.3991
15674SOL    HW148890   2.484   2.164   8.754 -1.1996 -1.7689 -1.8382
15674SOL    HW248891   2.491   2.223   8.614 -1.1367  0.4302 -0.9478
15675SOL     OW48892   1.627   1.965   8.928  0.2583  0.0620 -0.0340
15675SOL    HW148893   1.555   1.914   8.892 -2.7709  1.8440  2.9201
15675SOL    HW248894   1.643   2.033   8.863 -2.0129  0.6155 -0.1198
15676SOL     OW48895   1.360   7.279   1.874 -0.7071 -0.0156  0.0465
15676SOL    HW148896   1.281   7.328   1.850 -0.6691  0.2670  0.4793
15676SOL    HW248897   1.401   7.333   1.941 -1.7626 -1.6228  2.1082
15677SOL     OW48898   5.232   5.057   6.645 -0.4413  0.4249 -0.0273
15677SOL    HW148899   5.181   5.122   6.692  1.1829  1.7472  0.0077
15677SOL    HW248900   5.260   4.994   6.712  2.6392  2.7883  1.1547
15678SOL     OW48901   1.398   0.061   5.708  0.5580  0.0277  0.0189
15678SOL    HW148902   1.458   0.132   5.730  0.2052  0.1943  0.4546
15678SOL    HW248903   1.340   0.098   5.642  0.6337  0.0119 -0.0574
15679SOL     OW48904   0.151   2.169   5.133  0.1132  0.1145  0.2407
15679SOL    HW148905   0.077   2.164   5.194 -0.4543 -2.1341 -0.5310
15679SOL    HW248906   0.114   2.206   5.053 -0.1805 -0.8198 -0.0764
15680SOL     OW48907   6.783   2.118   8.873  0.0183 -0.4061  0.5298
15680SOL    HW148908   6.850   2.104   8.805 -0.2405 -0.3396  0.2612
15680SOL    HW248909   6.713   2.165   8.828 -0.9682 -1.9691  0.3900
15681SOL     OW48910   8.338   3.322   6.714  0.1398  0.3169 -0.0719
15681SOL    HW148911   8.271   3.381   6.750  0.4550 -0.4276  1.8523
15681SOL    HW248912   8.359   3.263   6.786 -0.1293 -2.1701 -1.8866
15682SOL     OW48913   4.282   6.679   1.324  0.5214 -0.0749  0.2869
15682SOL    HW148914   4.355   6.736   1.298 -0.5897  1.7895  1.0604
15682SOL    HW248915   4.266   6.701   1.416 -1.7862  0.4683 -0.1879
15683SOL     OW48916   3.476   8.227   2.671 -0.6121 -0.1754  0.3324
15683SOL    HW148917   3.569   8.232   2.695 -0.7299 -2.1197  1.4376
15683SOL    HW248918   3.460   8.305   2.619  1.5417  0.4260  0.4851
15684SOL     OW48919   3.927   3.273   7.912  0.9245  0.0468  0.3609
15684SOL    HW148920   4.020   3.254   7.899  0.5542 -1.2267 -0.5919
15684SOL    HW248921   3.883   3.231   7.839 -0.5958 -1.1238  1.8598
15685SOL     OW48922   1.064   3.914   5.980  0.1191 -0.1237  0.0436
15685SOL    HW148923   0.986   3.896   6.034  0.1021 -1.5461 -0.4065
15685SOL    HW248924   1.032   3.965   5.907  0.0205  1.2461  1.0116
15686SOL     OW48925   1.973   5.983   1.641 -0.0326  0.2989 -0.3060
15686SOL    HW148926   1.909   5.913   1.626 -2.4180  2.0860  0.9712
15686SOL    HW248927   1.954   6.048   1.574 -1.3231  1.9560  1.5454
15687SOL     OW48928   6.459   2.371   5.355  0.2022  0.1814  0.2360
15687SOL    HW148929   6.426   2.364   5.444  0.2770  0.2019  0.2646
15687SOL    HW248930   6.381   2.358   5.300  0.3522 -0.9530  0.2767
15688SOL     OW48931   1.783   2.252   6.367  0.2243 -0.0870 -0.4506
15688SOL    HW148932   1.812   2.173   6.320  2.1307 -0.1720  0.7728
15688SOL    HW248933   1.755   2.219   6.453  3.2793  0.7210  0.9671
15689SOL     OW48934   6.604   1.229   8.546  0.3758 -0.1637 -0.2325
15689SOL    HW148935   6.530   1.289   8.558  0.5986  0.2389 -0.8513
15689SOL    HW248936   6.617   1.191   8.633 -1.2597 -1.0721 -0.3486
15690SOL     OW48937   0.194   5.938   5.584 -0.4910 -0.0347 -0.2735
15690SOL    HW148938   0.122   5.942   5.647 -0.0468 -1.5171  0.3657
15690SOL    HW248939   0.240   6.022   5.595 -0.4787 -0.2285  1.3196
15691SOL     OW48940   1.951   2.692   7.992 -0.1028 -0.0073 -0.3084
15691SOL    HW148941   1.895   2.729   8.061 -3.0572  0.2115 -2.5838
15691SOL    HW248942   1.956   2.762   7.926  2.3180 -0.3314 -0.5554
15692SOL     OW48943   6.666   3.493   8.141 -0.4270 -0.2490 -0.6620
15692SOL    HW148944   6.739   3.434   8.121  1.3956  1.8646 -0.6981
15692SOL    HW248945   6.626   3.455   8.219  0.3463 -1.7849 -0.9675
15693SOL     OW48946   5.484   5.957   7.139 -0.6049 -0.1871 -0.6441
15693SOL    HW148947   5.447   5.902   7.207 -0.7437  1.6757  0.8624
15693SOL    HW248948   5.414   5.967   7.075 -0.7053 -1.3808 -0.7409
15694SOL     OW48949   4.882   2.119   0.706 -0.0849  0.1976  0.6318
15694SOL    HW148950   4.828   2.076   0.639 -2.0456  1.8599  1.0402
15694SOL    HW248951   4.819   2.164   0.762  1.7054  1.5673  1.6419
15695SOL     OW48952   0.890   4.054   4.900 -0.4305  0.1899 -0.4009
15695SOL    HW148953   0.903   4.091   4.813  1.7536  0.5834  0.0452
15695SOL    HW248954   0.876   4.131   4.956  0.2335  0.0771 -0.0813
15696SOL     OW48955   5.791   3.219   7.254 -0.0920 -0.0932 -1.1479
15696SOL    HW148956   5.735   3.162   7.306 -0.6286  1.3952 -0.0397
15696SOL    HW248957   5.864   3.163   7.228  1.1572 -0.5009  2.7230
15697SOL     OW48958   7.552   7.184   5.836  0.0925 -0.5223 -0.1785
15697SOL    HW148959   7.527   7.152   5.750 -0.9244 -0.8125  0.2083
15697SOL    HW248960   7.502   7.265   5.848 -0.3016 -0.8437  0.4073
15698SOL     OW48961   5.221   6.885   3.236  0.7660  0.2249  0.2468
15698SOL    HW148962   5.214   6.927   3.322 -2.5525  0.9110 -0.2127
15698SOL    HW248963   5.256   6.954   3.179  0.7717  0.5311  0.6156
15699SOL     OW48964   4.856   5.638   8.950 -0.3805 -0.4077  0.6500
15699SOL    HW148965   4.800   5.567   8.919 -0.7751  0.3250 -0.3464
15699SOL    HW248966   4.796   5.711   8.966  0.2788  0.4536 -0.6325
15700SOL     OW48967   2.194   4.023   5.302 -0.3109 -0.2391 -0.2795
15700SOL    HW148968   2.155   3.947   5.345 -1.6109  0.5190 -0.0679
15700SOL    HW248969   2.288   4.014   5.317 -0.5369 -1.2638  0.6148
15701SOL     OW48970   2.277   5.897   7.393  0.5808  0.1183 -0.1669
15701SOL    HW148971   2.342   5.884   7.325  1.8747  0.0225  1.0404
15701SOL    HW248972   2.326   5.932   7.467 -0.8931  0.8481  0.5111
15702SOL     OW48973   0.388   2.284   6.055  0.6985 -0.0650 -0.0686
15702SOL    HW148974   0.335   2.313   6.129 -1.7982 -3.5293 -0.2636
15702SOL    HW248975   0.353   2.333   5.980  0.6550  0.7041  0.4430
15703SOL     OW48976   8.544   4.948   5.556  0.3753  0.2556  0.8997
15703SOL    HW148977   8.586   4.876   5.602 -1.3606 -1.7852 -0.5300
15703SOL    HW248978   8.559   4.929   5.463  1.2902  2.6883  0.4640
15704SOL     OW48979   7.049   7.131   5.626 -0.8194 -0.0664 -0.3742
15704SOL    HW148980   6.955   7.127   5.605 -0.6303 -1.8143 -1.1160
15704SOL    HW248981   7.085   7.052   5.585  1.1482  1.0490 -0.8962
15705SOL     OW48982   3.157   4.427   0.420  0.6777 -0.3185  0.0446
15705SOL    HW148983   3.081   4.379   0.450 -0.8656  1.4343 -0.8323
15705SOL    HW248984   3.150   4.513   0.461  1.4343  0.3253 -1.0859
15706SOL     OW48985   4.523   6.808   1.803 -0.1977  0.0879 -0.3784
15706SOL    HW148986   4.540   6.715   1.819  1.2836  0.4025 -0.0353
15706SOL    HW248987   4.608   6.845   1.781 -0.5836  1.5709  0.4934
15707SOL     OW48988   6.728   6.599   1.220 -0.2512  0.2772  0.6002
15707SOL    HW148989   6.654   6.654   1.193 -0.8509 -0.8769 -0.2054
15707SOL    HW248990   6.785   6.597   1.143 -0.7467 -1.0249  0.2399
15708SOL     OW48991   5.540   6.090   7.525  0.3881 -0.5592  0.3575
15708SOL    HW148992   5.599   6.101   7.599  2.2293  0.6598 -1.1921
15708SOL    HW248993   5.491   6.010   7.545  0.7249 -0.1938  2.9004
15709SOL     OW48994   6.569   6.947   0.199 -0.2063  0.1304  0.0080
15709SOL    HW148995   6.651   6.924   0.243  0.7817  1.6720 -0.9162
15709SOL    HW248996   6.531   6.863   0.174  2.3618 -0.6428 -1.7205
15710SOL     OW48997   4.401   7.315   8.478  0.0985 -0.1194  0.0601
15710SOL    HW148998   4.327   7.351   8.526  0.8851 -0.6291  1.7027
15710SOL    HW248999   4.368   7.232   8.442 -1.0910  1.1616 -2.0406
15711SOL     OW49000   5.350   2.655   3.919  0.2124  0.2877 -0.0419
15711SOL    HW149001   5.336   2.560   3.914  2.6701 -0.1949  1.1344
15711SOL    HW249002   5.303   2.682   3.998  0.4888 -0.1588  0.2771
15712SOL     OW49003   3.659   8.696   0.277  0.1417  0.3970 -0.5301
15712SOL    HW149004   3.565   8.690   0.260 -0.0138 -0.4273  0.4823
15712SOL    HW249005   3.665   8.701   0.372  1.1736 -1.0791 -0.4929
15713SOL     OW49006   5.089   2.587   1.758  0.2593 -0.1434 -0.4574
15713SOL    HW149007   5.110   2.677   1.781 -0.2176  0.0523 -0.7657
15713SOL    HW249008   5.087   2.586   1.662  1.3826 -0.7497 -0.4853
15714SOL     OW49009   6.501   4.251   3.942 -0.2662  0.6119  0.6184
15714SOL    HW149010   6.449   4.220   3.868  0.3587  0.8284  0.0778
15714SOL    HW249011   6.449   4.322   3.980 -0.2948  0.9418 -0.0231
15715SOL     OW49012   6.620   4.922   2.536  0.2500  0.5589 -0.3503
15715SOL    HW149013   6.639   4.828   2.532 -0.0003  0.5293 -1.0318
15715SOL    HW249014   6.616   4.949   2.444 -0.8312  0.9967 -0.1838
15716SOL     OW49015   6.613   6.099   0.226 -0.3049 -0.0607  0.2679
15716SOL    HW149016   6.663   6.168   0.270  0.9782 -2.3571  2.7514
15716SOL    HW249017   6.643   6.103   0.135 -0.1648  2.4791  0.3531
15717SOL     OW49018   0.265   5.477   8.619 -0.0893  0.2858 -0.1683
15717SOL    HW149019   0.260   5.405   8.681 -0.1433  0.2868 -0.1708
15717SOL    HW249020   0.354   5.474   8.584  0.1338  0.6577  0.3530
15718SOL     OW49021   4.417   7.821   4.285  0.2090  0.2615 -0.3095
15718SOL    HW149022   4.507   7.816   4.317  0.3180  1.9824 -0.2523
15718SOL    HW249023   4.373   7.746   4.325  1.3486 -0.0031  0.5091
15719SOL     OW49024   1.599   8.132   8.827 -0.0429  0.2843 -0.7676
15719SOL    HW149025   1.574   8.041   8.842  0.0392  0.3499 -0.2395
15719SOL    HW249026   1.551   8.157   8.748 -0.2710 -0.1302 -0.7629
15720SOL     OW49027   7.835   4.543   7.817  0.1976 -0.3156 -0.0586
15720SOL    HW149028   7.858   4.468   7.763 -0.3855  0.1604 -0.9884
15720SOL    HW249029   7.756   4.579   7.777 -0.6367 -0.3321  1.5024
15721SOL     OW49030   1.000   0.380   7.321 -0.6838 -0.1292  0.0087
15721SOL    HW149031   1.094   0.395   7.329 -0.5226 -0.5278 -1.0082
15721SOL    HW249032   0.969   0.371   7.411  0.4018 -0.9279  0.3179
15722SOL     OW49033   4.320   6.207   0.298 -0.2188 -0.2245 -0.6817
15722SOL    HW149034   4.332   6.300   0.278 -0.2258  0.2934  1.4315
15722SOL    HW249035   4.401   6.182   0.343 -0.6732 -0.9276 -0.2407
15723SOL     OW49036   7.811   7.292   7.012  0.0455 -0.1127 -0.4521
15723SOL    HW149037   7.733   7.317   6.963 -0.4932  0.9916  0.8963
15723SOL    HW249038   7.877   7.272   6.945 -1.0225  0.1294 -1.6017
15724SOL     OW49039   6.620   3.338   0.585 -0.0363  0.1974  0.2582
15724SOL    HW149040   6.594   3.423   0.619 -1.0215 -0.5640  1.5312
15724SOL    HW249041   6.560   3.321   0.512 -0.9620 -0.1080  1.0717
15725SOL     OW49042   0.619   2.313   8.260  0.1965 -0.7462  0.2651
15725SOL    HW149043   0.559   2.368   8.210 -0.7422 -1.1018  0.9692
15725SOL    HW249044   0.706   2.346   8.238 -0.2588 -0.1139 -0.6482
15726SOL     OW49045   7.592   5.473   1.561 -0.0983  0.0098 -0.5921
15726SOL    HW149046   7.631   5.484   1.647  1.7979 -0.6027 -1.3243
15726SOL    HW249047   7.516   5.532   1.561  0.7070  1.1109  0.9594
15727SOL     OW49048   2.000   0.237   0.058 -0.0443  0.2664  0.1402
15727SOL    HW149049   1.998   0.143   0.077  1.0093  0.1433 -0.2526
15727SOL    HW249050   1.941   0.276   0.121 -3.1310 -0.9840 -1.7447
15728SOL     OW49051   5.825   0.518   4.648  0.0016 -0.1006  0.0037
15728SOL    HW149052   5.739   0.549   4.678 -0.2347 -0.6740 -0.0618
15728SOL    HW249053   5.811   0.426   4.626  0.3948  0.0479 -0.9532
15729SOL     OW49054   0.099   0.449   1.796  0.0567  0.0453  0.0387
15729SOL    HW149055   0.054   0.375   1.837  0.2103  0.3137  0.7118
15729SOL    HW249056   0.139   0.413   1.717 -1.2737 -0.2178 -0.5439
15730SOL     OW49057   6.145   2.314   2.856  0.1315 -0.2441  0.1575
15730SOL    HW149058   6.151   2.379   2.787  0.7720 -2.6238 -2.2137
15730SOL    HW249059   6.052   2.289   2.858  0.0562  0.0566  0.3716
15731SOL     OW49060   2.906   7.772   0.319 -0.1813  0.5150  0.2233
15731SOL    HW149061   2.974   7.760   0.385 -1.1866  0.7323  1.3321
15731SOL    HW249062   2.898   7.687   0.276  1.2621  0.6735 -0.4141
15732SOL     OW49063   8.057   1.004   5.549  0.1949 -0.5363  0.5052
15732SOL    HW149064   8.042   1.041   5.462 -0.5486  0.4703  1.0492
15732SOL    HW249065   8.104   0.922   5.532 -0.5078 -0.6815 -0.8773
15733SOL     OW49066   5.463   4.186   4.305  0.2086  0.5079 -0.6807
15733SOL    HW149067   5.417   4.211   4.225 -0.1203  1.4047 -0.2354
15733SOL    HW249068   5.414   4.111   4.339 -1.1645  1.6224 -0.0592
15734SOL     OW49069   5.714   5.598   7.000  0.6419 -0.7135  0.1310
15734SOL    HW149070   5.731   5.685   6.964  0.7058 -0.5900  0.4579
15734SOL    HW249071   5.662   5.554   6.933 -0.8652  0.1627  0.6841
15735SOL     OW49072   3.208   8.128   3.513 -0.5945  0.1763 -0.3809
15735SOL    HW149073   3.190   8.110   3.605 -0.2922 -0.9201 -0.5209
15735SOL    HW249074   3.303   8.143   3.510 -0.7205  1.0496 -0.3989
15736SOL     OW49075   4.212   1.636   7.123 -0.2901 -0.2276  0.4989
15736SOL    HW149076   4.282   1.611   7.183 -1.0524 -0.0390  1.4894
15736SOL    HW249077   4.248   1.709   7.073  0.5220 -0.7004  0.3816
15737SOL     OW49078   4.602   3.482   6.703 -1.0883 -0.0418 -0.7895
15737SOL    HW149079   4.577   3.573   6.720  0.9526  0.2204  1.2224
15737SOL    HW249080   4.643   3.485   6.616 -0.1259  1.1935 -0.3348
15738SOL     OW49081   4.829   4.090   1.549 -0.1777 -0.3257 -0.5120
15738SOL    HW149082   4.841   4.176   1.510  1.6994 -0.7291 -0.9074
15738SOL    HW249083   4.907   4.075   1.601 -0.9267 -1.3925  0.3692
15739SOL     OW49084   0.954   2.979   2.617 -0.2101  0.2605  0.3645
15739SOL    HW149085   0.976   2.922   2.543  0.6415  0.9001  0.1108
15739SOL    HW249086   0.869   3.016   2.594 -1.0297 -1.2751  0.7690
15740SOL     OW49087   0.495   4.663   6.161 -0.2851 -0.1969 -0.3159
15740SOL    HW149088   0.548   4.679   6.083 -0.4139 -0.2129 -0.4067
15740SOL    HW249089   0.406   4.648   6.128 -0.4494  0.3494 -0.1225
15741SOL     OW49090   2.098   2.875   4.636 -0.1919  0.0478  0.0645
15741SOL    HW149091   2.097   2.782   4.657 -2.4721 -0.3457 -1.4434
15741SOL    HW249092   2.184   2.890   4.595  0.7342 -1.0348  1.5095
15742SOL     OW49093   0.327   6.370   0.742 -0.1041  0.1687  0.3635
15742SOL    HW149094   0.372   6.340   0.820  0.4057 -0.7774 -0.2790
15742SOL    HW249095   0.246   6.318   0.739 -1.6546  2.3310  1.8855
15743SOL     OW49096   1.661   6.523   7.621 -0.1781  0.1963 -0.1629
15743SOL    HW149097   1.666   6.480   7.706 -1.5957 -1.9101 -1.0645
15743SOL    HW249098   1.745   6.505   7.579  0.6888  1.5981  0.8963
15744SOL     OW49099   7.939   4.703   6.536 -0.0117  0.2746 -0.7133
15744SOL    HW149100   7.930   4.677   6.444  0.4309 -2.7928  0.0116
15744SOL    HW249101   8.023   4.666   6.564 -1.5697 -1.7899  1.7193
15745SOL     OW49102   2.589   7.018   4.365  0.7561  0.0936 -0.1291
15745SOL    HW149103   2.586   7.008   4.460  2.3452 -1.7870 -0.2309
15745SOL    HW249104   2.506   6.983   4.334 -0.2001  1.6243  0.5873
15746SOL     OW49105   0.904   3.465   5.624  0.2482 -0.1091  0.4959
15746SOL    HW149106   0.958   3.516   5.685 -0.6197  1.2905  0.1509
15746SOL    HW249107   0.948   3.474   5.540 -0.1354  0.4650  0.3487
15747SOL     OW49108   7.205   5.431   6.206 -0.0092  0.7164  0.3251
15747SOL    HW149109   7.253   5.471   6.279 -0.8194  1.9547  0.2103
15747SOL    HW249110   7.170   5.505   6.157 -0.1857 -0.1203 -0.8553
15748SOL     OW49111   3.941   5.905   7.867 -0.3240  0.1669  0.2213
15748SOL    HW149112   3.892   5.964   7.924 -1.1275  0.3109 -0.6015
15748SOL    HW249113   3.876   5.870   7.806  0.7016  0.9168 -1.3678
15749SOL     OW49114   5.287   4.570   6.497 -0.3867 -0.2008  0.3062
15749SOL    HW149115   5.213   4.533   6.448 -0.2102  0.4833 -0.5112
15749SOL    HW249116   5.253   4.581   6.586 -0.8383 -1.1293  0.2653
15750SOL     OW49117   7.435   6.155   7.547  0.0923  0.3694 -0.2782
15750SOL    HW149118   7.528   6.176   7.556  1.4732 -4.8367  2.1547
15750SOL    HW249119   7.429   6.107   7.464 -0.2848  0.2944 -0.2101
15751SOL     OW49120   2.426   1.541   2.598  0.2003 -0.4649  0.0502
15751SOL    HW149121   2.386   1.463   2.561  0.4550 -0.5471 -0.0551
15751SOL    HW249122   2.353   1.602   2.611  0.1954 -0.1189 -1.3866
15752SOL     OW49123   4.885   8.486   1.461  0.1062 -0.5867 -0.1457
15752SOL    HW149124   4.916   8.395   1.468 -0.2113 -0.6055  1.2125
15752SOL    HW249125   4.904   8.525   1.546 -0.6176  0.3554 -0.3929
15753SOL     OW49126   7.437   4.320   3.465  0.1361  0.2193  0.1806
15753SOL    HW149127   7.371   4.279   3.409 -1.3425  1.0276  1.2823
15753SOL    HW249128   7.401   4.406   3.487  2.0673  1.1509 -0.0767
15754SOL     OW49129   4.682   8.790   6.132 -0.0318  0.2050  0.1902
15754SOL    HW149130   4.686   8.779   6.037 -1.1122 -0.1935  0.1824
15754SOL    HW249131   4.722   8.710   6.167 -1.3651 -0.5450  0.0694
15755SOL     OW49132   1.111   8.787   1.174  0.1170  0.4743 -0.1278
15755SOL    HW149133   1.113   8.764   1.081 -0.1328  1.7738 -0.4641
15755SOL    HW249134   1.200   8.816   1.193  0.2653 -0.1383  0.1424
15756SOL     OW49135   4.761   6.613   4.658 -0.0084  0.1859  0.1321
15756SOL    HW149136   4.833   6.652   4.607  1.0157 -0.8366  0.7372
15756SOL    HW249137   4.685   6.668   4.639  0.4666  0.1833 -2.0542
15757SOL     OW49138   8.078   5.057   7.764 -0.1463  0.2417 -0.2635
15757SOL    HW149139   8.142   5.115   7.724  0.1783 -0.2036 -0.4060
15757SOL    HW249140   8.106   4.969   7.738 -0.4201 -0.0001  0.2352
15758SOL     OW49141   7.240   2.071   7.982 -0.2443 -0.2510  0.1335
15758SOL    HW149142   7.323   2.111   7.957  0.1595 -0.7003  0.7089
15758SOL    HW249143   7.173   2.128   7.944  0.2891 -1.2312 -2.4905
15759SOL     OW49144   8.111   8.020   3.963  0.3804  0.0934 -0.3054
15759SOL    HW149145   8.045   8.084   3.934  0.6163  0.2908 -0.4079
15759SOL    HW249146   8.114   8.030   4.058 -0.5570 -0.7114 -0.1750
15760SOL     OW49147   0.283   3.043   0.234 -0.1449  0.0071 -0.3855
15760SOL    HW149148   0.190   3.056   0.217 -0.5484  0.7865  1.9875
15760SOL    HW249149   0.289   2.952   0.262 -0.5971  0.4873  1.4153
15761SOL     OW49150   5.788   5.838   5.531 -0.2716 -0.2249 -0.2493
15761SOL    HW149151   5.827   5.779   5.466 -1.7001 -0.8419 -0.6050
15761SOL    HW249152   5.701   5.800   5.548 -0.0826  0.1326  1.7533
15762SOL     OW49153   0.227   2.989   5.092  0.2757 -0.3864  0.5695
15762SOL    HW149154   0.258   3.023   5.175  1.0123 -1.0637  0.5878
15762SOL    HW249155   0.192   2.902   5.113  0.9171 -0.7701  0.1191
15763SOL     OW49156   8.908   8.464   5.638 -0.1091 -0.1683  0.1825
15763SOL    HW149157   8.896   8.369   5.631 -1.7850  0.1344 -2.9671
15763SOL    HW249158   8.820   8.499   5.648  0.1772  1.1610 -1.5401
15764SOL     OW49159   4.222   6.129   0.061  0.1020  0.0949  0.4920
15764SOL    HW149160   4.283   6.101  -0.008 -0.6363 -0.5503  0.0887
15764SOL    HW249161   4.279   6.155   0.133  0.8667 -0.2691  0.0388
15765SOL     OW49162   0.740   2.300   6.858  0.0612 -0.4742 -1.0369
15765SOL    HW149163   0.671   2.281   6.921  0.5547 -3.0407 -1.1498
15765SOL    HW249164   0.787   2.374   6.896 -1.7879  0.3515 -0.2149
15766SOL     OW49165   4.936   4.740   0.703  0.0924 -0.0213 -0.3277
15766SOL    HW149166   4.985   4.806   0.750  0.9591  0.2319 -1.5395
15766SOL    HW249167   4.863   4.718   0.761  1.4813 -0.2473  1.4277
15767SOL     OW49168   5.910   1.353   7.870 -0.2000 -0.0244 -0.1720
15767SOL    HW149169   5.948   1.267   7.887  1.1897  0.0880 -2.3498
15767SOL    HW249170   5.986   1.410   7.855 -0.9407  2.1319  3.1493
15768SOL     OW49171   5.644   7.598   6.382 -0.1943  0.5666 -0.2942
15768SOL    HW149172   5.667   7.675   6.329 -1.2842  0.3408 -1.1322
15768SOL    HW249173   5.587   7.633   6.450  0.4922  0.7127  0.2242
15769SOL     OW49174   0.034   3.937   0.752 -0.3205  0.2279 -0.1571
15769SOL    HW149175   0.104   3.975   0.806  0.0839  1.0814 -1.2605
15769SOL    HW249176   0.080   3.880   0.691 -0.6735  0.1471 -0.3477
15770SOL     OW49177   6.527   3.675   4.408 -0.0140  0.4322  0.1579
15770SOL    HW149178   6.589   3.654   4.338  0.3911 -2.1943  1.1791
15770SOL    HW249179   6.582   3.701   4.481 -0.3017  1.0129  0.1690
15771SOL     OW49180   2.741   7.899   8.199  0.6130 -0.0037 -0.4121
15771SOL    HW149181   2.690   7.958   8.144 -1.3446  1.3917  2.6084
15771SOL    HW249182   2.829   7.899   8.161 -0.0392  2.6722 -2.1277
15772SOL     OW49183   8.535   3.863   0.964  0.2686  0.3726 -0.3263
15772SOL    HW149184   8.447   3.862   0.927 -0.2707  1.2592  0.8520
15772SOL    HW249185   8.536   3.790   1.025  0.9490 -0.7050 -1.5842
15773SOL     OW49186   0.212   3.774   0.617 -0.2454  0.3914 -0.2622
15773SOL    HW149187   0.277   3.758   0.548 -1.4238 -2.3827 -0.8723
15773SOL    HW249188   0.260   3.763   0.698  0.8197  2.1392 -0.6068
15774SOL     OW49189   7.103   8.471   2.157  0.1035  0.6162 -0.0342
15774SOL    HW149190   7.011   8.446   2.154  0.0760  0.5253  0.9544
15774SOL    HW249191   7.103   8.566   2.150 -0.0723  0.6158 -0.0458
15775SOL     OW49192   7.886   1.953   2.063  0.0620  0.3347  0.1690
15775SOL    HW149193   7.844   1.866   2.062 -1.6115  1.1005 -1.4803
15775SOL    HW249194   7.948   1.951   1.991 -0.3653  0.6588 -0.2163
15776SOL     OW49195   1.178   3.116   6.977 -0.3577  0.0960  0.2753
15776SOL    HW149196   1.116   3.045   6.960 -1.8708  1.3811  0.2687
15776SOL    HW249197   1.166   3.176   6.903 -0.5132  1.3113  1.2580
15777SOL     OW49198   4.728   5.029   6.765  0.3787 -0.1940 -0.1542
15777SOL    HW149199   4.693   5.072   6.843  1.5942 -0.6840  0.6926
15777SOL    HW249200   4.759   5.101   6.710 -0.8017  0.1724 -0.3586
15778SOL     OW49201   4.678   0.101   2.645 -0.2528  0.1637 -0.2332
15778SOL    HW149202   4.602   0.159   2.639 -0.0929  0.2618 -1.6296
15778SOL    HW249203   4.670   0.044   2.569  1.1020  0.2048 -0.4189
15779SOL     OW49204   0.466   2.454   0.797 -0.0482  0.4108 -0.6521
15779SOL    HW149205   0.474   2.381   0.736 -2.7158  0.0292 -0.6781
15779SOL    HW249206   0.553   2.465   0.834  1.3028 -0.3412 -3.3783
15780SOL     OW49207   8.941   8.012   6.405  0.1124  0.2030  0.5411
15780SOL    HW149208   9.020   7.975   6.444  0.8329 -0.0771 -1.1069
15780SOL    HW249209   8.931   7.966   6.322  0.1451  2.5537 -0.8537
15781SOL     OW49210   3.691   8.754   7.313  0.2023  0.0003 -0.1562
15781SOL    HW149211   3.688   8.754   7.409 -1.0736  1.7462 -0.1395
15781SOL    HW249212   3.641   8.677   7.287 -2.6597  1.4609  0.6240
15782SOL     OW49213   4.033   7.716   2.550  0.0049 -0.4005 -0.1219
15782SOL    HW149214   4.027   7.738   2.643 -0.0267 -0.5743 -0.0816
15782SOL    HW249215   4.083   7.635   2.548 -2.2860 -1.9245 -0.0164
15783SOL     OW49216   7.327   0.695   2.540 -0.3139 -0.1266  0.7459
15783SOL    HW149217   7.284   0.667   2.621 -0.1662  0.7954  1.1549
15783SOL    HW249218   7.365   0.615   2.505 -1.5503 -0.7918  0.8644
15784SOL     OW49219   5.446   7.398   2.263  0.3131 -0.4503 -0.2754
15784SOL    HW149220   5.367   7.448   2.244 -0.2376 -1.1225  0.2138
15784SOL    HW249221   5.464   7.349   2.182  0.8125  0.4592 -0.7305
15785SOL     OW49222   3.643   6.605   2.656  0.3330 -0.4695 -0.6726
15785SOL    HW149223   3.614   6.528   2.705 -0.6380 -0.1843 -0.7663
15785SOL    HW249224   3.600   6.596   2.571 -1.0610  0.9345 -0.1648
15786SOL     OW49225   6.391   7.866   7.849 -0.3760  0.3417  0.4003
15786SOL    HW149226   6.302   7.871   7.884 -0.1534  0.3519  0.9811
15786SOL    HW249227   6.394   7.782   7.804 -0.1508 -0.5170  1.9255
15787SOL     OW49228   0.627   2.686   2.694 -0.1097  0.4512  0.2773
15787SOL    HW149229   0.719   2.659   2.691 -0.3378 -0.5728  1.5115
15787SOL    HW249230   0.579   2.614   2.653 -0.3866  0.9248 -0.2536
15788SOL     OW49231   6.863   0.499   3.012 -0.1107  0.2649 -0.2859
15788SOL    HW149232   6.942   0.458   2.977 -0.9885 -0.5382 -1.3931
15788SOL    HW249233   6.883   0.593   3.013  0.6773  0.1126 -1.0363
15789SOL     OW49234   5.303   8.219   1.715  0.3474  0.5709  0.3634
15789SOL    HW149235   5.217   8.253   1.688  0.7120  1.4271  0.2459
15789SOL    HW249236   5.284   8.133   1.753 -0.6527  1.0266  0.9316
15790SOL     OW49237   5.011   7.469   0.563  0.3419 -0.0381  0.1412
15790SOL    HW149238   4.947   7.537   0.584 -0.8248 -0.3918 -1.9898
15790SOL    HW249239   5.043   7.493   0.476  2.6592 -0.2554  0.8659
15791SOL     OW49240   8.916   0.701   8.903 -0.5524 -1.0515 -0.5191
15791SOL    HW149241   8.895   0.630   8.842  0.1784  0.0310 -2.1102
15791SOL    HW249242   8.891   0.781   8.857 -1.7650 -0.2597  1.4135
15792SOL     OW49243   5.266   2.811   2.110  0.2727  0.0935 -0.2376
15792SOL    HW149244   5.279   2.842   2.020  0.7521 -1.2539 -0.6605
15792SOL    HW249245   5.173   2.789   2.114  0.4219 -0.6579 -0.6921
15793SOL     OW49246   3.270   2.530   3.420 -0.5401 -0.1860 -0.0397
15793SOL    HW149247   3.277   2.479   3.501  0.9942  0.1043  0.0462
15793SOL    HW249248   3.283   2.621   3.448  1.0576 -0.1758 -0.7188
15794SOL     OW49249   1.065   3.400   8.771  0.4680  0.4007 -0.3656
15794SOL    HW149250   1.157   3.373   8.780  0.6688  1.2701  0.3660
15794SOL    HW249251   1.019   3.320   8.746  1.2510 -0.3303  0.4428
15795SOL     OW49252   2.576   8.368   0.789  0.4857 -0.1902  0.1601
15795SOL    HW149253   2.651   8.340   0.737  1.4336 -0.8882  1.8352
15795SOL    HW249254   2.581   8.315   0.869 -0.8049  0.9780  1.0581
15796SOL     OW49255   6.829   6.518   3.177  0.0964 -0.1337 -0.1493
15796SOL    HW149256   6.828   6.508   3.272  0.0916 -0.4555 -0.1814
15796SOL    HW249257   6.774   6.446   3.145  1.3600 -0.9850 -0.4782
15797SOL     OW49258   4.267   8.355   1.574 -0.2975  0.1522 -0.0893
15797SOL    HW149259   4.357   8.386   1.574 -0.5024  0.7883 -1.0046
15797SOL    HW249260   4.216   8.429   1.542 -0.6326 -1.4991 -3.9111
15798SOL     OW49261   1.887   4.545   8.892  0.5260 -0.3690  0.3896
15798SOL    HW149262   1.901   4.587   8.807 -0.9921  0.5602  0.5493
15798SOL    HW249263   1.823   4.476   8.874 -0.6013  0.4956  0.9019
15799SOL     OW49264   5.487   4.078   7.599  0.1428 -0.0000  0.1434
15799SOL    HW149265   5.419   4.106   7.660 -1.5129  0.0441 -1.6019
15799SOL    HW249266   5.497   3.985   7.615  1.2124  0.3654  1.8107
15800SOL     OW49267   1.177   2.923   8.207  0.6305 -0.2080  0.1259
15800SOL    HW149268   1.248   2.903   8.269  2.4616  0.7796 -1.5548
15800SOL    HW249269   1.174   3.019   8.205 -0.3362 -0.2379 -0.3352
15801SOL     OW49270   4.463   2.598   0.241  0.1516  0.3465  0.0158
15801SOL    HW149271   4.481   2.646   0.321 -1.0774  0.1081  0.4602
15801SOL    HW249272   4.445   2.666   0.175  1.2684  0.5436 -0.0983
15802SOL     OW49273   8.633   2.017   5.315  0.0959  0.4549  0.0373
15802SOL    HW149274   8.700   2.072   5.356 -0.6777  0.0416  1.9569
15802SOL    HW249275   8.641   2.036   5.221  2.1480  1.2220  0.3096
15803SOL     OW49276   4.747   2.176   1.051 -0.1806 -0.3320  0.5514
15803SOL    HW149277   4.837   2.207   1.041 -0.5311  0.8627  0.9412
15803SOL    HW249278   4.700   2.251   1.087 -1.2491 -1.0748  0.7345
15804SOL     OW49279   2.760   4.358   4.427 -0.0917  0.4599  0.7778
15804SOL    HW149280   2.731   4.378   4.338  0.4495 -1.1931  0.1807
15804SOL    HW249281   2.816   4.280   4.417 -0.2092  0.0960  2.5841
15805SOL     OW49282   8.384   8.009   3.188  0.3007  0.2265  0.2472
15805SOL    HW149283   8.306   7.962   3.219 -0.5374  1.6410  0.3771
15805SOL    HW249284   8.398   8.078   3.252  0.7565  0.9204 -0.5690
15806SOL     OW49285   6.550   0.797   6.741 -1.0360 -1.1102 -0.0430
15806SOL    HW149286   6.507   0.734   6.798 -2.5104 -0.6316 -0.5542
15806SOL    HW249287   6.494   0.875   6.745 -0.4033 -0.5735 -1.0367
15807SOL     OW49288   7.671   3.096   7.306  0.1849  0.2248 -0.0749
15807SOL    HW149289   7.759   3.135   7.305  0.8213 -1.1341  0.7141
15807SOL    HW249290   7.671   3.035   7.233 -0.5357  1.0638 -0.8050
15808SOL     OW49291   8.492   8.290   8.339 -0.1324  0.0319 -0.2187
15808SOL    HW149292   8.525   8.356   8.399  0.8696 -0.5891 -0.0567
15808SOL    HW249293   8.400   8.278   8.363 -0.3074  1.2982 -0.2120
15809SOL     OW49294   0.145   2.488   7.043 -0.0034  0.4796 -0.3246
15809SOL    HW149295   0.236   2.515   7.038  0.4008 -0.9379 -1.1481
15809SOL    HW249296   0.107   2.515   6.960 -0.3592  1.0724  0.0181
15810SOL     OW49297   3.181   3.772   2.887  0.0667 -0.3406  0.2637
15810SOL    HW149298   3.124   3.806   2.818  0.3665  0.0808  0.2235
15810SOL    HW249299   3.249   3.723   2.841 -0.6766 -1.4826  0.3465
15811SOL     OW49300   4.130   0.389   7.208  0.2675  0.7194 -0.0534
15811SOL    HW149301   4.138   0.424   7.296  0.0850 -0.1189  0.2994
15811SOL    HW249302   4.181   0.308   7.209 -1.9921 -0.7817  0.0977
15812SOL     OW49303   4.271   1.513   3.589 -0.3535 -0.3674  0.7945
15812SOL    HW149304   4.278   1.487   3.498 -2.4024  1.7780 -0.0828
15812SOL    HW249305   4.357   1.547   3.612 -0.0762 -0.0595 -0.6497
15813SOL     OW49306   4.561   1.309   3.386 -0.6758 -0.1986  0.1141
15813SOL    HW149307   4.504   1.247   3.340 -1.0083 -0.4863  0.8858
15813SOL    HW249308   4.630   1.330   3.323 -2.2935  1.1344 -1.3072
15814SOL     OW49309   5.376   6.563   1.723 -0.3014 -0.1866  0.1387
15814SOL    HW149310   5.426   6.645   1.724 -1.7017  0.7201 -0.4391
15814SOL    HW249311   5.442   6.495   1.737  1.0378  0.9615 -0.2487
15815SOL     OW49312   3.784   3.429   1.558  0.4323  0.6765  0.1270
15815SOL    HW149313   3.822   3.484   1.489  0.1231  0.3949 -0.2732
15815SOL    HW249314   3.817   3.467   1.639  1.5133  0.4761 -0.2100
15816SOL     OW49315   2.043   8.419   6.952  0.4638  0.4655 -0.5132
15816SOL    HW149316   2.130   8.417   6.992  0.3457  3.3674  0.1129
15816SOL    HW249317   1.983   8.433   7.025 -0.5017 -0.9568 -1.0040
15817SOL     OW49318   4.104   1.021   0.224  0.2486  0.5874 -0.1971
15817SOL    HW149319   4.181   0.986   0.178 -0.0409 -0.8658  0.3702
15817SOL    HW249320   4.080   0.952   0.286  0.3679  2.2840  1.8471
15818SOL     OW49321   3.428   2.318   2.534 -0.4180 -0.1876 -0.2578
15818SOL    HW149322   3.441   2.273   2.618  1.6504  0.4739 -0.1499
15818SOL    HW249323   3.335   2.341   2.533 -0.3746  0.4789  2.2432
15819SOL     OW49324   4.676   1.831   5.793  0.1719 -0.3398  0.0252
15819SOL    HW149325   4.696   1.893   5.864  3.0329  1.6602 -2.2890
15819SOL    HW249326   4.672   1.885   5.714  2.3244 -2.9295 -2.0642
15820SOL     OW49327   5.184   5.560   2.111  0.7422 -0.0625  0.1377
15820SOL    HW149328   5.100   5.603   2.127 -0.2731 -2.1025  0.4969
15820SOL    HW249329   5.204   5.581   2.019 -0.6422 -0.3259 -0.2447
15821SOL     OW49330   3.247   1.774   8.539  0.2202  0.3374 -0.0720
15821SOL    HW149331   3.200   1.703   8.494  0.4526 -0.1134  0.3824
15821SOL    HW249332   3.263   1.740   8.627  0.7743  0.7643 -0.0020
15822SOL     OW49333   4.897   7.866   7.690 -0.2402 -0.8128  0.1476
15822SOL    HW149334   4.899   7.793   7.752  0.9549 -1.8930 -1.1147
15822SOL    HW249335   4.825   7.846   7.631  0.2810 -1.1265 -0.3824
15823SOL     OW49336   3.490   4.015   0.257 -0.1831 -0.1299 -0.7152
15823SOL    HW149337   3.568   4.028   0.204 -0.7460 -1.5963 -1.9822
15823SOL    HW249338   3.521   3.969   0.335  0.3190  0.0063 -0.8333
15824SOL     OW49339   8.812   6.297   7.978 -0.4170 -0.2040  0.3816
15824SOL    HW149340   8.841   6.241   7.907  1.5292  1.2368 -0.0522
15824SOL    HW249341   8.797   6.237   8.052  0.4347 -1.3988 -0.3850
15825SOL     OW49342   6.980   8.239   5.657  0.0305 -0.1812  0.6029
15825SOL    HW149343   6.918   8.201   5.594  1.8499 -1.3141 -0.5815
15825SOL    HW249344   6.924   8.273   5.727 -1.9071 -2.8301  0.5245
15826SOL     OW49345   1.783   6.320   2.309 -0.0680 -0.5290 -0.1176
15826SOL    HW149346   1.844   6.265   2.260 -0.1788 -1.7648  1.0793
15826SOL    HW249347   1.751   6.383   2.244  0.9414 -1.1358 -1.2517
15827SOL     OW49348   4.578   8.179   7.243  0.0158 -0.2438 -0.1512
15827SOL    HW149349   4.506   8.223   7.288  0.2305  0.7635 -0.7602
15827SOL    HW249350   4.649   8.244   7.241  0.6975 -0.9760 -0.1739
15828SOL     OW49351   2.766   8.896   2.997  0.1246 -1.0713  0.0717
15828SOL    HW149352   2.853   8.903   3.038 -0.0128 -0.2008  0.2392
15828SOL    HW249353   2.780   8.837   2.922  0.7705 -1.2670  0.3351
15829SOL     OW49354   1.187   6.052   2.347  0.3553 -0.1013 -0.6924
15829SOL    HW149355   1.246   5.983   2.377  2.6620  1.8842 -0.3628
15829SOL    HW249356   1.172   6.107   2.424 -1.8947 -0.4681 -0.8057
15830SOL     OW49357   2.731   4.769   1.997  0.0832 -0.0648  0.0786
15830SOL    HW149358   2.646   4.811   2.006 -0.2937 -0.5676 -0.9689
15830SOL    HW249359   2.784   4.806   2.068 -0.9749  0.3113  0.6947
15831SOL     OW49360   4.197   3.307   6.465 -0.0643  0.1620 -0.2760
15831SOL    HW149361   4.119   3.253   6.485 -0.3997  1.1908  1.3801
15831SOL    HW249362   4.191   3.324   6.371 -0.7323 -1.4628 -0.5620
15832SOL     OW49363   8.417   8.195   1.470 -0.5433  0.2044 -0.0651
15832SOL    HW149364   8.375   8.187   1.385 -3.0054  1.8787  0.8736
15832SOL    HW249365   8.472   8.117   1.478  0.5683  0.4864 -3.5322
15833SOL     OW49366   3.861   5.437   0.850 -0.4154  0.0048 -0.1540
15833SOL    HW149367   3.768   5.421   0.833 -0.5492  0.4431  0.1593
15833SOL    HW249368   3.870   5.532   0.850  0.5656  0.0112 -3.0426
15834SOL     OW49369   7.907   2.005   0.135  0.3052 -0.0009  0.4865
15834SOL    HW149370   7.966   1.995   0.060 -0.9715  2.0048 -0.8915
15834SOL    HW249371   7.837   2.061   0.103 -1.1520 -0.3968  2.7480
15835SOL     OW49372   5.072   4.371   7.480 -0.3137 -0.4847 -0.1942
15835SOL    HW149373   5.148   4.405   7.527 -1.3001  1.2649  0.2241
15835SOL    HW249374   5.017   4.333   7.549 -1.4358  1.4650  0.0736
15836SOL     OW49375   6.367   3.326   8.728  0.5114 -0.9642  0.1802
15836SOL    HW149376   6.353   3.413   8.765 -2.0075 -1.5324  0.7744
15836SOL    HW249377   6.437   3.288   8.782  0.6198  0.1483  0.8596
15837SOL     OW49378   7.151   0.281   1.585 -0.0896  0.0846 -0.0547
15837SOL    HW149379   7.092   0.324   1.523 -1.4239 -2.8296 -0.9653
15837SOL    HW249380   7.218   0.240   1.531  0.3237 -0.1973  0.6540
15838SOL     OW49381   8.561   7.279   1.795  0.5271  0.4401 -0.2851
15838SOL    HW149382   8.622   7.215   1.758  1.5983  0.5823  1.1712
15838SOL    HW249383   8.611   7.360   1.798 -0.4269  1.0757 -0.9795
15839SOL     OW49384   5.465   6.318   2.479  0.0842  0.2642 -0.6075
15839SOL    HW149385   5.453   6.389   2.542 -1.3503 -0.5479  0.0879
15839SOL    HW249386   5.389   6.324   2.421 -0.7784 -1.4527  0.2598
15840SOL     OW49387   2.439   1.644   2.274  0.5295 -0.2354 -0.6081
15840SOL    HW149388   2.400   1.623   2.189  0.1487 -3.0932  0.1521
15840SOL    HW249389   2.380   1.709   2.312  1.0512  1.5808 -2.7140
15841SOL     OW49390   8.472   3.851   3.141  0.4517 -0.6007  0.2857
15841SOL    HW149391   8.484   3.946   3.133 -0.7531 -0.2935  1.7207
15841SOL    HW249392   8.378   3.838   3.127  0.5450 -1.5232  0.4932
15842SOL     OW49393   7.981   3.668   4.248 -0.1578 -0.1438 -0.4448
15842SOL    HW149394   7.992   3.635   4.159  1.3684  1.2711 -0.8376
15842SOL    HW249395   8.060   3.720   4.264 -0.4308 -0.3236  1.7235
15843SOL     OW49396   8.366   4.908   1.082  0.2270 -0.1730 -0.1298
15843SOL    HW149397   8.371   4.923   0.988  0.0751 -0.3765 -0.1717
15843SOL    HW249398   8.313   4.981   1.115 -0.3753 -0.5203 -0.3105
15844SOL     OW49399   2.430   2.886   3.020  0.6054 -0.6492 -0.2820
15844SOL    HW149400   2.520   2.915   3.037  0.2302 -1.0084  3.1510
15844SOL    HW249401   2.438   2.791   3.011  0.5986 -0.6487 -0.2933
15845SOL     OW49402   0.369   8.342   1.309 -0.2743 -0.1391 -0.4577
15845SOL    HW149403   0.421   8.345   1.390 -0.1507  0.4326 -0.5498
15845SOL    HW249404   0.416   8.400   1.249 -0.0877 -0.9571 -1.1127
15846SOL     OW49405   5.766   0.793   3.529  0.1149  0.0370 -0.1343
15846SOL    HW149406   5.701   0.849   3.571  0.3053 -0.0905  0.3389
15846SOL    HW249407   5.741   0.791   3.437 -1.9234 -1.8941  0.3924
15847SOL     OW49408   3.390   4.520   7.285 -0.2970  0.1133 -0.1086
15847SOL    HW149409   3.305   4.507   7.326  0.0352 -0.0492  0.5454
15847SOL    HW249410   3.371   4.566   7.203 -1.1671 -1.2682 -0.7207
15848SOL     OW49411   3.844   0.915   5.547  0.4329  0.3626  0.2318
15848SOL    HW149412   3.918   0.950   5.597  0.8867 -0.2182 -0.0192
15848SOL    HW249413   3.863   0.821   5.540  0.0068  0.3248 -0.4070
15849SOL     OW49414   5.369   1.935   2.395 -0.4729  0.2347 -0.2729
15849SOL    HW149415   5.422   1.864   2.431 -1.4714 -0.7440 -0.6648
15849SOL    HW249416   5.373   1.922   2.300 -0.1243  1.1152 -0.3869
15850SOL     OW49417   7.080   0.305   6.948  0.5492 -0.2083  0.0313
15850SOL    HW149418   7.147   0.284   6.882  1.1581 -1.6633  1.0803
15850SOL    HW249419   7.109   0.388   6.985 -0.3015  1.1472 -2.1150
15851SOL     OW49420   1.075   6.074   4.919  0.7276  0.0120  0.3414
15851SOL    HW149421   1.001   6.050   4.974  1.2070 -0.8340  0.6266
15851SOL    HW249422   1.049   6.050   4.830  1.2303 -1.7033  0.6269
15852SOL     OW49423   4.847   4.279   3.519 -0.1120  0.3869 -0.3771
15852SOL    HW149424   4.871   4.341   3.588 -0.3696 -0.3838  0.4218
15852SOL    HW249425   4.884   4.317   3.439  1.5308  0.5296  0.4095
15853SOL     OW49426   4.399   8.633   3.232  0.2568 -0.7517 -0.1516
15853SOL    HW149427   4.440   8.707   3.186  0.3048 -0.8667 -0.2973
15853SOL    HW249428   4.427   8.643   3.323 -2.0985  1.0904  0.4824
15854SOL     OW49429   4.796   2.793   5.947 -0.6194 -0.2508 -0.0067
15854SOL    HW149430   4.799   2.774   6.040  0.6238 -2.3206 -0.4077
15854SOL    HW249431   4.800   2.707   5.904 -1.4613  0.6186 -1.9734
15855SOL     OW49432   0.305   0.609   4.842  0.0538  0.1626 -0.0447
15855SOL    HW149433   0.235   0.546   4.863 -0.2021 -0.2227 -1.8916
15855SOL    HW249434   0.332   0.586   4.753  2.2832  0.5622  0.4743
15856SOL     OW49435   8.470   2.786   5.040 -0.1580 -0.1087  0.1754
15856SOL    HW149436   8.413   2.717   5.006 -0.3813  0.2402 -0.1651
15856SOL    HW249437   8.417   2.831   5.106 -0.1456 -0.0146  0.1209
15857SOL     OW49438   3.664   4.227   4.768 -0.1973 -0.3991  0.1761
15857SOL    HW149439   3.570   4.215   4.781 -0.0947 -2.0871 -0.4136
15857SOL    HW249440   3.680   4.318   4.794 -1.6674 -0.5991  1.9689
15858SOL     OW49441   2.463   1.803   3.667  0.0211  0.5288  0.1049
15858SOL    HW149442   2.493   1.746   3.738  2.3852  0.0674 -1.1573
15858SOL    HW249443   2.485   1.755   3.587 -2.6877  0.9746 -0.9886
15859SOL     OW49444   2.473   6.941   5.036  0.6646 -0.6407 -0.2063
15859SOL    HW149445   2.492   7.015   5.094 -0.4114 -1.1799  0.8683
15859SOL    HW249446   2.466   6.866   5.095 -0.2363 -1.2405 -1.0550
15860SOL     OW49447   4.652   8.958   8.737 -0.7209 -0.0605 -0.2278
15860SOL    HW149448   4.652   8.873   8.782  2.1122  1.3178  2.8107
15860SOL    HW249449   4.719   8.951   8.670 -1.2034 -0.4872 -0.6761
15861SOL     OW49450   4.269   2.345   3.363 -0.2710  0.9745 -0.6018
15861SOL    HW149451   4.244   2.379   3.449  2.8232  0.2588  0.6727
15861SOL    HW249452   4.214   2.395   3.302 -2.0071  2.0632  1.6802
15862SOL     OW49453   5.818   4.265   0.782 -0.0141 -0.1797  0.4090
15862SOL    HW149454   5.894   4.210   0.763 -1.0716 -1.1171 -1.4615
15862SOL    HW249455   5.743   4.205   0.779 -0.9724  0.9460  0.8069
15863SOL     OW49456   8.367   3.862   4.993  0.3248 -0.3317 -0.3756
15863SOL    HW149457   8.319   3.943   4.976 -0.4531 -1.0275 -1.7112
15863SOL    HW249458   8.409   3.876   5.077  0.6463  1.6608 -0.8183
15864SOL     OW49459   4.852   4.262   4.564 -0.1434 -0.5760  0.2477
15864SOL    HW149460   4.806   4.228   4.641  0.2554 -0.9903  0.3067
15864SOL    HW249461   4.882   4.184   4.518  0.6679 -0.3153  0.3159
15865SOL     OW49462   6.601   5.331   5.045 -0.1826  0.0641  0.3835
15865SOL    HW149463   6.553   5.273   5.104  1.0794 -0.3474  1.0463
15865SOL    HW249464   6.601   5.286   4.960 -0.7427 -0.0401  0.4378
15866SOL     OW49465   7.803   2.775   7.245 -0.2819 -1.2185 -0.5675
15866SOL    HW149466   7.758   2.692   7.228  1.0291 -2.2861  0.8395
15866SOL    HW249467   7.885   2.768   7.196 -0.1116 -0.7933 -0.3483
15867SOL     OW49468   2.701   3.346   7.360  0.2476  0.3353  0.7478
15867SOL    HW149469   2.786   3.362   7.402  0.2643  0.8181  0.5386
15867SOL    HW249470   2.719   3.354   7.266 -0.4079  2.3914  0.7585
15868SOL     OW49471   6.058   7.615   0.686 -0.5674 -0.2074  0.1326
15868SOL    HW149472   5.983   7.673   0.699  0.7315  1.8941 -1.1370
15868SOL    HW249473   6.052   7.552   0.757 -2.3006  1.2515  1.3695
15869SOL     OW49474   5.986   8.001   0.891 -0.2116 -0.2566  0.3309
15869SOL    HW149475   6.065   7.965   0.851  0.6440  1.1014  0.7068
15869SOL    HW249476   6.015   8.032   0.977 -1.1412  0.3094  0.4556
15870SOL     OW49477   3.944   5.052   6.340  0.1608 -0.4649  0.0039
15870SOL    HW149478   3.952   4.960   6.315 -0.4594 -0.3520 -0.6555
15870SOL    HW249479   3.881   5.051   6.412  0.5267 -0.6025  0.3249
15871SOL     OW49480   5.726   3.791   8.257 -0.1411 -0.4289 -0.2316
15871SOL    HW149481   5.692   3.880   8.246  0.2032 -0.0131  1.6867
15871SOL    HW249482   5.658   3.734   8.221 -1.8628  0.4854  1.3833
15872SOL     OW49483   5.246   3.805   8.323 -0.2191  0.1921  0.2173
15872SOL    HW149484   5.274   3.861   8.395 -0.6195 -0.1646  0.6663
15872SOL    HW249485   5.165   3.845   8.292 -0.1350  0.2547  0.0829
15873SOL     OW49486   3.403   2.686   4.680 -0.1233 -0.0663 -0.2252
15873SOL    HW149487   3.482   2.720   4.723  1.6898 -1.3440 -2.3075
15873SOL    HW249488   3.370   2.760   4.628 -0.8894  0.7413  1.3385
15874SOL     OW49489   4.376   4.584   5.293 -0.7504 -0.5689 -0.7500
15874SOL    HW149490   4.410   4.673   5.297 -0.1049 -0.8248 -0.2211
15874SOL    HW249491   4.348   4.565   5.383 -1.4956 -0.6746 -0.9937
15875SOL     OW49492   0.370   4.806   6.513  0.3093  0.0870  0.1538
15875SOL    HW149493   0.344   4.723   6.471  0.9487 -1.2961  2.3249
15875SOL    HW249494   0.288   4.848   6.536 -0.0283 -0.6982  0.4152
15876SOL     OW49495   6.382   4.736   0.760 -0.5176 -0.5325 -0.0786
15876SOL    HW149496   6.340   4.681   0.826  0.0663 -0.5138  0.3193
15876SOL    HW249497   6.475   4.736   0.784 -0.0618 -1.6744 -1.7213
15877SOL     OW49498   6.125   5.153   4.795 -0.3543 -1.1012 -0.1650
15877SOL    HW149499   6.052   5.107   4.753 -0.2480 -2.1500  0.7367
15877SOL    HW249500   6.203   5.116   4.755 -0.2956 -1.0609 -0.0878
15878SOL     OW49501   2.861   6.659   8.779 -0.4534 -0.4399  0.2026
15878SOL    HW149502   2.790   6.600   8.805 -0.8397  0.1805  0.5819
15878SOL    HW249503   2.915   6.667   8.857 -0.5045 -0.1518  0.2105
15879SOL     OW49504   8.203   6.027   2.804 -0.5402  0.0640  0.1617
15879SOL    HW149505   8.123   6.001   2.758 -0.7197  1.2225 -0.1996
15879SOL    HW249506   8.207   5.967   2.879 -1.0989 -0.7930 -0.4726
15880SOL     OW49507   6.738   8.229   1.851 -0.4011  0.4457  0.0874
15880SOL    HW149508   6.737   8.144   1.894  1.0114 -0.3109 -1.2738
15880SOL    HW249509   6.652   8.266   1.869 -1.4310 -1.6887 -0.0970
15881SOL     OW49510   1.332   6.270   7.205 -0.0128 -0.0845 -0.3068
15881SOL    HW149511   1.361   6.230   7.287 -0.6755  0.4137  0.1903
15881SOL    HW249512   1.252   6.318   7.229 -0.3323 -0.1005 -1.2876
15882SOL     OW49513   8.389   5.466   2.493 -0.6746  0.4308 -0.3757
15882SOL    HW149514   8.294   5.455   2.491 -0.9035  1.9353  0.3556
15882SOL    HW249515   8.410   5.479   2.586  0.5437 -1.9271 -0.2563
15883SOL     OW49516   6.013   0.233   7.489  0.0870  0.1202 -0.4822
15883SOL    HW149517   5.979   0.322   7.485 -0.2890  0.0046  0.0557
15883SOL    HW249518   5.947   0.184   7.538  0.3884 -0.4104 -0.5945
15884SOL     OW49519   8.135   3.675   7.955  0.1230 -0.2949 -0.4020
15884SOL    HW149520   8.123   3.581   7.963  0.3621 -0.2569  0.6654
15884SOL    HW249521   8.132   3.707   8.046  0.0027  0.7238 -0.7515
15885SOL     OW49522   5.059   2.049   2.255  0.0112  0.4350 -0.7239
15885SOL    HW149523   5.053   2.040   2.350  1.7290  0.3640 -0.5806
15885SOL    HW249524   4.969   2.062   2.226 -0.7475 -1.2465  0.7192
15886SOL     OW49525   2.161   6.927   2.567 -0.3108 -0.1215 -0.1403
15886SOL    HW149526   2.104   7.003   2.572  0.1870  0.2389  0.0730
15886SOL    HW249527   2.231   6.953   2.507 -0.9163 -0.9231 -1.2438
15887SOL     OW49528   5.715   4.635   0.350 -0.1364  0.4802  0.0086
15887SOL    HW149529   5.642   4.642   0.411 -0.1229 -1.3980  0.2890
15887SOL    HW249530   5.691   4.563   0.292  0.7381  0.9520 -0.9734
15888SOL     OW49531   3.960   3.982   5.183 -0.3701 -0.5147  0.1636
15888SOL    HW149532   3.886   4.039   5.163 -0.2202  0.3413  1.8617
15888SOL    HW249533   3.960   3.974   5.278  0.9055 -1.6242  0.1105
15889SOL     OW49534   6.677   3.172   5.186  0.4988 -0.2913  0.8508
15889SOL    HW149535   6.721   3.128   5.259  0.5588 -0.9795  0.4054
15889SOL    HW249536   6.603   3.115   5.165 -0.3667  0.6329  1.3041
15890SOL     OW49537   2.878   1.776   7.069  0.1464 -0.4238  0.3942
15890SOL    HW149538   2.900   1.737   6.984 -0.9736  0.8888 -0.5424
15890SOL    HW249539   2.819   1.848   7.048  0.9540  0.8420  2.1806
15891SOL     OW49540   7.107   4.747   2.114  0.2075  0.1384 -0.0976
15891SOL    HW149541   7.112   4.829   2.066  1.7498  0.2858  0.2798
15891SOL    HW249542   7.156   4.684   2.061 -1.9413 -0.8910 -0.9874
15892SOL     OW49543   1.885   0.599   8.753  1.1723 -0.2122 -0.0442
15892SOL    HW149544   1.921   0.537   8.690 -0.3405 -0.8928 -0.2652
15892SOL    HW249545   1.936   0.583   8.833  0.4805 -2.1446  0.0690
15893SOL     OW49546   2.755   0.385   4.466  0.4694  0.6600 -0.4183
15893SOL    HW149547   2.819   0.384   4.395  0.3100 -0.9913 -0.5917
15893SOL    HW249548   2.805   0.363   4.544  0.3823  0.9720 -0.2722
15894SOL     OW49549   6.471   8.961   3.743 -0.2815 -0.5267  0.0351
15894SOL    HW149550   6.499   8.975   3.833  2.0899 -0.3804 -0.6644
15894SOL    HW249551   6.552   8.960   3.692 -1.4926 -1.3357 -2.0138
15895SOL     OW49552   4.707   2.441   4.927 -0.0399 -0.3702  0.1871
15895SOL    HW149553   4.718   2.408   5.016  3.2175 -2.0538 -0.6712
15895SOL    HW249554   4.794   2.468   4.900 -0.6862 -0.8687 -2.8339
15896SOL     OW49555   5.913   2.481   6.917 -0.1375 -0.0612  0.8229
15896SOL    HW149556   5.896   2.389   6.896  0.3091 -0.0024  0.1446
15896SOL    HW249557   5.874   2.494   7.003 -1.9341 -0.3718  0.1053
15897SOL     OW49558   3.355   8.470   2.589 -0.4758 -0.2529 -0.6450
15897SOL    HW149559   3.312   8.538   2.537  0.6331  0.8928 -0.1140
15897SOL    HW249560   3.384   8.515   2.668  1.5341 -0.9913 -0.9059
15898SOL     OW49561   2.417   5.628   6.919 -0.1049 -0.3045  0.8475
15898SOL    HW149562   2.412   5.570   6.995  1.5117 -0.9821  0.4958
15898SOL    HW249563   2.505   5.614   6.884 -0.5068  0.6247 -0.6569
15899SOL     OW49564   6.451   0.684   2.403 -0.1610 -0.4774  0.3176
15899SOL    HW149565   6.377   0.667   2.461 -0.3886 -0.2532  0.0945
15899SOL    HW249566   6.464   0.779   2.407 -0.7612 -0.3339 -0.6866
15900SOL     OW49567   7.562   3.472   3.764 -0.3096 -0.1296 -0.6387
15900SOL    HW149568   7.596   3.396   3.810  0.1251  0.2631 -0.3078
15900SOL    HW249569   7.620   3.544   3.789  0.0637  0.0571 -1.9488
15901SOL     OW49570   0.814   6.350   6.996  0.4166  0.6956  0.8062
15901SOL    HW149571   0.889   6.299   7.024 -0.8885 -1.3751  0.7374
15901SOL    HW249572   0.844   6.441   6.998  2.3574  0.0754  2.4432
15902SOL     OW49573   1.576   2.839   3.856 -0.4462 -0.6485 -0.0590
15902SOL    HW149574   1.564   2.753   3.896 -0.6373  0.2497  1.9388
15902SOL    HW249575   1.489   2.879   3.856 -0.5136 -0.7362 -1.7326
15903SOL     OW49576   6.274   1.830   3.889 -0.0408 -0.3090  0.4449
15903SOL    HW149577   6.230   1.748   3.868  0.3024 -0.5666  0.7138
15903SOL    HW249578   6.203   1.892   3.904 -0.3469 -0.9308  1.7178
15904SOL     OW49579   1.135   6.922   0.540  0.1502  0.1953  0.2765
15904SOL    HW149580   1.219   6.955   0.573  0.2176  1.0656 -0.7103
15904SOL    HW249581   1.083   7.000   0.522 -1.0782 -0.3472  1.3249
15905SOL     OW49582   3.029   5.944   6.176  0.1125  0.0058  0.4654
15905SOL    HW149583   3.125   5.946   6.176  0.1184  0.0218 -0.2740
15905SOL    HW249584   3.004   6.023   6.128 -0.2204 -1.1516 -1.3288
15906SOL     OW49585   7.094   8.473   5.601  0.8183  0.0369  0.1765
15906SOL    HW149586   7.187   8.456   5.611  0.6616 -0.3932  0.9800
15906SOL    HW249587   7.052   8.387   5.612  0.3452  0.1614 -0.5263
15907SOL     OW49588   2.251   6.736   3.984 -0.4902 -0.0336  0.7644
15907SOL    HW149589   2.341   6.747   4.015  0.4668  0.6733 -1.9661
15907SOL    HW249590   2.201   6.799   4.035  1.3487  2.5474 -0.3494
15908SOL     OW49591   3.414   2.353   7.367  0.0520 -0.1687  0.6531
15908SOL    HW149592   3.479   2.284   7.349 -1.1559 -1.1287 -0.2286
15908SOL    HW249593   3.343   2.308   7.412 -0.4916  0.6331  0.6185
15909SOL     OW49594   7.375   8.218   3.909 -0.0546 -0.0552  0.5995
15909SOL    HW149595   7.335   8.165   3.978 -0.6915  0.7693  0.8732
15909SOL    HW249596   7.304   8.237   3.848 -0.1798  1.6176  1.2047
15910SOL     OW49597   5.002   4.454   4.669  0.6234 -0.0632  0.1750
15910SOL    HW149598   4.948   4.385   4.629  2.7217 -1.1070 -1.0325
15910SOL    HW249599   5.001   4.524   4.604  0.1042  0.2373  0.5046
15911SOL     OW49600   2.086   2.985   6.201 -0.0166 -0.4838  0.1931
15911SOL    HW149601   1.999   3.012   6.171 -0.5073  1.2618  2.8612
15911SOL    HW249602   2.085   3.000   6.295  3.5178  0.7067  0.2074
15912SOL     OW49603   0.345   5.254   5.332  0.1713  0.4730 -0.6524
15912SOL    HW149604   0.367   5.208   5.251 -1.2268 -0.2396 -0.6566
15912SOL    HW249605   0.325   5.185   5.395  1.6398  1.0150  0.4517
15913SOL     OW49606   4.309   4.181   1.453 -0.3213 -0.1824 -0.0816
15913SOL    HW149607   4.326   4.089   1.470 -0.7383 -0.4590 -1.0835
15913SOL    HW249608   4.214   4.189   1.451 -0.2925  0.3846  0.5680
15914SOL     OW49609   6.975   8.322   8.530 -0.2704  0.7619  0.2998
15914SOL    HW149610   6.938   8.249   8.580 -1.0164  0.6876 -0.3380
15914SOL    HW249611   7.068   8.301   8.522 -0.5212 -0.2544 -0.0902
15915SOL     OW49612   4.808   2.226   6.358 -0.2245 -0.7115 -0.0387
15915SOL    HW149613   4.747   2.177   6.413 -1.1157 -0.0852 -0.4405
15915SOL    HW249614   4.859   2.279   6.418  0.6144 -1.9618  0.3865
15916SOL     OW49615   7.670   3.635   1.867 -0.3800 -0.1643 -0.1738
15916SOL    HW149616   7.643   3.640   1.959 -0.2570 -0.2768 -0.1306
15916SOL    HW249617   7.700   3.544   1.857 -2.2503 -0.7649 -0.8306
15917SOL     OW49618   2.111   1.702   4.857  0.1690 -0.1988  0.3459
15917SOL    HW149619   2.190   1.665   4.897 -0.1358  0.0586  1.1956
15917SOL    HW249620   2.137   1.721   4.767  1.7628  1.9487  1.1792
15918SOL     OW49621   3.599   8.520   3.062  0.1698  0.1191  0.0714
15918SOL    HW149622   3.651   8.586   3.107 -0.6268  0.0657  1.1206
15918SOL    HW249623   3.546   8.480   3.131 -2.4683  1.2854 -1.1341
15919SOL     OW49624   1.545   1.043   6.970  0.0094 -0.5088 -0.2350
15919SOL    HW149625   1.557   1.008   7.058  0.9598 -0.7496 -0.4416
15919SOL    HW249626   1.498   0.974   6.923 -0.9652 -0.1619  0.2161
15920SOL     OW49627   4.031   2.223   1.030  0.1565 -0.5022 -0.3193
15920SOL    HW149628   4.106   2.208   1.088  1.8579  1.5899 -1.7981
15920SOL    HW249629   3.955   2.212   1.086  1.6938  1.1155  2.2940
15921SOL     OW49630   0.212   0.853   2.095 -0.1411 -0.0475  0.5204
15921SOL    HW149631   0.282   0.918   2.092 -0.4711  0.3238  0.7679
15921SOL    HW249632   0.218   0.807   2.011  0.2900  0.0928  0.4718
15922SOL     OW49633   4.689   4.516   6.597 -0.6503  0.6659 -0.7210
15922SOL    HW149634   4.679   4.546   6.506  0.1332  0.2553 -0.9482
15922SOL    HW249635   4.783   4.503   6.608 -0.7257  0.8731  0.2098
15923SOL     OW49636   5.640   0.145   3.180  0.8104 -0.3960  0.3815
15923SOL    HW149637   5.687   0.160   3.262  0.4652 -0.4742  0.5929
15923SOL    HW249638   5.628   0.050   3.177  0.0931 -0.3133  0.6421
15924SOL     OW49639   3.281   8.708   7.674  0.3269  0.0539 -0.5781
15924SOL    HW149640   3.284   8.682   7.766  0.1443 -0.7960 -0.8036
15924SOL    HW249641   3.225   8.643   7.632 -0.0414  0.7532 -1.1929
15925SOL     OW49642   6.410   3.418   0.770  0.0451 -0.2280 -0.2526
15925SOL    HW149643   6.333   3.362   0.763 -0.0865 -0.1865  0.7052
15925SOL    HW249644   6.376   3.507   0.765  0.1070 -0.2189 -0.5027
15926SOL     OW49645   4.467   1.311   6.742  0.2552  0.1078 -0.1960
15926SOL    HW149646   4.374   1.330   6.756 -0.1673 -0.1544 -2.4137
15926SOL    HW249647   4.512   1.371   6.801 -1.2958 -0.2594  1.4734
15927SOL     OW49648   4.576   1.761   1.946 -0.3611  0.0895  1.0617
15927SOL    HW149649   4.637   1.832   1.966 -0.6051  0.4923  0.4091
15927SOL    HW249650   4.528   1.791   1.869  0.8341 -1.5601 -0.4218
15928SOL     OW49651   7.282   5.664   7.117 -0.3363 -0.3607 -0.7079
15928SOL    HW149652   7.192   5.640   7.097 -0.2154  0.4767 -2.4612
15928SOL    HW249653   7.278   5.759   7.132  0.3741 -0.1132 -1.9039
15929SOL     OW49654   7.646   3.838   4.642 -0.0751 -0.3167  0.2211
15929SOL    HW149655   7.630   3.932   4.633 -0.5040 -0.5196 -1.3282
15929SOL    HW249656   7.739   3.827   4.621 -0.2126 -0.3328 -0.3867
15930SOL     OW49657   8.787   5.972   3.051  0.4636 -0.2007  0.4873
15930SOL    HW149658   8.827   5.886   3.035  0.4726 -0.2540  0.7993
15930SOL    HW249659   8.814   6.025   2.976  0.4297 -0.4809  0.2777
15931SOL     OW49660   6.718   8.652   2.621  0.4277 -0.1300 -0.3123
15931SOL    HW149661   6.800   8.620   2.658  0.8656  0.4157 -0.7836
15931SOL    HW249662   6.733   8.655   2.527 -0.3111 -0.5069 -0.4483
15932SOL     OW49663   6.993   3.542   7.884 -0.0221 -0.3912 -0.7883
15932SOL    HW149664   7.007   3.585   7.800 -0.5962  1.6243  0.1104
15932SOL    HW249665   7.001   3.611   7.949 -0.7623 -1.6830  0.7559
15933SOL     OW49666   1.302   2.211   7.070 -0.6560 -0.0416 -0.3063
15933SOL    HW149667   1.357   2.241   6.998 -1.2615  0.1793 -0.6832
15933SOL    HW249668   1.257   2.289   7.101 -0.0312 -0.0481  0.6441
15934SOL     OW49669   4.496   2.775   1.996 -0.0081  0.9730  0.1314
15934SOL    HW149670   4.464   2.713   2.063  0.8732  0.4442  0.0790
15934SOL    HW249671   4.430   2.843   1.993  0.4559  1.5826  2.3324
15935SOL     OW49672   7.109   7.458   7.173  0.4961  0.2768 -0.3365
15935SOL    HW149673   7.038   7.519   7.152 -0.1811 -0.9604 -1.8767
15935SOL    HW249674   7.152   7.496   7.249 -0.7256  1.9721 -0.4419
15936SOL     OW49675   6.518   6.391   5.305  0.5257  0.0287 -0.1914
15936SOL    HW149676   6.576   6.314   5.297  0.6487  0.2010 -1.0647
15936SOL    HW249677   6.566   6.451   5.361  1.2045  0.1657 -0.9048
15937SOL     OW49678   2.413   4.633   4.089  0.0076  0.6773  0.0320
15937SOL    HW149679   2.448   4.635   4.177  2.9863  3.3632 -1.0426
15937SOL    HW249680   2.398   4.540   4.071 -0.0145  0.0110  3.0420
15938SOL     OW49681   4.837   3.581   6.189 -0.2654  0.2914  0.0173
15938SOL    HW149682   4.849   3.486   6.197 -0.8694  0.2685  0.8003
15938SOL    HW249683   4.759   3.590   6.135 -0.6037  0.3254  0.5057
15939SOL     OW49684   5.498   4.319   8.349  0.5429  0.2430  0.3629
15939SOL    HW149685   5.421   4.375   8.339  0.6663  0.2956 -0.3082
15939SOL    HW249686   5.572   4.379   8.339  0.6801 -0.1064 -0.8640
15940SOL     OW49687   4.482   6.123   3.194 -0.0418  0.5992 -0.4678
15940SOL    HW149688   4.555   6.089   3.246 -1.5329 -1.4929  0.4151
15940SOL    HW249689   4.523   6.164   3.118  2.0471 -0.0418  0.2450
15941SOL     OW49690   0.962   1.854   3.658 -0.1308 -0.3719 -0.3295
15941SOL    HW149691   0.983   1.929   3.602 -2.2237  0.4080 -0.1625
15941SOL    HW249692   1.031   1.854   3.724  0.0315  1.2794 -0.4601
15942SOL     OW49693   0.410   6.380   3.372  0.2126  0.1796 -0.4976
15942SOL    HW149694   0.436   6.289   3.386  0.5272  0.3704  0.1785
15942SOL    HW249695   0.393   6.386   3.278  1.2393 -0.3073 -0.7206
15943SOL     OW49696   1.179   2.711   7.159 -0.5165 -0.1030 -0.1408
15943SOL    HW149697   1.147   2.700   7.069  2.0649 -1.3442 -1.0271
15943SOL    HW249698   1.234   2.790   7.155 -0.3673 -0.1788  0.3490
15944SOL     OW49699   6.261   1.810   4.379 -0.3156  0.6285 -0.0245
15944SOL    HW149700   6.225   1.741   4.324 -1.0576  0.8784  0.1399
15944SOL    HW249701   6.350   1.823   4.345 -0.9183  1.1106 -1.4862
15945SOL     OW49702   4.619   6.021   7.351 -0.0245  0.3099  0.3359
15945SOL    HW149703   4.707   5.999   7.382  0.5638  0.2010 -1.2730
15945SOL    HW249704   4.561   5.963   7.401  0.8478  0.0978  1.1402
15946SOL     OW49705   1.836   8.252   5.001 -0.0826 -0.3411 -0.0580
15946SOL    HW149706   1.913   8.202   5.028 -0.8758 -1.7606 -0.3435
15946SOL    HW249707   1.865   8.343   5.004  1.2520 -0.7621  0.9872
15947SOL     OW49708   3.191   8.063   3.791 -0.1732  0.0372  0.4915
15947SOL    HW149709   3.176   8.123   3.864  1.6304  0.6361  0.4129
15947SOL    HW249710   3.171   7.977   3.827 -0.0979  0.4077  1.4427
15948SOL     OW49711   4.757   5.837   5.055  0.2922 -0.4556  0.0433
15948SOL    HW149712   4.818   5.816   5.126  0.5279  2.5036  0.8463
15948SOL    HW249713   4.671   5.818   5.091  0.4329  0.7094  1.0519
15949SOL     OW49714   1.759   4.653   5.368 -0.2147  0.3870  0.1898
15949SOL    HW149715   1.829   4.711   5.395  0.4911  0.1036 -0.9633
15949SOL    HW249716   1.803   4.571   5.345 -1.2587 -1.0504  2.7641
15950SOL     OW49717   7.607   0.735   0.286 -0.1213 -0.8461  0.2656
15950SOL    HW149718   7.587   0.644   0.262 -1.8032 -0.1765 -1.1348
15950SOL    HW249719   7.702   0.738   0.290  0.0292 -2.3483 -1.0483
15951SOL     OW49720   2.456   7.080   8.526 -0.3518 -0.6347 -0.0605
15951SOL    HW149721   2.369   7.119   8.539 -0.4764 -1.0012  0.2153
15951SOL    HW249722   2.444   7.019   8.453 -0.2420 -0.4341 -0.2493
15952SOL     OW49723   3.722   2.915   0.802 -0.1376  0.4056  0.0738
15952SOL    HW149724   3.703   2.922   0.708  0.2401  1.9098  0.0905
15952SOL    HW249725   3.654   2.967   0.844 -0.4003 -0.3943  0.6674
15953SOL     OW49726   4.608   2.447   5.807 -0.0942  0.1023 -0.0452
15953SOL    HW149727   4.687   2.489   5.841 -0.2522  0.1091  0.3106
15953SOL    HW249728   4.551   2.436   5.883 -0.3637 -0.0683 -0.2689
15954SOL     OW49729   6.752   6.485   7.069 -0.0349 -0.8616 -0.2473
15954SOL    HW149730   6.765   6.405   7.121  1.6422  0.2445  1.1306
15954SOL    HW249731   6.828   6.490   7.012 -0.2842 -0.4095 -0.5434
15955SOL     OW49732   8.591   7.088   8.394 -0.2684  0.6838 -0.0335
15955SOL    HW149733   8.628   7.019   8.449  1.5464  1.7251  0.1156
15955SOL    HW249734   8.521   7.126   8.447  1.6434  1.8803  1.7734
15956SOL     OW49735   2.014   1.977   0.598  0.2865  0.9663  0.1273
15956SOL    HW149736   2.000   2.009   0.508  0.9250  1.0538  0.0518
15956SOL    HW249737   2.042   1.886   0.587  0.7450  1.0941  0.2100
15957SOL     OW49738   6.070   1.133   7.864  0.0283  0.3375 -0.1503
15957SOL    HW149739   6.069   1.084   7.782 -1.1935  0.0889 -0.0073
15957SOL    HW249740   6.157   1.118   7.901  0.0935 -0.7084 -0.7129
15958SOL     OW49741   0.488   7.307   1.040  0.2294 -0.3915 -0.0935
15958SOL    HW149742   0.543   7.248   1.091  1.3873  0.1350 -0.6956
15958SOL    HW249743   0.399   7.273   1.051  0.5391 -0.7422  1.6268
15959SOL     OW49744   8.761   0.747   4.289 -0.4266 -0.3976 -0.0203
15959SOL    HW149745   8.668   0.731   4.272  0.4182 -2.4129 -4.0709
15959SOL    HW249746   8.784   0.822   4.234  0.5893 -0.8017 -0.1834
15960SOL     OW49747   2.229   0.841   7.482 -0.0097 -0.0573  0.3684
15960SOL    HW149748   2.205   0.878   7.567 -0.3424 -1.0937  0.7332
15960SOL    HW249749   2.298   0.779   7.502 -0.5001 -0.7432 -0.0355
15961SOL     OW49750   7.825   6.626   0.649 -0.2590 -0.1999 -0.1220
15961SOL    HW149751   7.788   6.652   0.564 -1.3269  1.9705  0.9305
15961SOL    HW249752   7.898   6.686   0.663 -0.6538  0.0581  0.8851
15962SOL     OW49753   7.266   5.587   7.874  0.1021 -0.0437  0.0534
15962SOL    HW149754   7.252   5.559   7.784 -2.1587 -1.2098  0.7077
15962SOL    HW249755   7.188   5.637   7.897  0.5652  0.0932  1.4478
15963SOL     OW49756   3.907   4.906   1.247 -0.1273  0.2668  0.5514
15963SOL    HW149757   3.859   4.888   1.166  0.5697 -0.1762  0.2245
15963SOL    HW249758   3.863   4.854   1.313 -0.4200  0.2689  0.3600
15964SOL     OW49759   5.530   7.932   7.823 -0.1876  0.3781 -0.5503
15964SOL    HW149760   5.549   7.982   7.743  1.8814  0.5974  0.0337
15964SOL    HW249761   5.476   7.860   7.792 -1.5306  1.8027 -1.7395
15965SOL     OW49762   5.507   5.023   5.564 -0.0425 -0.2132 -0.0568
15965SOL    HW149763   5.419   5.048   5.535 -0.6151 -1.0203  0.9487
15965SOL    HW249764   5.519   5.068   5.647  1.1947  1.2650 -0.9699
15966SOL     OW49765   2.323   8.247   7.338 -0.1680 -0.0943 -0.2120
15966SOL    HW149766   2.307   8.283   7.425 -1.1301 -1.6618  0.3025
15966SOL    HW249767   2.333   8.152   7.353 -0.9609 -0.4693 -1.8575
15967SOL     OW49768   5.082   6.172   4.531  0.3861  0.0719 -0.1288
15967SOL    HW149769   5.147   6.240   4.514  0.9591 -0.6297 -0.7679
15967SOL    HW249770   5.117   6.123   4.605  0.6371 -0.3713 -0.5403
15968SOL     OW49771   7.173   4.826   2.947  0.1049 -0.6465 -0.2087
15968SOL    HW149772   7.111   4.834   3.020  0.3423 -0.9834  0.0302
15968SOL    HW249773   7.158   4.905   2.895  1.5692  0.8766  1.4839
15969SOL     OW49774   7.563   6.456   4.595 -0.2930 -0.2368  0.7304
15969SOL    HW149775   7.474   6.487   4.575 -0.3440 -1.1274 -0.5200
15969SOL    HW249776   7.573   6.472   4.689 -1.6317  0.2303  0.8182
15970SOL     OW49777   0.849   3.639   0.493 -0.3922  0.9579  0.2646
15970SOL    HW149778   0.844   3.558   0.443  2.1690  1.6480 -1.2840
15970SOL    HW249779   0.827   3.614   0.583  1.2374 -1.6520  0.0141
15971SOL     OW49780   2.847   7.555   3.156  0.1032  0.6681 -0.7901
15971SOL    HW149781   2.940   7.531   3.151 -0.0837 -0.3596  0.2639
15971SOL    HW249782   2.835   7.581   3.248 -0.6548  0.7849 -0.9238
15972SOL     OW49783   3.111   5.387   5.674 -0.1344  0.7823 -0.1223
15972SOL    HW149784   3.086   5.449   5.606 -0.5961 -0.9957 -1.6363
15972SOL    HW249785   3.058   5.309   5.657  1.8739 -0.7919  0.4433
15973SOL     OW49786   5.368   5.802   7.313  0.1966 -0.0041 -0.3569
15973SOL    HW149787   5.318   5.838   7.385 -0.5260 -0.4305 -0.6307
15973SOL    HW249788   5.445   5.763   7.354 -0.7149 -1.1552  0.3173
15974SOL     OW49789   6.930   8.512   7.225 -0.0208  0.0366  0.2395
15974SOL    HW149790   7.015   8.469   7.237 -0.5871 -1.3274 -0.4591
15974SOL    HW249791   6.937   8.594   7.275  1.3879 -0.4635  0.8983
15975SOL     OW49792   8.770   8.019   1.221  0.1050  0.3712 -0.1957
15975SOL    HW149793   8.715   7.944   1.197  0.1207  0.1661  0.3961
15975SOL    HW249794   8.719   8.066   1.287 -0.7855  2.0049 -1.9517
15976SOL     OW49795   6.502   6.923   8.805 -0.1897  0.4027  0.1212
15976SOL    HW149796   6.451   6.861   8.754 -1.1332  0.7237  0.6498
15976SOL    HW249797   6.554   6.868   8.865  1.0802  0.0162 -1.2771
15977SOL     OW49798   2.477   7.047   5.458  0.1616  0.2739 -0.2614
15977SOL    HW149799   2.449   7.066   5.369  0.5246  1.8650 -0.0770
15977SOL    HW249800   2.455   6.955   5.472  0.1639 -0.0133 -2.0008
15978SOL     OW49801   4.303   1.074   0.720  0.0258 -0.0121  0.3088
15978SOL    HW149802   4.234   1.069   0.653 -0.5167 -1.4523  0.9417
15978SOL    HW249803   4.274   1.143   0.780  1.1583  2.2677 -1.5606
15979SOL     OW49804   7.369   0.320   0.828 -0.1219  0.0752 -0.4509
15979SOL    HW149805   7.382   0.232   0.791 -1.4784 -0.4891  0.3343
15979SOL    HW249806   7.443   0.371   0.796  0.7812 -1.4034 -0.8012
15980SOL     OW49807   4.995   6.795   8.118 -0.3023 -0.2230  0.4538
15980SOL    HW149808   4.945   6.796   8.199  2.0607  0.8015  1.9873
15980SOL    HW249809   5.031   6.706   8.112 -0.0229 -0.1338  0.8222
15981SOL     OW49810   6.291   4.005   8.285 -0.2982 -0.5282 -0.5396
15981SOL    HW149811   6.278   4.042   8.373 -0.1408 -2.6758  0.4557
15981SOL    HW249812   6.386   4.010   8.272 -0.2223 -1.0133 -0.1974
15982SOL     OW49813   6.988   2.698   4.260 -0.4156  0.3736 -0.7246
15982SOL    HW149814   6.909   2.645   4.267  0.2760 -0.5863  0.2026
15982SOL    HW249815   6.996   2.739   4.346 -0.4191  1.2387 -1.1266
15983SOL     OW49816   7.619   1.405   6.026 -0.3585  1.0127  0.3384
15983SOL    HW149817   7.553   1.342   6.055 -0.2821  1.5423  1.7505
15983SOL    HW249818   7.657   1.367   5.947 -3.2045  1.2652 -1.2782
15984SOL     OW49819   1.743   4.100   1.201 -0.2711  0.3277  0.7174
15984SOL    HW149820   1.798   4.149   1.140 -0.6195  1.4008  1.2378
15984SOL    HW249821   1.655   4.108   1.166 -0.1793 -1.0488  0.1075
15985SOL     OW49822   8.370   7.462   6.097 -0.5303 -0.0635  0.0562
15985SOL    HW149823   8.302   7.521   6.130 -0.6209  0.5601 -1.1671
15985SOL    HW249824   8.452   7.500   6.128 -0.7247 -1.6470  2.8363
15986SOL     OW49825   4.541   6.888   6.501 -0.8531  0.4685 -0.4122
15986SOL    HW149826   4.477   6.826   6.533 -0.9506  0.8081  0.0672
15986SOL    HW249827   4.549   6.870   6.407  0.0116 -1.0600 -0.0661
15987SOL     OW49828   5.832   5.299   2.992  0.3545  0.2808 -0.5658
15987SOL    HW149829   5.923   5.271   2.986  0.3121 -0.6759  2.0157
15987SOL    HW249830   5.836   5.386   3.032  0.1851  1.4229 -2.8658
15988SOL     OW49831   7.315   5.921   4.079  0.1899  0.2471 -0.1078
15988SOL    HW149832   7.312   5.932   4.174  1.0026 -0.3136  0.0001
15988SOL    HW249833   7.341   6.006   4.046  0.0479  0.4059  0.1862
15989SOL     OW49834   0.725   0.056   0.704 -0.1941 -0.1544 -0.2513
15989SOL    HW149835   0.764   0.003   0.633 -1.7059 -0.6310 -0.7658
15989SOL    HW249836   0.671   0.120   0.659 -1.4823 -0.7071  0.4683
15990SOL     OW49837   5.328   0.739   2.261  0.4917 -0.0513  0.3658
15990SOL    HW149838   5.370   0.702   2.184  0.0855 -1.2112  0.6818
15990SOL    HW249839   5.234   0.736   2.241  0.4572  1.1108  0.2772
15991SOL     OW49840   6.515   2.089   5.598 -0.4616  0.1520 -0.0135
15991SOL    HW149841   6.536   2.182   5.604 -0.4424  0.3647 -2.4048
15991SOL    HW249842   6.533   2.055   5.686 -0.5163  2.3829  0.9403
15992SOL     OW49843   4.836   4.118   2.347 -0.1922 -0.0148 -0.1332
15992SOL    HW149844   4.847   4.033   2.305  0.5207 -0.4931  0.9845
15992SOL    HW249845   4.900   4.118   2.418 -1.0199  0.9673  0.6353
15993SOL     OW49846   0.127   1.513   1.467 -0.3338  1.2068 -0.3146
15993SOL    HW149847   0.169   1.598   1.458  0.6506  0.7675 -0.0724
15993SOL    HW249848   0.093   1.494   1.379  3.1992 -0.0038 -1.6425
15994SOL     OW49849   2.720   0.683   0.022 -0.5387  0.1461  0.2440
15994SOL    HW149850   2.641   0.736   0.035  0.0814  1.8169 -2.1759
15994SOL    HW249851   2.764   0.723  -0.052  1.8726 -1.6445  0.5890
15995SOL     OW49852   3.961   7.563   5.639 -0.9531  0.1649 -0.3335
15995SOL    HW149853   3.889   7.501   5.635 -0.9271  0.2047 -2.0514
15995SOL    HW249854   4.009   7.550   5.558  0.6208  0.5820  0.4890
15996SOL     OW49855   3.038   8.974   3.069  0.5925 -0.1679 -0.2581
15996SOL    HW149856   3.058   8.903   3.008  2.0062 -0.3085  0.3542
15996SOL    HW249857   3.048   8.936   3.156 -0.2509  0.3524  0.0814
15997SOL     OW49858   1.962   2.095   3.679  0.1819 -0.1992  0.2427
15997SOL    HW149859   2.015   2.023   3.646 -0.1595 -1.6668  2.6097
15997SOL    HW249860   1.950   2.153   3.604  1.6692 -1.8725 -1.3932
15998SOL     OW49861   2.659   8.625   1.684 -0.0982 -0.3023 -0.1292
15998SOL    HW149862   2.566   8.645   1.685 -0.1432 -0.1717  2.6927
15998SOL    HW249863   2.694   8.671   1.762  2.0273 -1.5375 -0.2716
15999SOL     OW49864   8.417   8.921   8.558 -0.4721 -0.2879 -0.2769
15999SOL    HW149865   8.339   8.932   8.503  0.4378 -2.0252 -2.0404
15999SOL    HW249866   8.407   8.834   8.596 -0.3362  0.2890  1.1325
16000SOL     OW49867   5.746   3.766   6.988 -0.1554  0.2993  0.3758
16000SOL    HW149868   5.746   3.834   7.056  1.3049  1.4887 -0.7307
16000SOL    HW249869   5.739   3.815   6.906 -4.0004 -1.1874 -0.3977
16001SOL     OW49870   4.753   6.781   2.172 -0.1992 -0.7196 -0.6385
16001SOL    HW149871   4.756   6.799   2.266  0.2927 -1.5329 -0.4813
16001SOL    HW249872   4.660   6.765   2.153 -0.1092 -2.3565  0.1003
16002SOL     OW49873   6.315   6.196   1.154  0.2168  0.1669 -0.1728
16002SOL    HW149874   6.325   6.189   1.249  2.0746 -0.6023 -0.3991
16002SOL    HW249875   6.261   6.274   1.142 -1.4009 -0.5930  1.5498
16003SOL     OW49876   6.212   6.423   2.526  0.5174 -0.1463 -0.4489
16003SOL    HW149877   6.233   6.360   2.595 -0.4513 -1.0716 -0.9873
16003SOL    HW249878   6.159   6.490   2.570  1.1224  0.0399  0.0099
16004SOL     OW49879   7.484   0.687   7.105  0.3511 -0.0386 -0.0057
16004SOL    HW149880   7.542   0.699   7.030  0.9161  0.0705  0.4380
16004SOL    HW249881   7.543   0.688   7.180 -0.1936 -0.3013  0.4254
16005SOL     OW49882   8.480   7.784   4.669  0.1316 -0.6385 -0.2497
16005SOL    HW149883   8.515   7.825   4.591 -1.2669  2.9629  0.8000
16005SOL    HW249884   8.394   7.752   4.643 -0.5776  1.0736 -0.1652
16006SOL     OW49885   1.567   2.927   6.821  0.4527  0.0740 -0.2868
16006SOL    HW149886   1.661   2.925   6.840  0.3165 -1.2183  0.3965
16006SOL    HW249887   1.550   2.842   6.779 -0.4252  0.2695 -0.3360
16007SOL     OW49888   2.111   0.524   0.659  0.0417 -0.5587 -0.0035
16007SOL    HW149889   2.138   0.615   0.668 -0.6109 -0.3709  0.1119
16007SOL    HW249890   2.050   0.525   0.585  0.4185 -0.9897 -0.3261
16008SOL     OW49891   5.203   4.618   4.232  0.1273  0.1136 -0.3085
16008SOL    HW149892   5.256   4.558   4.181  2.9037 -0.8396  3.2631
16008SOL    HW249893   5.120   4.573   4.245  0.8017 -1.3051 -0.7784
16009SOL     OW49894   1.412   1.502   8.130  0.4700 -0.6557  0.4102
16009SOL    HW149895   1.339   1.501   8.068  1.4560 -0.8079 -0.7809
16009SOL    HW249896   1.371   1.488   8.215 -1.0236  0.5574 -0.0746
16010SOL     OW49897   5.833   6.662   6.393  0.1133  0.4821  0.6876
16010SOL    HW149898   5.805   6.572   6.410  1.9222 -0.2375  0.0614
16010SOL    HW249899   5.781   6.688   6.317 -2.3207  0.9630  2.3872
16011SOL     OW49900   3.878   1.832   7.130 -0.6830  0.2578  0.1902
16011SOL    HW149901   3.909   1.769   7.196  0.3140  1.4823  0.9412
16011SOL    HW249902   3.862   1.912   7.179 -0.3597  1.0657 -0.9904
16012SOL     OW49903   7.733   1.912   3.794  0.6434  0.0735 -0.3266
16012SOL    HW149904   7.756   1.909   3.887  0.6356  1.0658 -0.2824
16012SOL    HW249905   7.667   1.981   3.788 -1.1761 -1.6218 -0.7045
16013SOL     OW49906   5.014   7.946   4.937 -0.0224  0.0717  0.2299
16013SOL    HW149907   5.080   7.970   4.873 -1.2575  1.6407 -0.5328
16013SOL    HW249908   5.040   7.859   4.968  2.2437  0.5573 -0.1707
16014SOL     OW49909   0.545   3.526   2.291 -0.0916  0.7037  0.2718
16014SOL    HW149910   0.580   3.491   2.373 -0.8129 -1.1962 -0.1685
16014SOL    HW249911   0.616   3.517   2.229 -0.0118  0.7811  0.3515
16015SOL     OW49912   8.531   8.265   5.313 -0.0499  0.2209  0.2514
16015SOL    HW149913   8.501   8.247   5.223  1.5299 -0.5916 -0.1397
16015SOL    HW249914   8.455   8.245   5.367 -0.9438  0.4361 -0.8644
16016SOL     OW49915   6.028   7.763   2.494 -0.0285  0.0057  0.1676
16016SOL    HW149916   5.996   7.853   2.502 -0.4579 -0.0780 -0.4911
16016SOL    HW249917   6.052   7.738   2.583  0.7154  0.9930  0.2596
16017SOL     OW49918   3.990   8.630   7.415  0.4363 -0.1463  0.0346
16017SOL    HW149919   3.946   8.657   7.496  0.1477  0.0331 -0.1801
16017SOL    HW249920   3.969   8.537   7.406 -1.9149  0.4425 -1.3109
16018SOL     OW49921   5.234   2.890   6.882  0.2931 -0.0487  0.2977
16018SOL    HW149922   5.192   2.959   6.934  3.0694  0.9921  1.3987
16018SOL    HW249923   5.242   2.816   6.942 -0.3367 -0.3889 -0.0374
16019SOL     OW49924   8.507   0.731   2.902  0.0221  0.8121  0.2017
16019SOL    HW149925   8.545   0.665   2.960  0.3812 -0.4415 -1.3660
16019SOL    HW249926   8.527   0.814   2.944  0.9138 -0.0081  1.4880
16020SOL     OW49927   4.496   6.837   5.356 -0.5486 -0.0902  0.4593
16020SOL    HW149928   4.412   6.839   5.310 -0.3875  0.8073  0.1819
16020SOL    HW249929   4.497   6.752   5.401 -2.0330  0.2725  1.2444
16021SOL     OW49930   5.288   4.486   1.700  0.1219  0.2385  0.7472
16021SOL    HW149931   5.271   4.422   1.769 -0.7468 -0.8772 -0.4422
16021SOL    HW249932   5.203   4.528   1.686 -0.9204 -2.4100 -2.3487
16022SOL     OW49933   0.792   5.495   1.779  0.4654  0.1443 -0.1881
16022SOL    HW149934   0.719   5.467   1.835  1.5747  1.2637  1.9369
16022SOL    HW249935   0.836   5.413   1.755 -1.3588 -0.5471 -1.4499
16023SOL     OW49936   0.528   7.644   0.745 -0.8557  0.1938  0.5322
16023SOL    HW149937   0.540   7.626   0.838  1.5037 -0.5626  0.1393
16023SOL    HW249938   0.482   7.568   0.711 -0.6286 -0.0875  0.8557
16024SOL     OW49939   1.726   4.330   8.598  0.0051  0.0708 -0.9597
16024SOL    HW149940   1.736   4.239   8.624  0.8107 -0.2324 -2.2136
16024SOL    HW249941   1.649   4.330   8.541 -1.6848  0.7057  1.2166
16025SOL     OW49942   4.048   0.556   8.871  0.5725  0.5029  0.4352
16025SOL    HW149943   4.112   0.536   8.802 -0.1301  2.4308 -0.8677
16025SOL    HW249944   4.007   0.638   8.843 -1.7366 -0.1018  1.7643
16026SOL     OW49945   4.151   5.914   6.330 -0.0222 -0.1329 -0.4322
16026SOL    HW149946   4.097   5.990   6.311 -1.0726 -0.6256  0.4411
16026SOL    HW249947   4.134   5.854   6.256 -1.4270 -0.6554  0.2688
16027SOL     OW49948   8.747   4.483   1.210  0.7494  0.5803 -0.1065
16027SOL    HW149949   8.687   4.557   1.200  1.0156  1.0427  1.4800
16027SOL    HW249950   8.782   4.469   1.122 -2.3759 -0.3669 -1.3561
16028SOL     OW49951   3.809   7.725   0.354 -0.2907  0.4265  0.3830
16028SOL    HW149952   3.745   7.718   0.426 -0.5805  0.5958  0.1436
16028SOL    HW249953   3.883   7.671   0.383 -0.5594  0.1929  0.6447
16029SOL     OW49954   8.215   0.646   4.195  0.2045  0.1210  0.9302
16029SOL    HW149955   8.151   0.595   4.146  1.4999 -0.0559 -0.6749
16029SOL    HW249956   8.172   0.667   4.277 -0.8936 -2.3491  1.0597
16030SOL     OW49957   6.628   0.358   2.252 -0.3540 -0.0980  0.3365
16030SOL    HW149958   6.542   0.358   2.209 -1.6702 -0.7134  2.7826
16030SOL    HW249959   6.636   0.446   2.288 -0.1890 -0.2066  0.5609
16031SOL     OW49960   0.608   5.254   2.741  0.2153 -0.1192 -0.1346
16031SOL    HW149961   0.586   5.332   2.690  0.2058 -0.1264 -0.1416
16031SOL    HW249962   0.682   5.282   2.796  0.0538 -0.0362  0.0411
16032SOL     OW49963   8.462   8.850   1.715  0.0301  0.2800 -0.4604
16032SOL    HW149964   8.402   8.800   1.660 -0.9042 -1.4620  1.9755
16032SOL    HW249965   8.407   8.887   1.784  1.4609  0.2460  0.7632
16033SOL     OW49966   2.441   7.932   6.053  0.0378 -0.2092  0.1909
16033SOL    HW149967   2.366   7.982   6.083 -0.4370  0.9824 -2.6104
16033SOL    HW249968   2.493   7.916   6.132 -2.1954  0.5445  1.9071
16034SOL     OW49969   3.738   7.021   1.505  0.4000  0.1877 -0.2406
16034SOL    HW149970   3.731   6.930   1.534 -1.8037 -0.1633 -1.6595
16034SOL    HW249971   3.794   7.017   1.427  0.1716  0.0064 -0.3978
16035SOL     OW49972   5.746   4.646   4.004 -0.3329  0.4229  0.2044
16035SOL    HW149973   5.670   4.701   3.983 -0.6572 -0.2965 -0.5412
16035SOL    HW249974   5.773   4.675   4.092 -0.7623  1.4650  0.0043
16036SOL     OW49975   0.755   7.977   1.752 -0.1030 -0.2231 -0.1763
16036SOL    HW149976   0.720   8.007   1.668 -0.5126 -1.2888 -0.4012
16036SOL    HW249977   0.830   7.922   1.729 -2.2276 -3.4188 -0.1378
16037SOL     OW49978   4.987   4.934   3.989  0.5169  0.1334 -0.0443
16037SOL    HW149979   4.973   4.976   4.074 -1.9811 -1.7173  0.5743
16037SOL    HW249980   4.945   4.992   3.926 -1.2372 -0.4343  0.5529
16038SOL     OW49981   3.704   1.692   1.906 -0.6866  0.2040 -0.6685
16038SOL    HW149982   3.702   1.596   1.902 -1.8865  0.1918 -0.1871
16038SOL    HW249983   3.788   1.715   1.867 -0.9790 -0.9750 -2.1033
16039SOL     OW49984   2.691   5.346   2.222  0.3849  0.0259 -0.0304
16039SOL    HW149985   2.616   5.287   2.222  1.1534 -1.0114  1.2127
16039SOL    HW249986   2.672   5.410   2.154 -1.4027 -0.4808 -0.0474
16040SOL     OW49987   1.543   4.306   0.564 -0.4304 -0.0734 -0.0928
16040SOL    HW149988   1.569   4.220   0.530  0.0403 -0.1800  0.5204
16040SOL    HW249989   1.465   4.329   0.514  1.3789  0.7367 -2.7547
16041SOL     OW49990   0.739   8.609   1.010 -0.8568 -0.2524  0.2319
16041SOL    HW149991   0.710   8.667   1.080 -1.2564  0.5438 -0.5710
16041SOL    HW249992   0.767   8.529   1.055 -0.9589  0.2936  1.3033
16042SOL     OW49993   5.395   6.521   2.672  0.2422 -0.1850 -0.2535
16042SOL    HW149994   5.341   6.477   2.738 -0.0110 -0.0018 -0.3399
16042SOL    HW249995   5.383   6.614   2.688  0.0955 -0.1375 -0.6289
16043SOL     OW49996   3.405   4.748   4.274 -0.6269  0.2766  0.3102
16043SOL    HW149997   3.415   4.795   4.191 -2.6613  0.9402  0.3862
16043SOL    HW249998   3.408   4.656   4.249 -0.6643  0.4638 -0.4374
16044SOL     OW49999   1.751   1.996   5.904 -0.3570  0.4681 -0.3188
16044SOL    HW150000   1.710   1.950   5.977  1.2217  1.3993  1.2430
16044SOL    HW250001   1.740   1.938   5.829  0.3526 -1.8275  1.2519
16045SOL     OW50002   0.996   4.985   0.194  0.2858 -0.0541 -0.7897
16045SOL    HW150003   1.018   5.062   0.143  0.8970  0.4443  0.2066
16045SOL    HW250004   0.904   4.998   0.218 -0.3056 -0.7427 -2.5013
16046SOL     OW50005   4.073   7.271   2.689 -0.4166 -0.4601  0.1297
16046SOL    HW150006   4.026   7.280   2.606  1.0835 -0.3577 -0.7580
16046SOL    HW250007   4.068   7.178   2.710 -1.0468 -0.4407  0.0777
16047SOL     OW50008   0.789   4.229   5.123  0.6553  0.5240 -0.4401
16047SOL    HW150009   0.739   4.305   5.095 -1.5689  0.3978  2.7471
16047SOL    HW250010   0.872   4.265   5.155 -0.0552  1.5270  0.2989
16048SOL     OW50011   1.874   1.471   3.639  0.1731 -0.0129 -0.3383
16048SOL    HW150012   1.948   1.518   3.675 -0.9444  1.0365  0.6865
16048SOL    HW250013   1.816   1.539   3.605 -0.1352 -0.8298 -1.5108
16049SOL     OW50014   1.694   7.739   5.808  0.0558 -0.4945 -0.1353
16049SOL    HW150015   1.738   7.726   5.724 -0.7830  1.4830 -0.9570
16049SOL    HW250016   1.740   7.814   5.847 -1.9096  1.0822 -0.6410
16050SOL     OW50017   4.508   2.777   3.582  0.0039  0.7022  0.0049
16050SOL    HW150018   4.514   2.755   3.675 -0.0342 -0.5794 -0.2879
16050SOL    HW250019   4.499   2.693   3.538 -0.7489  1.3470 -1.1071
16051SOL     OW50020   2.148   2.219   6.379 -0.0226 -0.7419  0.1699
16051SOL    HW150021   2.210   2.253   6.443  0.9987 -1.5042 -0.3633
16051SOL    HW250022   2.082   2.173   6.431 -0.2948  0.3002  0.7661
16052SOL     OW50023   1.898   1.951   6.736 -0.1694  0.4749 -0.1416
16052SOL    HW150024   1.831   1.885   6.714 -0.2219  0.5877 -0.3182
16052SOL    HW250025   1.869   1.986   6.820  0.3099 -0.3261  0.3769
16053SOL     OW50026   5.605   8.020   8.695  0.1175  0.2591  0.2811
16053SOL    HW150027   5.662   8.073   8.639  0.3337  1.3032  1.4474
16053SOL    HW250028   5.666   7.961   8.740  0.1540  0.5477  0.6209
16054SOL     OW50029   4.875   0.789   4.971  0.0790 -0.0052 -0.5272
16054SOL    HW150030   4.958   0.762   4.933 -0.6566  0.0519 -2.2826
16054SOL    HW250031   4.897   0.864   5.027  1.1039  0.5445 -1.6347
16055SOL     OW50032   0.639   7.132   7.995  0.0269 -0.8431 -0.3171
16055SOL    HW150033   0.667   7.102   7.909  2.9369  0.0030  0.2250
16055SOL    HW250034   0.551   7.167   7.981 -0.2109 -2.1803 -2.5790
16056SOL     OW50035   7.690   7.043   0.984  0.0907 -0.0451  0.3740
16056SOL    HW150036   7.753   6.975   1.003  0.5309  0.3771  0.4372
16056SOL    HW250037   7.618   7.028   1.046 -0.2178 -0.9683 -0.1841
16057SOL     OW50038   2.968   1.021   1.829 -0.6898 -0.2520  0.0362
16057SOL    HW150039   2.877   1.045   1.810 -0.3459  0.7691 -0.4329
16057SOL    HW250040   2.961   0.949   1.891 -1.8260 -0.7467 -0.6231
16058SOL     OW50041   7.197   3.742   5.891 -0.1802 -0.0736  0.0060
16058SOL    HW150042   7.195   3.738   5.987 -1.2236  0.9389  0.0485
16058SOL    HW250043   7.210   3.835   5.871  0.0409 -0.2769 -0.8452
16059SOL     OW50044   2.389   3.217   5.150 -0.0354 -0.5005  0.0870
16059SOL    HW150045   2.366   3.124   5.148  0.7186 -0.6907 -1.2331
16059SOL    HW250046   2.310   3.261   5.182  0.2442 -1.7404  2.8108
16060SOL     OW50047   6.799   0.095   5.788 -0.2919 -0.4616 -0.1350
16060SOL    HW150048   6.715   0.056   5.811 -0.6315  1.1727  1.6283
16060SOL    HW250049   6.858   0.066   5.858  0.4197 -0.9119 -0.9056
16061SOL     OW50050   0.751   0.488   6.600  0.2380  0.3026  1.0922
16061SOL    HW150051   0.737   0.397   6.573  1.4444  0.2688  0.5077
16061SOL    HW250052   0.673   0.510   6.651 -0.3817 -0.8401  0.6816
16062SOL     OW50053   7.763   1.979   0.369  0.6496 -0.0804  0.7463
16062SOL    HW150054   7.779   1.885   0.371  3.4189  0.3015  0.4259
16062SOL    HW250055   7.809   2.009   0.290 -2.4323  1.2441 -0.7049
16063SOL     OW50056   7.407   7.920   2.859  0.3016  0.0340 -0.3645
16063SOL    HW150057   7.479   7.907   2.920 -0.5632 -0.9691  0.4776
16063SOL    HW250058   7.449   7.955   2.780  1.6866 -0.3716  0.1579
16064SOL     OW50059   3.675   5.523   3.403  0.1432 -0.4839  0.6683
16064SOL    HW150060   3.703   5.531   3.494  0.5544  2.5037  0.3775
16064SOL    HW250061   3.747   5.560   3.352 -0.7301 -0.6671 -0.7594
16065SOL     OW50062   8.936   5.546   4.928  0.1356 -0.1657 -0.2144
16065SOL    HW150063   8.842   5.564   4.928  0.2169  0.2493  0.1791
16065SOL    HW250064   8.969   5.591   4.850  0.1546  0.4673  0.1525
16066SOL     OW50065   8.368   2.568   7.283 -0.0971  0.5433  0.6266
16066SOL    HW150066   8.275   2.564   7.307 -0.9134  1.1822 -2.1152
16066SOL    HW250067   8.397   2.477   7.284 -1.9600 -0.2363 -2.4280
16067SOL     OW50068   3.737   3.273   3.396 -0.9561  0.5169  0.1770
16067SOL    HW150069   3.786   3.328   3.457  2.1291 -1.3714 -0.3883
16067SOL    HW250070   3.728   3.327   3.318 -0.2217  1.1189  0.4861
16068SOL     OW50071   5.735   7.195   7.571 -0.1899 -1.0680 -0.5515
16068SOL    HW150072   5.685   7.276   7.563  0.4912 -0.4695  0.8506
16068SOL    HW250073   5.778   7.184   7.486  0.4758  0.5684 -0.4660
16069SOL     OW50074   5.252   8.422   4.719  0.4690 -0.2672  0.4296
16069SOL    HW150075   5.163   8.419   4.683  0.6627  1.3490 -0.2568
16069SOL    HW250076   5.251   8.359   4.791 -1.6129  0.6658  1.2812
16070SOL     OW50077   5.026   3.761   3.502  0.0653  0.0993 -0.4074
16070SOL    HW150078   4.987   3.837   3.459  0.6656 -0.1564 -1.4257
16070SOL    HW250079   4.967   3.689   3.483  0.1917  0.0397 -0.5732
16071SOL     OW50080   4.914   8.355   8.610 -0.1612  0.1533 -0.7547
16071SOL    HW150081   4.916   8.406   8.529  1.1671  0.6355 -0.4392
16071SOL    HW250082   5.003   8.362   8.645 -1.3903  2.4632  2.3205
16072SOL     OW50083   5.175   3.552   0.377 -0.2475 -0.0603  0.0932
16072SOL    HW150084   5.148   3.602   0.453  1.6966  0.1398  0.7014
16072SOL    HW250085   5.227   3.613   0.324  1.3572 -1.1109  0.3766
16073SOL     OW50086   6.321   6.175   3.499  0.0129 -0.4469 -0.0558
16073SOL    HW150087   6.415   6.167   3.517  0.1787 -2.1330 -1.4442
16073SOL    HW250088   6.301   6.267   3.518  1.7137 -0.3048  1.2452
16074SOL     OW50089   8.197   3.520   6.258 -0.5317 -0.2156  0.0683
16074SOL    HW150090   8.171   3.453   6.321 -0.2707 -0.9855 -0.6265
16074SOL    HW250091   8.204   3.473   6.175  1.4301  0.2926 -0.0947
16075SOL     OW50092   0.316   0.278   6.377 -0.1633  0.1341 -0.5645
16075SOL    HW150093   0.241   0.325   6.415 -0.7627 -0.6067 -0.8110
16075SOL    HW250094   0.296   0.186   6.389  1.8258 -0.1109  1.5024
16076SOL     OW50095   1.002   1.788   2.762 -0.3293  0.2686 -0.1260
16076SOL    HW150096   0.915   1.829   2.755  0.1667  1.4993  0.4853
16076SOL    HW250097   1.012   1.739   2.681 -1.6357  0.0322 -0.1694
16077SOL     OW50098   4.037   0.520   3.338  0.9416 -0.8204  0.1657
16077SOL    HW150099   4.123   0.547   3.304  1.0265 -2.3605 -0.9885
16077SOL    HW250100   3.998   0.470   3.266 -0.4484 -1.1167  1.0895
16078SOL     OW50101   8.018   7.460   2.058 -0.3775 -0.6210  0.0251
16078SOL    HW150102   7.984   7.371   2.048 -0.2405 -0.6632 -0.0659
16078SOL    HW250103   8.111   7.449   2.074 -0.7123 -0.6160  2.4041
16079SOL     OW50104   6.259   8.370   2.100  0.3026  0.4467 -0.5335
16079SOL    HW150105   6.327   8.328   2.047  0.7550 -0.0360  0.3934
16079SOL    HW250106   6.259   8.321   2.182 -0.4620  1.0948 -0.1288
16080SOL     OW50107   1.444   2.668   2.311 -0.6741  0.2721  0.1974
16080SOL    HW150108   1.537   2.687   2.297  0.3003 -3.4984  0.6363
16080SOL    HW250109   1.427   2.694   2.401 -0.0083  0.7720  0.1821
16081SOL     OW50110   4.121   1.001   7.067  0.3824 -0.4027 -0.3487
16081SOL    HW150111   4.100   1.071   7.005 -1.0972 -0.5103 -0.0146
16081SOL    HW250112   4.125   1.046   7.152 -1.5758 -0.8163  0.0178
16082SOL     OW50113   2.633   1.411   6.844 -0.0329 -0.3391  0.1867
16082SOL    HW150114   2.688   1.383   6.918 -0.5089 -0.8816  0.3411
16082SOL    HW250115   2.554   1.444   6.886 -1.4499 -3.0702 -0.1092
16083SOL     OW50116   0.315   0.267   5.299  0.5292 -0.2551  0.3848
16083SOL    HW150117   0.358   0.215   5.366  0.0257  0.8720  1.6368
16083SOL    HW250118   0.313   0.211   5.222 -0.7071 -2.3935  1.8799
16084SOL     OW50119   2.734   8.565   4.760 -0.0168  0.3775 -0.0754
16084SOL    HW150120   2.827   8.585   4.748  0.1048 -0.3458 -0.4084
16084SOL    HW250121   2.732   8.474   4.788 -0.5196  0.9603  1.9810
16085SOL     OW50122   3.545   5.955   1.570  0.5549 -0.3728 -0.3185
16085SOL    HW150123   3.573   5.864   1.583  0.5264 -0.6445 -1.9683
16085SOL    HW250124   3.450   5.951   1.571  0.5407 -0.5359 -1.3570
16086SOL     OW50125   2.003   5.366   1.826 -0.3966 -0.2580  0.2370
16086SOL    HW150126   1.926   5.405   1.868 -1.7798 -2.7013  0.1169
16086SOL    HW250127   1.996   5.393   1.734 -0.9246 -0.1615  0.3001
16087SOL     OW50128   6.629   6.492   0.768 -0.0518  0.1004  0.2859
16087SOL    HW150129   6.585   6.568   0.805  0.3528 -0.0003  0.9887
16087SOL    HW250130   6.687   6.461   0.838  2.1482  1.0081 -1.0235
16088SOL     OW50131   8.085   4.674   4.142  0.2402 -0.4434 -0.5023
16088SOL    HW150132   8.068   4.685   4.236  0.2421 -3.1737 -0.1050
16088SOL    HW250133   8.171   4.632   4.138 -0.0929 -1.0408 -1.6921
16089SOL     OW50134   0.262   3.344   6.257 -0.0109  0.8101  0.1213
16089SOL    HW150135   0.230   3.263   6.296 -0.8070  2.1957  2.5743
16089SOL    HW250136   0.193   3.370   6.196 -0.2988  0.1994  0.1818
16090SOL     OW50137   4.605   6.629   3.541  0.2616 -0.7485  0.5555
16090SOL    HW150138   4.623   6.540   3.574 -1.4324 -1.3209  0.0241
16090SOL    HW250139   4.511   6.641   3.553  0.5368  1.1977  1.0853
16091SOL     OW50140   4.613   1.233   8.744  0.2520  0.6174  0.6563
16091SOL    HW150141   4.559   1.188   8.808  0.2635  1.1403  1.0411
16091SOL    HW250142   4.702   1.205   8.762  0.4401  1.8349  1.8126
16092SOL     OW50143   6.103   2.557   6.717  0.2036  0.0102 -0.1917
16092SOL    HW150144   6.102   2.652   6.706  1.4900 -0.0327 -0.9341
16092SOL    HW250145   6.036   2.539   6.783 -0.3643  1.3818 -0.3595
16093SOL     OW50146   5.657   6.425   7.714  0.6590  0.5356  0.0528
16093SOL    HW150147   5.656   6.450   7.807  3.2667  0.1723  0.2789
16093SOL    HW250148   5.599   6.350   7.709  0.7686  0.3176  1.4911
16094SOL     OW50149   6.543   0.783   0.786  0.0519  0.3343  0.2758
16094SOL    HW150150   6.524   0.708   0.843  0.1272 -0.0976 -0.2576
16094SOL    HW250151   6.618   0.754   0.733  2.1712  1.9045  2.1925
16095SOL     OW50152   0.742   0.333   7.928 -0.5856  0.6498  0.4315
16095SOL    HW150153   0.748   0.420   7.887 -0.6435  1.1107  1.3675
16095SOL    HW250154   0.827   0.320   7.969  0.3923 -0.9130 -1.8891
16096SOL     OW50155   1.522   4.187   7.486  0.0743  0.2835  0.1120
16096SOL    HW150156   1.541   4.243   7.411 -2.3960 -0.5174 -1.2389
16096SOL    HW250157   1.437   4.219   7.518 -0.4396 -1.3981  0.5267
16097SOL     OW50158   5.329   1.114   7.263  0.2424  0.2220  0.0129
16097SOL    HW150159   5.405   1.057   7.260  1.1231  1.3845 -0.5540
16097SOL    HW250160   5.290   1.099   7.349  2.0780  0.8073  1.0041
16098SOL     OW50161   5.667   1.249   7.839  0.2185 -0.4756  0.4110
16098SOL    HW150162   5.698   1.160   7.826  0.6222 -0.6210  2.0985
16098SOL    HW250163   5.746   1.299   7.863 -0.2633 -0.0483  1.1501
16099SOL     OW50164   1.348   1.230   7.220  0.3935  0.1041 -0.0176
16099SOL    HW150165   1.369   1.314   7.178 -0.6833  0.4768  0.1479
16099SOL    HW250166   1.391   1.235   7.305 -0.2550  0.8155  0.2845
16100SOL     OW50167   8.451   4.875   7.435 -0.1750  0.2916  0.4270
16100SOL    HW150168   8.505   4.874   7.356 -0.1139  0.0731  0.4728
16100SOL    HW250169   8.391   4.801   7.424  0.3725 -0.2402  0.9661
16101SOL     OW50170   3.564   2.836   1.709 -0.1251 -0.1252 -0.0165
16101SOL    HW150171   3.556   2.757   1.762 -3.8873 -0.5073 -0.9076
16101SOL    HW250172   3.600   2.902   1.770 -1.4084 -1.3031  2.1546
16102SOL     OW50173   4.233   7.246   6.832  0.3663  0.8208 -1.5122
16102SOL    HW150174   4.231   7.198   6.749  1.6686  1.0848 -1.7184
16102SOL    HW250175   4.266   7.182   6.895  0.5048  0.9666 -1.4375
16103SOL     OW50176   4.016   6.394   5.577  0.1432  0.3739  0.6901
16103SOL    HW150177   4.047   6.474   5.619  0.8283 -0.8945  2.7652
16103SOL    HW250178   4.095   6.349   5.550 -0.2512  0.5217 -0.8004
16104SOL     OW50179   0.663   0.146   4.677  0.5197  0.1869 -0.0155
16104SOL    HW150180   0.683   0.224   4.626 -1.9849  0.6884 -0.3795
16104SOL    HW250181   0.701   0.074   4.628 -0.8997  0.7706 -2.1000
16105SOL     OW50182   5.643   7.035   4.332 -0.4719  0.1652  0.3547
16105SOL    HW150183   5.723   6.997   4.296 -0.8554 -1.1334  0.8071
16105SOL    HW250184   5.573   6.995   4.282 -0.9119  0.0048  1.0855
16106SOL     OW50185   8.538   6.020   2.446  0.7378  0.0677 -0.2156
16106SOL    HW150186   8.468   6.029   2.381 -0.2843 -1.7974  0.5332
16106SOL    HW250187   8.577   5.935   2.427  1.4928  0.2100  0.6330
16107SOL     OW50188   4.996   3.381   2.408 -0.4007  0.1777  0.9648
16107SOL    HW150189   4.962   3.443   2.473  1.3881  2.7627 -0.3722
16107SOL    HW250190   5.010   3.434   2.329  1.3887 -1.8941 -0.2432
16108SOL     OW50191   3.434   4.342   7.569  0.7219 -0.0110  0.0365
16108SOL    HW150192   3.419   4.259   7.523  0.3817  1.1837 -2.1693
16108SOL    HW250193   3.478   4.317   7.650 -2.0634 -2.6161  0.9365
16109SOL     OW50194   7.146   0.348   7.705 -0.0579  0.2879 -0.1793
16109SOL    HW150195   7.220   0.403   7.734  0.9612 -0.3151 -1.5334
16109SOL    HW250196   7.077   0.365   7.769  0.7725  1.9462  0.3318
16110SOL     OW50197   0.524   1.306   1.538  0.0675  0.1588  0.2860
16110SOL    HW150198   0.503   1.397   1.558  3.0447  0.9583  0.1295
16110SOL    HW250199   0.563   1.272   1.619  1.9131  0.0411 -0.6081
16111SOL     OW50200   1.101   4.398   6.751  0.4058 -0.0556 -0.2010
16111SOL    HW150201   1.170   4.448   6.707  0.2821  0.8869  0.6472
16111SOL    HW250202   1.043   4.370   6.680  0.8811  0.3795 -0.7683
16112SOL     OW50203   1.319   6.113   3.194 -0.0349 -0.5731  0.1559
16112SOL    HW150204   1.268   6.112   3.275  1.3670  1.0623  1.1465
16112SOL    HW250205   1.402   6.070   3.218  0.8001  0.8394 -0.0496
16113SOL     OW50206   4.224   7.823   5.557  0.4661  0.2713 -0.8117
16113SOL    HW150207   4.303   7.780   5.526  0.7402  0.1183  0.0721
16113SOL    HW250208   4.154   7.788   5.501  0.8302 -0.5765 -0.7521
16114SOL     OW50209   2.968   8.688   6.141 -0.2159  0.1677 -0.3418
16114SOL    HW150210   3.042   8.746   6.157 -0.4473  0.3003  0.2729
16114SOL    HW250211   2.931   8.719   6.059 -0.2471  0.8011 -0.0958
16115SOL     OW50212   5.349   3.705   0.225 -0.0946  0.0754 -0.2151
16115SOL    HW150213   5.313   3.787   0.257  1.0238  0.0907  1.0894
16115SOL    HW250214   5.328   3.704   0.131  1.2085  2.5987 -0.6076
16116SOL     OW50215   4.047   8.037   5.600  0.8796  0.0001  0.5401
16116SOL    HW150216   4.068   8.101   5.532 -1.1491  0.3139  0.1553
16116SOL    HW250217   4.113   7.968   5.590  1.3049  0.6013 -0.9841
16117SOL     OW50218   6.470   4.206   2.467 -0.1150  0.2157 -0.1176
16117SOL    HW150219   6.499   4.220   2.557 -1.1827  1.1562  0.1069
16117SOL    HW250220   6.541   4.156   2.426  0.5297  0.0576  1.1466
16118SOL     OW50221   2.349   6.105   1.405 -0.2234 -0.4133  0.4180
16118SOL    HW150222   2.418   6.039   1.395 -0.2409 -0.4394  0.4717
16118SOL    HW250223   2.364   6.142   1.492 -0.0275 -0.1369  0.2691
16119SOL     OW50224   4.259   1.548   6.797 -0.1956  0.0904 -0.2812
16119SOL    HW150225   4.191   1.506   6.850  1.3430 -0.1191  1.6509
16119SOL    HW250226   4.279   1.629   6.845  1.5849 -0.3392 -0.2380
16120SOL     OW50227   7.416   3.083   5.104  0.6033  0.2485 -0.3418
16120SOL    HW150228   7.507   3.052   5.108  0.1476 -1.2721 -1.1411
16120SOL    HW250229   7.363   3.005   5.119 -0.5944  0.6597 -2.0809
16121SOL     OW50230   6.629   5.613   5.319  0.2475  0.4742  0.2980
16121SOL    HW150231   6.584   5.553   5.379  0.2603  0.1983  0.0306
16121SOL    HW250232   6.717   5.623   5.356  0.0897  0.7317  0.6218
16122SOL     OW50233   3.492   6.680   8.300 -0.2275  0.1706  0.2560
16122SOL    HW150234   3.467   6.644   8.385 -0.4750 -0.5504 -0.1115
16122SOL    HW250235   3.411   6.717   8.265  0.0253  1.0953  0.6296
16123SOL     OW50236   0.783   6.560   3.006  0.3331  0.2371  0.1992
16123SOL    HW150237   0.744   6.499   3.069  1.2721 -0.3164  0.2695
16123SOL    HW250238   0.830   6.503   2.944  0.0567  0.8174 -0.5546
16124SOL     OW50239   3.770   5.008   6.557 -0.0757  0.2052 -0.0945
16124SOL    HW150240   3.779   5.061   6.636 -1.7008  1.8373 -0.9350
16124SOL    HW250241   3.705   4.941   6.580 -0.2864  0.4671  0.0767
16125SOL     OW50242   3.081   7.913   4.547 -0.2837  0.4306  0.0369
16125SOL    HW150243   3.060   7.857   4.472 -0.2226  1.7338 -0.9937
16125SOL    HW250244   3.020   7.885   4.616 -0.0527 -1.0762 -0.3384
16126SOL     OW50245   8.313   5.656   1.322  0.1575  0.7280 -0.2320
16126SOL    HW150246   8.223   5.686   1.329  0.6669  2.0551  1.1262
16126SOL    HW250247   8.308   5.575   1.270 -2.0512 -0.2988  1.4363
16127SOL     OW50248   4.093   2.990   3.064 -0.2693  0.3284  0.3459
16127SOL    HW150249   4.080   3.083   3.048 -0.7225  0.1715 -0.2799
16127SOL    HW250250   4.176   2.984   3.111  0.1428  0.9940 -0.2709
16128SOL     OW50251   4.437   7.957   7.130 -0.6647  0.3275  0.4284
16128SOL    HW150252   4.483   7.903   7.065  1.1748 -1.1529  2.8206
16128SOL    HW250253   4.480   8.042   7.124 -0.9532  0.4085 -0.7166
16129SOL     OW50254   6.733   4.615   1.279  0.8094 -0.6533 -0.1809
16129SOL    HW150255   6.658   4.675   1.279  0.9810 -0.4353 -0.4280
16129SOL    HW250256   6.805   4.667   1.315  0.5119 -1.3021  1.4439
16130SOL     OW50257   4.547   3.738   6.383  0.2254  0.2170 -0.0867
16130SOL    HW150258   4.490   3.732   6.460 -0.2883  1.1771 -0.3723
16130SOL    HW250259   4.566   3.831   6.375  2.2252 -0.1251  0.2585
16131SOL     OW50260   3.349   6.675   2.572 -0.0550 -0.1137  0.1983
16131SOL    HW150261   3.325   6.750   2.517  0.2354  1.0152  1.5713
16131SOL    HW250262   3.386   6.611   2.510 -0.0914  0.9446 -0.9593
16132SOL     OW50263   8.632   1.865   0.915  0.4977  0.0078 -0.4406
16132SOL    HW150264   8.647   1.928   0.845  1.9028  0.8018  0.5279
16132SOL    HW250265   8.715   1.818   0.923  0.4605  0.1388  0.8838
16133SOL     OW50266   2.477   2.060   6.058  0.2204 -0.2893  0.2036
16133SOL    HW150267   2.430   2.115   5.996  0.6565 -0.5212 -0.3457
16133SOL    HW250268   2.568   2.062   6.027  1.0969  1.9994  2.4963
16134SOL     OW50269   5.702   6.011   3.298 -0.4528 -0.5711 -0.3685
16134SOL    HW150270   5.735   6.075   3.234  1.1205 -3.5210 -2.8004
16134SOL    HW250271   5.771   6.006   3.364 -0.7238  0.4392 -0.0024
16135SOL     OW50272   6.171   6.552   0.920  0.5555  0.3790 -0.3695
16135SOL    HW150273   6.197   6.501   0.843  1.1712 -0.2378  0.2290
16135SOL    HW250274   6.197   6.642   0.899  0.9210  0.1801 -0.7923
16136SOL     OW50275   5.292   8.910   1.247 -0.4376 -0.0868 -0.0549
16136SOL    HW150276   5.198   8.912   1.226 -0.3653 -0.0195 -0.3889
16136SOL    HW250277   5.335   8.925   1.163 -0.0921 -1.4139 -0.1360
16137SOL     OW50278   3.016   5.532   2.012  0.5007  0.3098  0.0843
16137SOL    HW150279   3.030   5.441   1.986 -1.6542 -0.3853  1.1490
16137SOL    HW250280   2.944   5.562   1.956 -1.9242 -0.1638  2.7451
16138SOL     OW50281   5.398   1.064   1.799 -0.0775  0.5309  0.5258
16138SOL    HW150282   5.345   1.066   1.878  0.0980  0.1825  0.6539
16138SOL    HW250283   5.465   1.131   1.813  1.4283 -1.1382  1.7188
16139SOL     OW50284   0.152   4.941   4.202  0.3911 -0.0467  0.1567
16139SOL    HW150285   0.086   5.007   4.184  3.0511  2.1907 -2.3357
16139SOL    HW250286   0.192   4.970   4.284 -0.1619 -0.0714  0.4397
16140SOL     OW50287   6.275   5.178   3.907 -0.1747  0.4467 -0.0646
16140SOL    HW150288   6.231   5.227   3.837 -1.5091 -1.0653 -0.3577
16140SOL    HW250289   6.311   5.101   3.862  1.5736  0.9363  0.4364
16141SOL     OW50290   8.648   4.323   3.184  0.1202  0.6927 -0.1979
16141SOL    HW150291   8.570   4.365   3.149 -0.8382 -1.4131 -0.8090
16141SOL    HW250292   8.711   4.324   3.111 -0.8343 -1.1108 -1.1271
16142SOL     OW50293   8.671   5.884   2.692  0.2976 -0.2498  0.0494
16142SOL    HW150294   8.660   5.799   2.650  0.1500  0.1303 -0.6863
16142SOL    HW250295   8.726   5.934   2.632  0.8537 -0.0089  0.7479
16143SOL     OW50296   8.214   8.988   6.492  0.2148  0.0215 -0.4861
16143SOL    HW150297   8.233   9.004   6.400 -0.1046  0.4449 -0.4802
16143SOL    HW250298   8.125   9.021   6.505  1.0595  2.0631  0.5059
16144SOL     OW50299   1.964   6.579   7.795  0.5971  0.0442  0.7012
16144SOL    HW150300   1.934   6.660   7.754  2.4794  1.5557  2.0972
16144SOL    HW250301   2.051   6.565   7.758  0.7244 -0.7320  1.2817
16145SOL     OW50302   2.778   0.673   2.449  0.2880  0.0710  0.3912
16145SOL    HW150303   2.818   0.626   2.523  1.7993 -4.2792 -2.7534
16145SOL    HW250304   2.848   0.681   2.385 -1.7183  0.5266 -1.8689
16146SOL     OW50305   5.940   7.683   7.668 -0.0618 -0.3311 -0.2257
16146SOL    HW150306   5.992   7.648   7.740 -0.4152 -0.7079 -0.1471
16146SOL    HW250307   6.001   7.691   7.595 -0.0670 -1.5517 -0.3811
16147SOL     OW50308   3.310   1.722   4.084  0.0487  0.1273 -0.2022
16147SOL    HW150309   3.216   1.722   4.065 -0.4331 -0.2198  1.9252
16147SOL    HW250310   3.334   1.814   4.082 -0.5243  0.2886  0.0503
16148SOL     OW50311   5.476   8.627   6.223 -0.6371 -0.3886  0.0712
16148SOL    HW150312   5.570   8.641   6.222 -0.5478 -0.3953  2.6917
16148SOL    HW250313   5.465   8.537   6.191  0.3861 -0.8632  0.9950
16149SOL     OW50314   8.307   5.806   6.612 -0.1445 -0.4057  0.1090
16149SOL    HW150315   8.319   5.743   6.541 -1.1195 -0.3886 -0.0817
16149SOL    HW250316   8.212   5.819   6.617  0.0058  0.6652  0.4695
16150SOL     OW50317   8.175   1.136   6.129  0.4302  0.1692  0.4971
16150SOL    HW150318   8.144   1.082   6.202  0.7193  0.5324  0.8910
16150SOL    HW250319   8.213   1.073   6.067 -1.0993 -0.3063 -0.0247
16151SOL     OW50320   4.357   2.401   0.401 -0.0531 -0.4086  0.1952
16151SOL    HW150321   4.412   2.434   0.330 -0.8235 -0.0171 -0.2327
16151SOL    HW250322   4.374   2.461   0.474  0.0548 -0.2596  0.0484
16152SOL     OW50323   3.616   6.096   3.067  0.2759  0.1233 -0.3435
16152SOL    HW150324   3.647   6.147   3.142  2.8538 -0.7186 -0.7549
16152SOL    HW250325   3.521   6.096   3.076  0.4351  1.3417  2.0477
16153SOL     OW50326   3.609   2.607   5.939 -0.1332  0.2661  0.2147
16153SOL    HW150327   3.616   2.681   5.880  2.4508 -0.2038 -0.1568
16153SOL    HW250328   3.698   2.574   5.949 -0.7698 -0.9968  2.7014
16154SOL     OW50329   1.995   0.185   5.134 -0.2686 -0.7540 -0.1768
16154SOL    HW150330   2.087   0.159   5.143  0.6178  0.8188 -3.2877
16154SOL    HW250331   1.997   0.280   5.130 -2.0587 -0.6921 -0.4320
16155SOL     OW50332   1.254   2.183   7.881  0.2392  0.4963 -0.0540
16155SOL    HW150333   1.330   2.213   7.832  0.1751 -0.5259 -0.8050
16155SOL    HW250334   1.226   2.103   7.836 -1.1410  0.7255  0.3370
16156SOL     OW50335   5.173   5.168   2.655  0.3408  0.4002 -0.0021
16156SOL    HW150336   5.238   5.102   2.633 -1.5433 -1.6658  0.1796
16156SOL    HW250337   5.128   5.132   2.733 -0.8508  1.8099  0.0056
16157SOL     OW50338   5.346   2.904   5.130  0.3892 -0.2822 -0.1773
16157SOL    HW150339   5.387   2.905   5.044  1.6773  1.7404  0.4094
16157SOL    HW250340   5.411   2.865   5.187 -0.3848 -1.4279 -0.0309
16158SOL     OW50341   2.886   2.235   3.317 -0.4406 -0.2248  0.2045
16158SOL    HW150342   2.893   2.166   3.383  2.1327  1.1071  1.4655
16158SOL    HW250343   2.825   2.298   3.355 -0.6622 -0.4946  0.3008
16159SOL     OW50344   4.345   4.525   2.742  0.4223  0.0600  0.3745
16159SOL    HW150345   4.341   4.561   2.831 -0.8136  0.0484  0.3418
16159SOL    HW250346   4.429   4.556   2.707  1.4315 -0.8139  1.9022
16160SOL     OW50347   2.710   8.388   7.869 -0.1341  0.3096  0.1490
16160SOL    HW150348   2.730   8.349   7.785 -0.2845  0.6228 -0.0355
16160SOL    HW250349   2.708   8.482   7.852 -2.0874  0.3020  0.0547
16161SOL     OW50350   3.661   4.883   2.583 -0.0650 -0.1458  0.1465
16161SOL    HW150351   3.737   4.913   2.532 -0.5486 -0.5906 -0.8518
16161SOL    HW250352   3.613   4.826   2.523 -1.0998 -0.0030  0.8268
16162SOL     OW50353   1.787   0.596   6.002 -0.3432 -0.1583  0.2653
16162SOL    HW150354   1.837   0.596   5.921 -1.7027 -2.0219 -0.6391
16162SOL    HW250355   1.801   0.683   6.039  3.4765 -0.5386  0.0851
16163SOL     OW50356   1.993   1.028   7.030 -0.0264  0.3807  0.1536
16163SOL    HW150357   1.981   1.122   7.043 -2.1792  0.0452  1.0705
16163SOL    HW250358   1.934   1.006   6.958 -1.4813 -0.6295  1.5888
16164SOL     OW50359   6.029   4.695   5.706  0.1719  0.6324 -0.8011
16164SOL    HW150360   5.936   4.678   5.689  0.0592 -0.6699  0.7318
16164SOL    HW250361   6.029   4.776   5.757 -0.2929 -0.0467  0.3353
16165SOL     OW50362   6.605   6.204   6.754  0.1041 -0.4567 -0.0619
16165SOL    HW150363   6.522   6.174   6.718 -0.9184  2.1821 -0.0771
16165SOL    HW250364   6.619   6.149   6.831 -1.8534 -0.7150  0.1472
16166SOL     OW50365   6.175   0.377   7.740  0.3409 -0.0969 -0.1944
16166SOL    HW150366   6.191   0.340   7.653  1.6704  0.7944 -0.3602
16166SOL    HW250367   6.129   0.308   7.788  1.1691 -1.2739 -1.0488
16167SOL     OW50368   4.400   3.418   4.082 -0.1795 -0.2341 -0.9195
16167SOL    HW150369   4.411   3.384   3.994 -0.0190  0.9164 -1.3561
16167SOL    HW250370   4.381   3.341   4.136  1.5180 -1.1873 -1.6249
16168SOL     OW50371   1.089   5.855   8.581 -0.3576 -0.4893  1.0340
16168SOL    HW150372   1.057   5.823   8.497 -0.1441 -0.5719  0.9818
16168SOL    HW250373   1.095   5.950   8.570  0.8585 -0.6080  0.5276
16169SOL     OW50374   7.540   3.669   7.052  0.6892  0.0403 -0.9467
16169SOL    HW150375   7.476   3.657   6.982  0.9953  2.8621 -1.8144
16169SOL    HW250376   7.503   3.738   7.108  0.2754 -2.3514  2.0136
16170SOL     OW50377   5.559   1.459   3.417  0.1933 -0.5289 -0.4690
16170SOL    HW150378   5.575   1.391   3.482 -3.1942 -0.0653  1.0823
16170SOL    HW250379   5.586   1.540   3.460  0.6716 -0.5027 -0.8129
16171SOL     OW50380   8.681   2.535   0.497  0.1887  0.4325  0.2657
16171SOL    HW150381   8.696   2.579   0.581  2.2709  0.3661 -0.0157
16171SOL    HW250382   8.600   2.486   0.509  0.1337  0.8992  2.0232
16172SOL     OW50383   7.815   1.991   7.936  0.6224 -0.2754  0.3836
16172SOL    HW150384   7.840   2.083   7.929  0.8217 -0.4403 -1.6813
16172SOL    HW250385   7.896   1.943   7.922  0.1835 -0.7642 -0.6045
16173SOL     OW50386   3.276   1.160   1.014  0.3522  0.1471 -0.0735
16173SOL    HW150387   3.225   1.129   1.088  0.5547  0.2418  0.1075
16173SOL    HW250388   3.311   1.245   1.042 -1.3356  1.2460 -1.0654
16174SOL     OW50389   7.944   5.387   4.896  0.8795 -0.2095  0.4175
16174SOL    HW150390   8.015   5.351   4.949  1.4572 -1.3612 -1.0667
16174SOL    HW250391   7.987   5.437   4.827  0.3255 -1.1674 -0.6847
16175SOL     OW50392   4.535   4.055   2.461 -0.6835  0.0010 -0.2042
16175SOL    HW150393   4.520   4.092   2.548 -0.9789  0.5525 -0.4816
16175SOL    HW250394   4.623   4.085   2.437 -1.1336  1.0018 -0.6534
16176SOL     OW50395   2.959   1.423   4.345  0.0658 -0.1943  0.7945
16176SOL    HW150396   3.049   1.423   4.313  0.6087  0.9174  2.1780
16176SOL    HW250397   2.921   1.504   4.311  0.1341  0.1710  1.5600
16177SOL     OW50398   0.046   5.929   8.389 -0.3787 -0.7226 -0.0493
16177SOL    HW150399   0.110   5.896   8.452 -1.0156  0.7266  1.4251
16177SOL    HW250400   0.001   5.999   8.435 -0.2663  1.0483 -2.4256
16178SOL     OW50401   7.898   3.540   1.249 -0.0210  0.2384 -0.6083
16178SOL    HW150402   7.991   3.558   1.235 -0.0671 -1.0211 -2.9653
16178SOL    HW250403   7.854   3.621   1.224  0.3522  0.3916 -0.7710
16179SOL     OW50404   7.386   8.754   1.142  0.3081 -0.3329  0.2655
16179SOL    HW150405   7.388   8.727   1.050 -1.0101 -0.3319  0.2112
16179SOL    HW250406   7.444   8.830   1.146 -0.9122  0.7288 -0.9545
16180SOL     OW50407   6.906   4.379   4.643  0.0959  0.2410 -0.1662
16180SOL    HW150408   6.887   4.318   4.714  0.1054  0.8095  0.3371
16180SOL    HW250409   6.933   4.459   4.688 -1.7266  1.2463 -0.7493
16181SOL     OW50410   7.555   1.734   0.225 -0.1978  0.2653  0.0933
16181SOL    HW150411   7.507   1.651   0.235 -0.3220  0.4570  1.3302
16181SOL    HW250412   7.645   1.712   0.250 -0.4135  0.6661  1.3389
16182SOL     OW50413   6.688   1.455   0.811  0.2208 -0.7310 -0.8791
16182SOL    HW150414   6.783   1.460   0.824  0.3251 -2.0509 -1.0004
16182SOL    HW250415   6.651   1.457   0.899  0.2790  0.7099 -0.8574
16183SOL     OW50416   2.521   7.827   4.579 -0.7470 -0.1927  0.2260
16183SOL    HW150417   2.563   7.744   4.559 -0.5736 -0.1049  0.2234
16183SOL    HW250418   2.501   7.822   4.672 -0.3280 -0.0572  0.3266
16184SOL     OW50419   8.368   7.479   5.814 -0.4115  0.6074 -0.1971
16184SOL    HW150420   8.396   7.497   5.904 -0.4002 -0.5209  0.0351
16184SOL    HW250421   8.280   7.517   5.809 -0.8856 -0.3167  0.6631
16185SOL     OW50422   3.716   8.307   7.168  0.1701 -0.5197 -0.0102
16185SOL    HW150423   3.808   8.301   7.193 -0.5624 -1.0099  2.8948
16185SOL    HW250424   3.671   8.247   7.227 -1.9264 -1.2024 -2.1374
16186SOL     OW50425   7.455   0.998   3.263  0.2168 -0.4133 -0.3590
16186SOL    HW150426   7.422   1.070   3.317  3.4739  0.5260  0.5816
16186SOL    HW250427   7.378   0.942   3.249 -1.6435  1.3480  1.8994
16187SOL     OW50428   0.106   7.728   7.617 -0.1912  0.7301 -0.3614
16187SOL    HW150429   0.024   7.686   7.646 -0.9209  2.0178 -0.4973
16187SOL    HW250430   0.168   7.655   7.610 -1.3457 -0.3036 -0.3474
16188SOL     OW50431   7.313   2.127   7.322  0.5604  0.2291 -0.0070
16188SOL    HW150432   7.360   2.106   7.241 -0.7205 -0.0268 -0.7185
16188SOL    HW250433   7.299   2.042   7.364  2.0019  0.4463  0.9524
16189SOL     OW50434   1.454   1.624   0.967  0.0622 -0.0960 -0.7491
16189SOL    HW150435   1.402   1.544   0.965  0.6779 -0.5058 -0.8480
16189SOL    HW250436   1.459   1.647   1.060 -3.2773  1.9802 -0.9417
16190SOL     OW50437   1.391   2.849   7.029  0.0192 -0.4062 -0.3266
16190SOL    HW150438   1.473   2.870   6.985  0.2845 -0.7310  0.0006
16190SOL    HW250439   1.358   2.772   6.982  0.4790 -0.9667  0.2495
16191SOL     OW50440   3.744   3.513   2.266  0.3459  1.0126 -0.3012
16191SOL    HW150441   3.702   3.599   2.258  0.7079  1.2295  0.0914
16191SOL    HW250442   3.695   3.470   2.336  0.7299  1.2452  0.1197
16192SOL     OW50443   5.240   2.992   5.790 -0.3232  0.1800  0.6533
16192SOL    HW150444   5.271   2.915   5.837  0.2139  0.6668  1.1165
16192SOL    HW250445   5.174   3.031   5.848 -0.9012 -0.1522  0.2344
16193SOL     OW50446   6.865   3.003   7.405 -0.1911  0.0030 -0.1579
16193SOL    HW150447   6.904   3.005   7.492  2.1794  2.3429 -1.1506
16193SOL    HW250448   6.776   3.037   7.418  1.0615  3.1809  1.0384
16194SOL     OW50449   5.889   2.868   3.023  0.4104  0.6659  0.1312
16194SOL    HW150450   5.868   2.950   2.979 -0.7188  0.5832  0.4881
16194SOL    HW250451   5.974   2.884   3.065  1.0063  1.0875 -1.1720
16195SOL     OW50452   4.256   8.455   6.110 -0.7662  0.2365  0.0824
16195SOL    HW150453   4.217   8.528   6.063 -0.4068  1.6339  1.8375
16195SOL    HW250454   4.330   8.494   6.157 -0.0279 -1.4410  0.3930
16196SOL     OW50455   4.442   2.472   6.593 -0.2851 -0.2096 -0.4994
16196SOL    HW150456   4.392   2.552   6.583  1.5577  1.0589 -0.1225
16196SOL    HW250457   4.377   2.402   6.586 -2.0623  1.3135 -0.0971
16197SOL     OW50458   8.223   6.899   1.876  0.2118 -0.6773  0.3864
16197SOL    HW150459   8.264   6.859   1.800 -2.4049 -0.8788 -1.0307
16197SOL    HW250460   8.262   6.986   1.883  2.7715 -1.7845  0.8248
16198SOL     OW50461   8.603   3.439   3.102 -0.6477  0.1563 -0.2887
16198SOL    HW150462   8.570   3.473   3.019  0.2104 -0.6194 -0.9724
16198SOL    HW250463   8.562   3.353   3.111  0.2781 -0.3275 -0.5833
16199SOL     OW50464   8.012   0.986   6.955 -0.5007 -0.0343 -0.0753
16199SOL    HW150465   7.967   1.065   6.924  1.7120  1.8559  1.1435
16199SOL    HW250466   8.098   0.991   6.915 -0.2492 -1.7656  0.1977
16200SOL     OW50467   0.824   5.067   7.455  0.2903 -0.3660  0.0321
16200SOL    HW150468   0.890   5.024   7.400 -0.8798 -1.4531 -0.5778
16200SOL    HW250469   0.868   5.079   7.540  1.7258  0.2514 -0.7506
16201SOL     OW50470   0.561   5.031   4.517 -0.5353 -0.1500 -0.6521
16201SOL    HW150471   0.523   5.002   4.434 -1.2308  0.5843 -0.5993
16201SOL    HW250472   0.488   5.069   4.565  0.3913  2.1117 -0.9073
16202SOL     OW50473   3.794   2.356   7.036  0.6683 -0.5210 -0.2861
16202SOL    HW150474   3.753   2.382   6.954 -0.5978 -1.9284 -0.1396
16202SOL    HW250475   3.822   2.265   7.021  0.2677 -0.8548  0.8839
16203SOL     OW50476   4.901   1.623   7.712 -0.0942  0.2163  0.5533
16203SOL    HW150477   4.858   1.639   7.796  0.8608 -2.0607  1.5652
16203SOL    HW250478   4.869   1.537   7.684 -1.2376  1.3839 -2.0222
16204SOL     OW50479   6.070   7.660   3.976  0.6595 -0.0737  0.5452
16204SOL    HW150480   6.065   7.606   4.054 -1.7934 -0.8445 -0.0704
16204SOL    HW250481   6.007   7.731   3.991  0.1307 -0.2450 -0.7098
16205SOL     OW50482   5.080   8.184   0.088  0.1031 -0.0522 -0.2062
16205SOL    HW150483   5.052   8.103   0.045  0.1087 -0.0771 -0.1620
16205SOL    HW250484   5.063   8.170   0.181 -0.4392  0.2185 -0.2602
16206SOL     OW50485   7.719   7.285   0.448  0.4096 -0.2765  0.3932
16206SOL    HW150486   7.632   7.262   0.479  0.3423 -1.7238 -0.7439
16206SOL    HW250487   7.723   7.250   0.359  1.6138  1.1279 -0.1590
16207SOL     OW50488   2.825   2.604   3.281  0.5416  0.9880  0.5290
16207SOL    HW150489   2.865   2.646   3.357  2.8367 -0.2328  0.0891
16207SOL    HW250490   2.848   2.661   3.207 -0.3638  1.3631  0.5227
16208SOL     OW50491   3.073   7.509   1.613  0.1548  0.3140 -0.1261
16208SOL    HW150492   3.061   7.465   1.697  0.4725  2.4753  1.1285
16208SOL    HW250493   3.158   7.552   1.621  0.0637  0.7746 -1.4568
16209SOL     OW50494   6.218   4.242   6.126  0.5053  0.0888  0.2683
16209SOL    HW150495   6.257   4.198   6.201  0.2101 -0.2055  0.2553
16209SOL    HW250496   6.157   4.177   6.090  0.0242  0.5274  0.2794
16210SOL     OW50497   8.475   5.551   3.929 -0.1436  0.5279  0.3166
16210SOL    HW150498   8.557   5.591   3.959  0.1526  0.9043 -0.9401
16210SOL    HW250499   8.415   5.561   4.004  0.6252  1.2258  0.8596
16211SOL     OW50500   5.671   0.557   0.494 -0.0014 -0.5535  0.0424
16211SOL    HW150501   5.643   0.471   0.462  1.8731 -1.2296  0.0911
16211SOL    HW250502   5.608   0.618   0.457 -0.7093 -1.8335 -0.9401
16212SOL     OW50503   3.397   4.943   4.014 -0.5087  0.4539 -0.4394
16212SOL    HW150504   3.387   4.869   3.955  0.2725  0.5954 -0.7775
16212SOL    HW250505   3.479   4.985   3.985  1.4230 -0.9982  2.3990
16213SOL     OW50506   6.678   8.015   2.282 -0.0161 -0.0548 -0.6718
16213SOL    HW150507   6.773   8.019   2.293  0.1761  0.3296 -2.2033
16213SOL    HW250508   6.645   8.098   2.316  0.3751  0.4695 -1.5533
16214SOL     OW50509   7.975   4.854   1.323 -0.2682  0.2132  0.1690
16214SOL    HW150510   7.984   4.922   1.390 -0.4751  0.8231 -0.4134
16214SOL    HW250511   8.039   4.788   1.347  0.6775  1.1033  0.1513
16215SOL     OW50512   0.575   8.480   4.924 -0.3428  0.1200  0.2664
16215SOL    HW150513   0.542   8.474   4.834 -0.5180  0.3500  0.3136
16215SOL    HW250514   0.548   8.398   4.965  1.5682 -0.9467 -0.4838
16216SOL     OW50515   7.731   5.317   6.592  0.2103 -0.5065 -0.5323
16216SOL    HW150516   7.783   5.252   6.545 -1.5417 -1.5112 -1.1858
16216SOL    HW250517   7.722   5.390   6.531  0.9275 -0.2815 -0.3735
16217SOL     OW50518   0.168   1.705   8.945 -0.8130  0.4581 -0.1509
16217SOL    HW150519   0.204   1.620   8.921 -3.5227 -0.6469 -0.5408
16217SOL    HW250520   0.220   1.768   8.894  0.4576 -1.0337 -0.7701
16218SOL     OW50521   1.677   5.963   2.151  0.4039 -0.0960 -0.1992
16218SOL    HW150522   1.583   5.952   2.138  0.1588  1.7242 -0.2001
16218SOL    HW250523   1.717   5.920   2.075 -0.6342  2.3408 -2.2941
16219SOL     OW50524   8.982   5.883   7.160  0.1888 -0.5149 -0.6230
16219SOL    HW150525   8.944   5.865   7.074 -2.7758 -0.2463  0.5026
16219SOL    HW250526   8.958   5.807   7.213 -0.4698  0.5135  0.6263
16220SOL     OW50527   7.777   5.472   0.571 -0.2243 -0.8463  0.8488
16220SOL    HW150528   7.857   5.452   0.523  0.4208 -0.0212  1.5479
16220SOL    HW250529   7.784   5.419   0.651 -1.1276 -1.9514  0.2303
16221SOL     OW50530   3.897   6.861   7.713  0.0387  0.3465 -0.4685
16221SOL    HW150531   3.827   6.815   7.760  0.0233  0.3129 -0.5243
16221SOL    HW250532   3.976   6.841   7.764  0.1839 -0.5058 -1.0058
16222SOL     OW50533   0.602   6.011   7.603  0.3932 -0.0269 -0.6691
16222SOL    HW150534   0.577   6.103   7.599  0.3950 -0.0735 -1.9894
16222SOL    HW250535   0.648   6.003   7.687  0.9445  1.3059 -0.8150
16223SOL     OW50536   4.322   2.329   0.975 -0.0944  0.2466  0.3624
16223SOL    HW150537   4.276   2.334   0.891  0.3503 -0.3335  0.0719
16223SOL    HW250538   4.292   2.247   1.014  0.6390 -0.1201  0.1861
16224SOL     OW50539   4.957   2.900   4.664  0.0425 -0.0360  0.2647
16224SOL    HW150540   4.907   2.826   4.698 -1.9975  1.5880  1.0250
16224SOL    HW250541   5.030   2.910   4.725 -1.6221  0.6768  2.2764
16225SOL     OW50542   7.312   5.257   4.633  0.4670 -0.1254  0.1251
16225SOL    HW150543   7.249   5.276   4.563 -2.5102 -2.8428  1.8000
16225SOL    HW250544   7.380   5.205   4.590 -1.2194 -1.6335 -0.8751
16226SOL     OW50545   7.362   7.509   0.925 -0.5075  0.1821 -0.5660
16226SOL    HW150546   7.353   7.503   0.830  0.1216  0.0686 -0.6267
16226SOL    HW250547   7.456   7.524   0.938 -0.6027  0.2570  0.0346
16227SOL     OW50548   0.180   4.982   6.177 -0.5266 -0.3607 -0.5567
16227SOL    HW150549   0.131   4.902   6.194 -0.5042 -0.2426  0.1301
16227SOL    HW250550   0.120   5.053   6.201  0.0607 -0.2211  0.5925
16228SOL     OW50551   5.111   7.238   5.284  0.3586  0.4320  0.1674
16228SOL    HW150552   5.078   7.155   5.251 -0.2074  1.0562 -0.8688
16228SOL    HW250553   5.145   7.217   5.371 -0.7291 -0.6784  0.3543
16229SOL     OW50554   3.762   5.160   0.906  0.1157  0.6707 -0.0931
16229SOL    HW150555   3.798   5.185   0.821  1.5873  1.3651  0.6838
16229SOL    HW250556   3.734   5.069   0.894 -0.1000  0.8892 -1.4226
16230SOL     OW50557   6.275   6.557   7.607  0.8716 -0.2439 -0.0656
16230SOL    HW150558   6.271   6.650   7.585  2.5294  0.0298  0.6311
16230SOL    HW250559   6.246   6.512   7.527  2.5941  0.8234 -1.3675
16231SOL     OW50560   6.150   4.021   2.050 -0.3785 -0.2695 -0.0095
16231SOL    HW150561   6.155   4.064   2.136 -2.8547  0.0908  0.0137
16231SOL    HW250562   6.176   4.089   1.988  1.1357 -0.4443  0.3720
16232SOL     OW50563   0.900   0.929   4.608  0.1346 -0.1353 -0.6622
16232SOL    HW150564   0.913   0.894   4.697 -0.2568  3.8223  1.1467
16232SOL    HW250565   0.809   0.907   4.587 -0.5241  0.8398  0.9665
16233SOL     OW50566   2.579   2.801   1.851 -0.2023 -0.3092  0.0769
16233SOL    HW150567   2.528   2.832   1.776 -0.0370 -0.5950 -0.1585
16233SOL    HW250568   2.587   2.707   1.837  2.0424 -0.0327 -0.9611
16234SOL     OW50569   2.596   0.699   3.372 -0.0130  0.2888  1.0643
16234SOL    HW150570   2.584   0.648   3.292 -1.0542  0.9376  0.7873
16234SOL    HW250571   2.651   0.644   3.428 -0.2952 -0.7045  0.3832
16235SOL     OW50572   6.310   0.201   6.465 -0.2981  0.0240  0.1317
16235SOL    HW150573   6.308   0.294   6.444  2.5931  0.2003  0.3431
16235SOL    HW250574   6.271   0.196   6.552  0.2809  1.1667  0.4770
16236SOL     OW50575   8.390   4.579   7.741  0.0361 -0.0717  0.2334
16236SOL    HW150576   8.419   4.552   7.654 -0.9239  1.4368 -0.5988
16236SOL    HW250577   8.470   4.602   7.787  0.3715  2.6576 -1.5307
16237SOL     OW50578   4.398   8.834   3.552 -0.0427 -0.1435  0.0314
16237SOL    HW150579   4.336   8.799   3.616  1.5774  1.9230  2.9496
16237SOL    HW250580   4.446   8.758   3.520 -1.8481 -1.3952  0.1208
16238SOL     OW50581   4.980   7.060   8.052  0.5846 -0.4718 -0.0431
16238SOL    HW150582   4.888   7.078   8.072  0.2714 -1.0011 -0.9513
16238SOL    HW250583   4.991   6.967   8.069  0.7906 -0.5393 -0.5369
16239SOL     OW50584   8.227   4.532   8.452  0.0204  0.0849  0.7853
16239SOL    HW150585   8.274   4.593   8.395 -0.7549 -0.1513 -0.1422
16239SOL    HW250586   8.295   4.472   8.483  0.2854 -0.6955 -1.1163
16240SOL     OW50587   5.213   0.591   7.172  0.1526 -0.1252 -0.9342
16240SOL    HW150588   5.201   0.669   7.225 -1.4180 -0.5976 -0.5249
16240SOL    HW250589   5.261   0.530   7.229  0.3541  0.1316 -0.8300
16241SOL     OW50590   1.071   1.896   1.462 -0.8861 -0.2798 -0.1747
16241SOL    HW150591   1.156   1.933   1.488 -1.5804  1.1983  0.0777
16241SOL    HW250592   1.037   1.957   1.396 -1.3065 -1.4230 -1.0600
16242SOL     OW50593   0.873   2.639   3.567  0.1754 -0.0446  0.3363
16242SOL    HW150594   0.877   2.649   3.662  2.0773  0.4336  0.2495
16242SOL    HW250595   0.799   2.693   3.540 -0.7821 -0.6811  1.5776
16243SOL     OW50596   0.924   2.268   4.699  0.4059 -0.5046  0.6799
16243SOL    HW150597   1.009   2.306   4.721  0.8970 -1.5277  0.5992
16243SOL    HW250598   0.893   2.228   4.780  0.8358 -1.6853  0.2743
16244SOL     OW50599   3.834   1.919   1.271 -0.0679  0.0917  0.1784
16244SOL    HW150600   3.835   1.991   1.208  0.2248  1.9460  2.1821
16244SOL    HW250601   3.752   1.872   1.252  0.6974 -0.3214 -2.4630
16245SOL     OW50602   0.411   0.925   1.044 -0.0619  0.0835 -0.4590
16245SOL    HW150603   0.376   0.892   1.126 -0.5890 -0.7244 -0.9896
16245SOL    HW250604   0.470   0.996   1.069 -0.3198 -0.0658  0.5975
16246SOL     OW50605   0.604   8.797   8.750 -0.1571 -0.6582 -0.2239
16246SOL    HW150606   0.620   8.787   8.844 -2.1462 -0.6050  0.1507
16246SOL    HW250607   0.588   8.708   8.720  1.2985 -0.7842 -0.7175
16247SOL     OW50608   5.744   3.632   7.942  0.1839 -0.9608  0.1284
16247SOL    HW150609   5.674   3.642   8.007 -0.2919  1.0439 -0.5902
16247SOL    HW250610   5.808   3.574   7.983 -0.9188 -1.1535  1.6578
16248SOL     OW50611   3.541   4.307   7.229 -0.0934 -0.1556  0.0016
16248SOL    HW150612   3.626   4.344   7.251 -1.1402  2.4853 -0.0855
16248SOL    HW250613   3.479   4.379   7.240 -2.1549 -1.6192 -1.2162
16249SOL     OW50614   4.191   7.255   0.765  0.0013  0.1615  0.5742
16249SOL    HW150615   4.132   7.321   0.731 -1.1232 -0.0741  1.9677
16249SOL    HW250616   4.211   7.283   0.855 -0.8658 -1.5643  1.3669
16250SOL     OW50617   8.292   1.014   0.144  0.0655  0.3690  0.4128
16250SOL    HW150618   8.316   1.062   0.223  0.2695 -1.0125  1.2241
16250SOL    HW250619   8.376   0.987   0.106 -0.0534  0.0080  0.3947
16251SOL     OW50620   5.182   7.819   2.844 -0.3359 -0.0659  0.0940
16251SOL    HW150621   5.115   7.869   2.890  0.3116  1.9167 -0.9375
16251SOL    HW250622   5.137   7.781   2.769 -0.6566 -0.2583  0.3826
16252SOL     OW50623   3.463   1.660   1.035  0.5465  0.1878  0.2072
16252SOL    HW150624   3.497   1.696   1.117 -1.3687  1.7607  0.4100
16252SOL    HW250625   3.458   1.735   0.976 -0.6706 -0.3582 -0.4244
16253SOL     OW50626   5.668   5.351   3.556 -0.0197 -0.0910 -0.4422
16253SOL    HW150627   5.712   5.356   3.641  1.9105  0.9716 -1.4341
16253SOL    HW250628   5.629   5.264   3.554  1.9694 -1.0695  0.5940
16254SOL     OW50629   5.777   0.927   1.795  0.2405 -0.6478 -0.4656
16254SOL    HW150630   5.840   0.988   1.834 -1.7255  1.2607 -0.0556
16254SOL    HW250631   5.774   0.952   1.702 -1.5568  0.9031 -0.0448
16255SOL     OW50632   2.145   5.404   3.235  0.1259  0.4702 -0.3365
16255SOL    HW150633   2.102   5.489   3.236 -0.7064  0.0496  0.6143
16255SOL    HW250634   2.231   5.421   3.197 -0.7080  1.3960 -1.8882
16256SOL     OW50635   7.515   4.657   3.665  0.0745  0.6206 -0.4917
16256SOL    HW150636   7.585   4.684   3.606  0.5459  2.5157  0.8639
16256SOL    HW250637   7.554   4.662   3.753 -0.8228 -1.4122  0.0845
16257SOL     OW50638   4.694   1.170   1.332  0.4629  0.7049  0.1454
16257SOL    HW150639   4.697   1.095   1.273 -0.0915  0.5612  0.2927
16257SOL    HW250640   4.772   1.221   1.311  1.5301 -0.5775  0.9177
16258SOL     OW50641   7.258   8.627   4.461 -0.0872 -0.3401 -0.0657
16258SOL    HW150642   7.323   8.686   4.499  1.1275 -0.9231 -1.1425
16258SOL    HW250643   7.206   8.597   4.535  0.4685  0.6259  0.7423
16259SOL     OW50644   6.297   6.704   3.703  0.0021 -0.4557  0.0563
16259SOL    HW150645   6.309   6.695   3.797  0.3151 -0.5762  0.0046
16259SOL    HW250646   6.378   6.743   3.671 -1.2542  2.6260  0.2471
16260SOL     OW50647   1.476   0.901   0.116 -0.2361 -0.0635 -0.3735
16260SOL    HW150648   1.449   0.993   0.118  0.6084  0.1886 -0.0236
16260SOL    HW250649   1.398   0.852   0.143 -0.2697  0.6611  0.9131
16261SOL     OW50650   8.383   1.515   2.301  0.1255  0.0196  0.8055
16261SOL    HW150651   8.309   1.568   2.329  1.2023  1.8041  0.4188
16261SOL    HW250652   8.457   1.547   2.353  0.9732 -0.5179 -0.0367
16262SOL     OW50653   1.487   3.830   2.390 -0.2235 -0.3396 -0.6549
16262SOL    HW150654   1.504   3.911   2.440  2.7956  0.0758 -2.0932
16262SOL    HW250655   1.541   3.764   2.434  0.0087 -0.7265 -1.5103
16263SOL     OW50656   6.094   4.706   1.356  0.5366 -0.6274  0.4525
16263SOL    HW150657   6.004   4.725   1.331 -0.1994 -0.4024  2.9630
16263SOL    HW250658   6.147   4.766   1.305 -0.8704  0.3215  0.0588
16264SOL     OW50659   6.121   0.844   2.340 -0.1670 -0.2848 -0.6826
16264SOL    HW150660   6.166   0.762   2.321 -0.3958 -0.4008 -0.7273
16264SOL    HW250661   6.173   0.910   2.294  1.4173 -0.0753  1.3046
16265SOL     OW50662   8.895   2.753   7.698 -0.2314 -0.4122  0.2293
16265SOL    HW150663   8.862   2.842   7.682 -0.1683 -0.0356  1.9775
16265SOL    HW250664   8.952   2.763   7.775  0.3842 -1.8423 -0.0260
16266SOL     OW50665   2.351   4.506   2.033 -0.0622  0.0260  0.1915
16266SOL    HW150666   2.368   4.504   1.939  1.4006 -1.2616  0.4224
16266SOL    HW250667   2.280   4.568   2.044 -1.4393 -1.0605 -1.9418
16267SOL     OW50668   7.367   7.067   1.756  0.0487  0.3519 -0.2827
16267SOL    HW150669   7.379   7.106   1.843 -1.5035 -0.2923  0.2664
16267SOL    HW250670   7.284   7.103   1.725 -1.2007 -2.0246  0.0374
16268SOL     OW50671   5.869   0.530   3.817  0.0596  0.2900  0.4734
16268SOL    HW150672   5.900   0.532   3.908  0.3745 -1.4402  0.4275
16268SOL    HW250673   5.779   0.500   3.823  0.3434 -0.6549  0.1725
16269SOL     OW50674   0.442   1.926   3.573  0.0995 -0.3267  1.0460
16269SOL    HW150675   0.374   1.946   3.637  1.3050  0.5191  2.1252
16269SOL    HW250676   0.402   1.944   3.488 -2.0796 -3.0099  1.3644
16270SOL     OW50677   2.118   2.494   3.764 -0.6078 -0.1941 -0.5252
16270SOL    HW150678   2.084   2.461   3.848  0.0313  2.0874  0.7167
16270SOL    HW250679   2.212   2.478   3.768 -0.6226 -0.3926 -0.9658
16271SOL     OW50680   8.242   6.094   5.752  0.1196  0.0638 -0.2906
16271SOL    HW150681   8.227   6.174   5.702  1.3397 -0.5095 -1.6205
16271SOL    HW250682   8.155   6.053   5.759 -0.3418  1.0025 -0.4376
16272SOL     OW50683   0.144   7.257   7.658 -0.3220  0.3225  0.0427
16272SOL    HW150684   0.185   7.208   7.729 -0.9770  1.0440  0.9451
16272SOL    HW250685   0.073   7.200   7.627 -0.2524  0.1493  0.2027
16273SOL     OW50686   0.118   3.417   8.275  0.5952 -0.6229  0.0374
16273SOL    HW150687   0.175   3.420   8.351  0.5638 -0.2104  0.0439
16273SOL    HW250688   0.131   3.501   8.231 -1.3655  0.2818  1.0216
16274SOL     OW50689   5.977   6.102   0.869  0.5278  0.1378 -0.7923
16274SOL    HW150690   6.011   6.038   0.807  0.4472  0.4216 -1.1338
16274SOL    HW250691   5.952   6.177   0.814  1.2525  0.7238 -0.3253
16275SOL     OW50692   7.820   8.996   3.609  0.5201 -0.5195 -0.4516
16275SOL    HW150693   7.795   9.088   3.600  0.0763 -0.3671  1.7804
16275SOL    HW250694   7.739   8.948   3.596  0.5137 -0.5291 -0.3715
16276SOL     OW50695   0.628   2.093   2.427  0.4265  0.0770  0.7481
16276SOL    HW150696   0.600   2.007   2.399 -1.0893  1.3838 -2.1807
16276SOL    HW250697   0.724   2.090   2.422  0.3496 -0.6319 -2.3803
16277SOL     OW50698   6.733   5.141   2.779  0.5293 -0.2204 -0.0631
16277SOL    HW150699   6.666   5.101   2.834  1.0385 -1.2901 -0.1848
16277SOL    HW250700   6.755   5.223   2.823  2.0878 -1.7857  2.2465
16278SOL     OW50701   0.373   8.465   0.856 -0.2834 -0.1930  0.1251
16278SOL    HW150702   0.327   8.549   0.853 -0.7284 -0.4543 -0.6453
16278SOL    HW250703   0.304   8.400   0.859  0.0443 -0.5158  2.6804
16279SOL     OW50704   3.190   0.697   1.209 -0.4530  0.0548  0.2600
16279SOL    HW150705   3.123   0.630   1.196 -0.6593 -0.1578  2.1473
16279SOL    HW250706   3.249   0.659   1.273  0.0385  1.2488  0.5347
16280SOL     OW50707   7.119   2.212   3.782  0.2527  0.0593 -0.6093
16280SOL    HW150708   7.139   2.301   3.754  0.0544  0.0604 -0.7503
16280SOL    HW250709   7.183   2.158   3.736  0.2198  0.1051 -0.7082
16281SOL     OW50710   1.070   7.194   0.524 -0.3592 -0.8805 -0.3824
16281SOL    HW150711   1.077   7.288   0.536 -0.0420 -1.0406  0.7249
16281SOL    HW250712   0.978   7.179   0.502 -0.2719 -0.2587 -1.2376
16282SOL     OW50713   5.468   1.471   1.071 -0.1545  0.6126  0.2257
16282SOL    HW150714   5.543   1.437   1.118  0.9971 -0.2572 -2.0580
16282SOL    HW250715   5.467   1.564   1.089  0.1032  0.2864  2.0448
16283SOL     OW50716   6.671   6.808   5.339 -0.0274 -0.3724 -0.9123
16283SOL    HW150717   6.753   6.798   5.291  1.2168  1.2746  0.6982
16283SOL    HW250718   6.654   6.720   5.375  1.1885 -0.6941 -1.0602
16284SOL     OW50719   4.138   5.920   0.509  0.4371  0.5142 -0.0568
16284SOL    HW150720   4.094   5.968   0.439 -0.3208  0.4369  0.3624
16284SOL    HW250721   4.076   5.922   0.582  0.2784 -1.3385 -0.1097
16285SOL     OW50722   8.436   7.052   7.320 -0.4418 -0.6337  0.1420
16285SOL    HW150723   8.491   7.126   7.294 -1.0779 -1.2424 -3.4683
16285SOL    HW250724   8.365   7.092   7.371  0.9813  0.7031  1.1870
16286SOL     OW50725   8.880   6.112   2.817  0.0070  0.4049  0.7085
16286SOL    HW150726   8.875   6.163   2.737 -0.1318 -0.0701  0.4103
16286SOL    HW250727   8.953   6.051   2.801  0.0576  0.3916  0.9893
16287SOL     OW50728   0.842   6.224   0.380  0.0512 -0.1563 -0.2977
16287SOL    HW150729   0.912   6.173   0.340 -0.1202 -1.0346  0.5087
16287SOL    HW250730   0.781   6.240   0.308 -0.4738 -2.1049 -0.3309
16288SOL     OW50731   1.223   0.734   5.565 -0.0656  0.1653 -0.5533
16288SOL    HW150732   1.297   0.786   5.597 -0.0806  0.0061 -0.2617
16288SOL    HW250733   1.232   0.649   5.610  0.1767 -0.2210 -1.3000
16289SOL     OW50734   5.489   4.701   1.608  0.8571  0.5893 -0.3584
16289SOL    HW150735   5.530   4.634   1.663 -0.2005  0.3877  0.2117
16289SOL    HW250736   5.395   4.680   1.610  0.7239  0.8709 -1.8373
16290SOL     OW50737   7.448   8.509   4.916  0.2566  0.3769  0.4389
16290SOL    HW150738   7.464   8.419   4.943 -0.2360 -0.3230 -1.4221
16290SOL    HW250739   7.392   8.501   4.838 -2.7919  2.3843  2.1897
16291SOL     OW50740   3.063   6.054   0.977 -0.1386  0.1157  0.1008
16291SOL    HW150741   3.092   6.145   0.971 -0.7271  0.3112  0.1929
16291SOL    HW250742   3.028   6.033   0.890  1.0160 -0.3851 -0.2673
16292SOL     OW50743   1.699   2.888   5.402  0.0681  0.3367 -0.1081
16292SOL    HW150744   1.794   2.879   5.396 -0.1698 -1.8072 -1.8986
16292SOL    HW250745   1.667   2.800   5.423 -1.5840  0.7818 -0.5500
16293SOL     OW50746   8.753   5.201   6.855  0.1565 -0.1664 -0.2539
16293SOL    HW150747   8.712   5.215   6.940  1.9540 -0.3965  0.6983
16293SOL    HW250748   8.830   5.258   6.856 -0.8815  1.4993 -2.6219
16294SOL     OW50749   3.222   8.295   1.541 -0.5087  0.6046  0.4624
16294SOL    HW150750   3.262   8.259   1.620 -2.1927  0.1733  1.1635
16294SOL    HW250751   3.291   8.291   1.475  0.5300 -0.2602  1.5613
16295SOL     OW50752   5.769   7.051   1.119  0.0294 -0.3311 -0.5812
16295SOL    HW150753   5.749   6.984   1.053 -1.5902 -0.4081 -0.0472
16295SOL    HW250754   5.745   7.133   1.076 -1.4220 -0.4146  0.0290
16296SOL     OW50755   8.077   8.466   8.431 -0.2486  0.0521  0.7681
16296SOL    HW150756   8.112   8.384   8.396  0.2645  1.0636 -1.2255
16296SOL    HW250757   7.982   8.453   8.430 -0.3470  0.3522 -2.0699
16297SOL     OW50758   0.453   6.030   3.820  0.7125  0.1921 -0.3901
16297SOL    HW150759   0.482   5.971   3.750 -1.2599 -2.8287  1.1255
16297SOL    HW250760   0.360   6.045   3.801  0.2671 -0.2908  1.2817
16298SOL     OW50761   6.250   6.407   5.438 -0.2555  0.1054  0.5570
16298SOL    HW150762   6.343   6.398   5.415 -0.2106  0.5439  0.5640
16298SOL    HW250763   6.204   6.359   5.368 -0.0855  0.9560 -0.1564
16299SOL     OW50764   0.046   2.740   5.081 -0.2973  0.2075 -0.5981
16299SOL    HW150765  -0.017   2.811   5.090  0.8347  1.1194  0.3625
16299SOL    HW250766   0.015   2.673   5.142 -1.1449  0.0273 -1.2133
16300SOL     OW50767   8.121   6.074   7.151 -0.5697 -0.1248  0.2577
16300SOL    HW150768   8.137   6.095   7.059  1.2364 -0.9502  0.3339
16300SOL    HW250769   8.058   6.140   7.181 -1.0581  0.2443 -1.5120
16301SOL     OW50770   4.641   8.048   2.214  0.1541  0.2778 -0.4159
16301SOL    HW150771   4.596   7.994   2.279  0.4540 -0.3938 -0.7527
16301SOL    HW250772   4.703   8.100   2.265 -2.1933  2.5685  0.2823
16302SOL     OW50773   8.905   5.156   0.640 -0.1564 -0.3362  0.4264
16302SOL    HW150774   8.968   5.215   0.681 -1.8784 -0.5184  3.6144
16302SOL    HW250775   8.842   5.135   0.709 -1.1503 -3.8097 -1.2885
16303SOL     OW50776   3.786   1.322   4.224 -0.2455  0.3208  0.0436
16303SOL    HW150777   3.761   1.292   4.137  0.0345  0.0648  0.0520
16303SOL    HW250778   3.861   1.268   4.248  1.3882  2.1597 -0.6688
16304SOL     OW50779   4.646   3.954   1.223  0.0164 -0.1221  0.2893
16304SOL    HW150780   4.657   3.897   1.147 -1.1232 -0.3482  0.2844
16304SOL    HW250781   4.561   3.996   1.210 -1.1564 -1.6633  2.4115
16305SOL     OW50782   4.071   0.688   0.662 -0.5474 -0.2704  0.1044
16305SOL    HW150783   3.994   0.730   0.702  1.2138  1.5272  1.8330
16305SOL    HW250784   4.104   0.630   0.731 -0.0762 -0.6351 -0.4260
16306SOL     OW50785   0.008   5.923   2.149 -0.3283 -0.5007  0.2035
16306SOL    HW150786   0.036   5.947   2.061 -2.4282  0.6031 -0.2182
16306SOL    HW250787  -0.070   5.870   2.136 -1.6222  1.0125  1.4006
16307SOL     OW50788   2.730   0.940   1.579 -0.1349  0.3491  0.5525
16307SOL    HW150789   2.820   0.907   1.584 -0.7205 -1.3778  0.3038
16307SOL    HW250790   2.689   0.889   1.510 -2.0649 -0.8352  2.4299
16308SOL     OW50791   2.804   8.245   8.088  0.1876  0.0962  0.0420
16308SOL    HW150792   2.807   8.288   8.003  1.4790 -1.5508 -0.8147
16308SOL    HW250793   2.728   8.186   8.082  0.3499 -0.1085 -0.0319
16309SOL     OW50794   8.940   3.505   3.506 -0.4083 -0.0069 -0.3039
16309SOL    HW150795   8.909   3.547   3.586 -2.2236 -0.2782 -0.8267
16309SOL    HW250796   8.863   3.497   3.451  0.5311 -1.0924 -1.5410
16310SOL     OW50797   8.144   8.674   1.246 -0.2347  0.2750 -0.2150
16310SOL    HW150798   8.149   8.580   1.226  0.5046  0.4203 -0.7400
16310SOL    HW250799   8.066   8.682   1.301  0.3372 -0.8077  0.7948
16311SOL     OW50800   8.781   6.537   8.658  0.0323  0.0146 -0.0536
16311SOL    HW150801   8.726   6.612   8.637 -0.9954  0.6853  4.0395
16311SOL    HW250802   8.869   6.573   8.666  0.0338  0.1921 -0.8188
16312SOL     OW50803   1.659   3.048   6.028  0.2064  0.4604  0.6613
16312SOL    HW150804   1.649   3.137   5.995  0.5251  0.4027  0.4039
16312SOL    HW250805   1.704   3.001   5.958 -0.7441 -0.1325  0.4309
16313SOL     OW50806   4.557   7.743   0.561 -0.1283 -0.5393  0.2101
16313SOL    HW150807   4.522   7.654   0.562 -0.3710 -0.4418  1.1776
16313SOL    HW250808   4.590   7.756   0.650 -1.1111  0.7391  0.4058
16314SOL     OW50809   8.609   6.380   8.224  0.6271  0.1048  0.1207
16314SOL    HW150810   8.579   6.346   8.139  1.2324 -3.4755  1.1552
16314SOL    HW250811   8.534   6.367   8.282  1.0138  0.1946  0.6441
16315SOL     OW50812   0.548   1.460   8.499  0.0903 -0.1877  1.0644
16315SOL    HW150813   0.586   1.456   8.587  0.3275 -0.1100  0.9685
16315SOL    HW250814   0.602   1.399   8.448  0.4693  0.3792  0.7841
16316SOL     OW50815   0.162   0.813   6.560  0.0887 -0.4437 -0.1140
16316SOL    HW150816   0.177   0.855   6.645  0.1488 -1.2837  0.3001
16316SOL    HW250817   0.198   0.875   6.497 -0.5124  0.4821  0.4127
16317SOL     OW50818   2.382   7.827   6.531  0.0623  0.2756  0.3618
16317SOL    HW150819   2.324   7.815   6.457 -0.8163 -1.1411  1.2462
16317SOL    HW250820   2.464   7.860   6.492 -0.7317  0.6408 -1.0755
16318SOL     OW50821   7.396   1.670   2.536 -0.0030  0.1293  0.1991
16318SOL    HW150822   7.487   1.682   2.562 -0.0403 -0.2827  0.5344
16318SOL    HW250823   7.401   1.625   2.452  0.1070  0.4717  0.0223
16319SOL     OW50824   7.110   1.772   8.059  0.1150  0.6968  0.4107
16319SOL    HW150825   7.119   1.701   8.123  0.5055  1.3941  1.1530
16319SOL    HW250826   7.195   1.778   8.017 -0.3479 -0.2307 -0.7076
16320SOL     OW50827   7.457   7.284   3.711  0.7460 -0.0755 -0.5856
16320SOL    HW150828   7.421   7.231   3.782  0.0415 -1.1596 -1.7301
16320SOL    HW250829   7.381   7.316   3.663  1.1496  1.9578  0.0128
16321SOL     OW50830   3.552   3.900   0.483  0.2514 -0.1940  0.4573
16321SOL    HW150831   3.544   3.896   0.578  0.9001  0.4297  0.5491
16321SOL    HW250832   3.594   3.817   0.459  0.8066 -0.0196  0.8026
16322SOL     OW50833   1.489   0.005   7.764 -0.2007  0.7041  0.0389
16322SOL    HW150834   1.485   0.024   7.858 -1.0190  0.6001  0.0329
16322SOL    HW250835   1.579  -0.024   7.749 -0.5975 -1.2763  1.1914
16323SOL     OW50836   5.199   7.247   2.489 -0.3538 -0.0795 -0.4576
16323SOL    HW150837   5.273   7.241   2.429  0.8712 -0.0471  0.9878
16323SOL    HW250838   5.129   7.287   2.437  1.3450  2.0362 -1.2767
16324SOL     OW50839   1.817   3.956   5.621 -0.4619  0.0944 -0.2627
16324SOL    HW150840   1.909   3.964   5.645 -0.3094  0.8315 -0.9964
16324SOL    HW250841   1.819   3.940   5.526 -1.0477 -1.7942  0.0082
16325SOL     OW50842   6.194   5.933   2.201 -0.0129  0.0972  0.0283
16325SOL    HW150843   6.126   5.973   2.148 -0.4773 -0.8556 -0.1223
16325SOL    HW250844   6.226   6.003   2.258 -0.8818  0.6379 -0.1447
16326SOL     OW50845   2.588   2.509   4.424 -0.5961  0.1718 -0.6188
16326SOL    HW150846   2.575   2.553   4.340 -3.2333 -0.6492 -0.7273
16326SOL    HW250847   2.594   2.416   4.402 -0.2433  0.0373  0.0240
16327SOL     OW50848   3.587   8.990   5.783  0.6282 -0.0035  0.0258
16327SOL    HW150849   3.547   9.036   5.709  1.1195 -0.3289 -0.4508
16327SOL    HW250850   3.679   8.980   5.758  0.4309 -1.7204 -0.1348
16328SOL     OW50851   8.169   4.643   1.414 -0.2724 -0.2290  0.4070
16328SOL    HW150852   8.206   4.611   1.332 -0.1694 -0.4162  0.5239
16328SOL    HW250853   8.233   4.616   1.481  0.0115  0.5617  0.4636
16329SOL     OW50854   3.403   1.944   4.871  0.0246 -0.3349  0.0305
16329SOL    HW150855   3.414   1.923   4.778  1.1762  0.6166 -0.0773
16329SOL    HW250856   3.312   1.923   4.890 -1.0121  1.9405 -1.9875
16330SOL     OW50857   6.155   0.529   8.219 -0.1640  0.6517 -0.6402
16330SOL    HW150858   6.243   0.561   8.196 -0.0869  1.7464  1.0139
16330SOL    HW250859   6.101   0.553   8.144  0.9868 -0.4039 -1.8774
16331SOL     OW50860   0.611   1.595   4.482 -0.6746  0.0644 -0.0989
16331SOL    HW150861   0.611   1.571   4.575  0.7686  1.3695  0.2897
16331SOL    HW250862   0.519   1.608   4.460 -0.9347  2.0122  1.8283
16332SOL     OW50863   2.055   3.442   6.944 -0.0426 -0.1869  0.4682
16332SOL    HW150864   2.096   3.491   6.873  1.5534 -0.9989  0.7897
16332SOL    HW250865   2.020   3.363   6.902  0.0205 -0.1932  0.4275
16333SOL     OW50866   6.589   3.614   3.805 -0.3162 -0.0739 -0.4148
16333SOL    HW150867   6.631   3.700   3.800 -1.0191  0.2769 -0.4016
16333SOL    HW250868   6.555   3.599   3.716 -2.0305  0.6133  0.0979
16334SOL     OW50869   0.506   5.174   0.633  0.0285 -0.6302 -0.3372
16334SOL    HW150870   0.476   5.091   0.594 -1.4448 -0.6080  0.6687
16334SOL    HW250871   0.493   5.162   0.727 -2.1804  1.4285 -0.2789
16335SOL     OW50872   4.130   8.896   0.430 -0.1079 -0.5505 -0.1303
16335SOL    HW150873   4.069   8.832   0.467  1.5879 -0.9864  2.1170
16335SOL    HW250874   4.179   8.847   0.363 -0.6070 -0.8433 -0.2825
16336SOL     OW50875   1.473   2.665   6.345  0.2886  0.4311  0.7023
16336SOL    HW150876   1.519   2.740   6.305 -1.7272  2.1166  1.3650
16336SOL    HW250877   1.388   2.663   6.301 -0.6514  0.1476  2.4423
16337SOL     OW50878   4.483   2.548   3.420 -0.4669  0.5223  0.0327
16337SOL    HW150879   4.569   2.508   3.437  0.6715  2.5356 -0.6865
16337SOL    HW250880   4.433   2.479   3.375  0.7282 -0.7098  0.5078
16338SOL     OW50881   8.168   0.056   5.962 -0.3065  0.1265 -0.4851
16338SOL    HW150882   8.230  -0.012   5.987  1.1018  0.9719 -1.4790
16338SOL    HW250883   8.103   0.011   5.908 -0.5090 -0.7605  0.4847
16339SOL     OW50884   8.885   4.952   7.221  0.5668 -0.0100 -1.0087
16339SOL    HW150885   8.855   5.043   7.219  0.1737 -0.1440 -2.2092
16339SOL    HW250886   8.973   4.957   7.257 -0.2213  0.5912  0.9900
16340SOL     OW50887   1.094   8.754   0.319  0.0304  0.0182  0.2062
16340SOL    HW150888   1.189   8.768   0.325  0.3459 -1.8522  0.3287
16340SOL    HW250889   1.080   8.672   0.367 -1.8737  1.0172  1.4775
16341SOL     OW50890   7.347   3.623   2.408 -0.3237  0.1115  0.0639
16341SOL    HW150891   7.281   3.657   2.347 -0.3722 -0.4352 -0.1905
16341SOL    HW250892   7.315   3.537   2.433 -0.0562  0.1335  0.4866
16342SOL     OW50893   0.276   7.491   8.611 -0.1074  0.6215 -0.2304
16342SOL    HW150894   0.262   7.423   8.677 -0.6211 -0.9580 -1.8945
16342SOL    HW250895   0.191   7.502   8.568  0.2951  1.3773 -0.8671
16343SOL     OW50896   6.099   5.593   7.841 -0.0615  0.3532 -0.9504
16343SOL    HW150897   6.090   5.571   7.748  0.9531 -2.6386 -0.4628
16343SOL    HW250898   6.015   5.632   7.864 -0.7085  0.2375 -2.8987
16344SOL     OW50899   1.543   2.585   3.966 -0.6455 -0.1754  0.0681
16344SOL    HW150900   1.483   2.538   4.024  0.0756  1.5151  2.3574
16344SOL    HW250901   1.572   2.520   3.902 -0.4606 -2.5803  2.4467
16345SOL     OW50902   7.304   5.575   2.476  0.2899  0.3285 -0.4574
16345SOL    HW150903   7.293   5.521   2.398  2.7714 -2.0904  0.6823
16345SOL    HW250904   7.263   5.525   2.547 -1.4220  2.2130 -0.0267
16346SOL     OW50905   5.147   1.039   6.810  0.1584  0.4662  0.0392
16346SOL    HW150906   5.190   0.999   6.886 -0.2637 -0.6969 -0.3175
16346SOL    HW250907   5.093   1.109   6.848  1.3336  1.0996  0.6140
16347SOL     OW50908   2.592   7.626   4.931  0.0327 -0.1286 -0.3886
16347SOL    HW150909   2.555   7.699   4.882  0.4351 -0.0936 -0.6454
16347SOL    HW250910   2.571   7.645   5.023 -0.2259  0.0922 -0.4931
16348SOL     OW50911   7.279   1.466   6.567  0.1426  0.0758 -0.2680
16348SOL    HW150912   7.257   1.558   6.585  1.4435  0.8847 -2.4144
16348SOL    HW250913   7.371   1.459   6.589  0.1134 -0.6680 -0.3770
16349SOL     OW50914   3.192   5.710   1.017 -0.0076  0.5028 -0.2128
16349SOL    HW150915   3.256   5.730   1.085  1.2695  1.9946 -1.7398
16349SOL    HW250916   3.188   5.790   0.964 -2.8092  0.2974 -0.4858
16350SOL     OW50917   2.383   2.428   2.170 -0.4071 -0.1305  0.2122
16350SOL    HW150918   2.412   2.471   2.251  1.6829 -2.3890  0.7980
16350SOL    HW250919   2.297   2.467   2.151  0.4715  2.8036  1.6731
16351SOL     OW50920   0.341   0.426   6.872 -0.2821  0.0594 -0.2338
16351SOL    HW150921   0.278   0.394   6.936 -0.5915  0.3396 -0.3982
16351SOL    HW250922   0.288   0.466   6.803  0.1005  3.5543  1.2933
16352SOL     OW50923   3.347   4.744   3.036  0.6615  0.2793 -0.4664
16352SOL    HW150924   3.392   4.777   2.959 -2.0585  0.3890 -2.1401
16352SOL    HW250925   3.291   4.816   3.065  1.6368  0.2611  1.7273
16353SOL     OW50926   5.320   1.287   4.509  0.0111 -0.1472 -0.6046
16353SOL    HW150927   5.279   1.348   4.571 -1.9405 -1.5009 -0.4639
16353SOL    HW250928   5.327   1.338   4.428 -0.1329  0.7476 -0.0710
16354SOL     OW50929   1.446   8.178   4.462  0.2856 -0.7645  0.5451
16354SOL    HW150930   1.489   8.197   4.546  1.0741  1.1254 -0.2302
16354SOL    HW250931   1.505   8.215   4.397 -0.8555 -1.2338 -0.7856
16355SOL     OW50932   4.326   1.836   2.379  0.0144  0.1287  0.2275
16355SOL    HW150933   4.381   1.833   2.457  1.0613  0.7773 -0.4689
16355SOL    HW250934   4.349   1.918   2.336  2.0295 -1.7516 -2.5882
16356SOL     OW50935   2.850   2.687   3.020  0.4399 -0.1547 -0.4836
16356SOL    HW150936   2.846   2.593   3.003 -0.4005 -0.2194  0.0003
16356SOL    HW250937   2.937   2.714   2.992  0.9683 -1.2315  0.0855
16357SOL     OW50938   0.872   6.014   8.400 -0.6032 -0.4160 -0.0233
16357SOL    HW150939   0.844   6.081   8.337 -1.4821 -0.7996 -0.0476
16357SOL    HW250940   0.927   6.062   8.462  0.5657 -0.0966 -1.2564
16358SOL     OW50941   3.312   6.816   7.322 -0.1767  0.5920 -0.1177
16358SOL    HW150942   3.313   6.784   7.232  0.4216  0.6661 -0.1398
16358SOL    HW250943   3.242   6.766   7.364  0.8484 -0.8885 -0.1012
16359SOL     OW50944   7.997   5.081   8.720 -0.0964  0.0899  0.4190
16359SOL    HW150945   7.912   5.050   8.691 -0.0225  1.7177 -1.7258
16359SOL    HW250946   7.984   5.173   8.743  1.3053  0.7888 -1.3197
16360SOL     OW50947   6.820   2.117   2.826 -0.1536  0.4851 -0.4983
16360SOL    HW150948   6.831   2.029   2.790  0.1486  0.7429 -1.0487
16360SOL    HW250949   6.730   2.140   2.807 -1.2721 -0.9459  2.4754
16361SOL     OW50950   4.842   7.603   4.885 -0.9053  0.2099 -1.3865
16361SOL    HW150951   4.819   7.512   4.903 -1.0874  0.9177  3.3228
16361SOL    HW250952   4.936   7.608   4.900 -0.6422  0.5932 -3.0079
16362SOL     OW50953   3.831   1.445   0.629 -0.4965  0.6277  0.0084
16362SOL    HW150954   3.844   1.350   0.624  0.0354  0.6772  0.3683
16362SOL    HW250955   3.912   1.482   0.593  0.4662  0.9465  2.3549
16363SOL     OW50956   5.950   4.728   0.272  0.5225 -0.2210  0.1665
16363SOL    HW150957   5.867   4.681   0.278  0.3667 -0.0344 -0.4767
16363SOL    HW250958   5.972   4.728   0.178  0.8810  0.3613  0.2432
16364SOL     OW50959   5.269   6.162   0.037 -0.4192  0.0397  0.9909
16364SOL    HW150960   5.173   6.162   0.039 -0.4446 -0.1822 -0.0159
16364SOL    HW250961   5.292   6.080  -0.006  0.1472  1.2075 -1.0859
16365SOL     OW50962   2.445   5.580   5.967  0.6479  0.6131  0.4831
16365SOL    HW150963   2.529   5.600   6.007  0.4527  0.0150  1.1983
16365SOL    HW250964   2.461   5.590   5.873  1.8509 -0.6926  0.5219
16366SOL     OW50965   7.409   6.664   1.094 -0.1665 -0.2446  0.1602
16366SOL    HW150966   7.460   6.668   1.175 -0.4729 -1.0129  0.4007
16366SOL    HW250967   7.369   6.751   1.087 -1.2695 -0.5789  1.6046
16367SOL     OW50968   3.198   4.742   4.673  0.1882 -0.3188  0.2215
16367SOL    HW150969   3.106   4.729   4.651  0.0333 -0.0738  0.6988
16367SOL    HW250970   3.225   4.820   4.624  1.1356 -2.3256 -2.6974
16368SOL     OW50971   5.352   1.588   3.322  0.5235  0.6590 -0.4898
16368SOL    HW150972   5.298   1.517   3.287  1.0718  0.6369 -1.2987
16368SOL    HW250973   5.435   1.547   3.346 -0.0860  0.5121  1.6133
16369SOL     OW50974   5.128   5.558   5.125 -0.1780 -0.1267  0.4969
16369SOL    HW150975   5.132   5.469   5.088 -0.3464 -0.1542  0.5449
16369SOL    HW250976   5.042   5.563   5.165 -0.7603  0.5637 -0.7812
16370SOL     OW50977   2.050   5.332   1.304  0.4809  0.0059  0.5835
16370SOL    HW150978   2.089   5.399   1.248  1.2353  1.3669  2.6487
16370SOL    HW250979   2.114   5.260   1.304 -0.4219 -0.9277 -1.7961
16371SOL     OW50980   5.349   8.307   7.889 -0.3460  0.2847 -0.1840
16371SOL    HW150981   5.345   8.400   7.865  2.8133  0.6350  0.1099
16371SOL    HW250982   5.376   8.263   7.808 -2.1860 -0.4789 -0.4172
16372SOL     OW50983   0.094   8.383   7.940  0.9076  0.0908 -0.7988
16372SOL    HW150984   0.155   8.327   7.890 -1.4489 -1.9366 -1.6062
16372SOL    HW250985   0.102   8.351   8.030  1.1383 -0.0502 -0.8663
16373SOL     OW50986   0.249   0.036   5.828 -0.0059 -0.3293 -0.4074
16373SOL    HW150987   0.193   0.015   5.903  0.5908  1.7843  0.7239
16373SOL    HW250988   0.335   0.003   5.853  0.3482  0.9841  0.2013
16374SOL     OW50989   2.348   7.559   8.362 -0.2964 -1.0048  0.6324
16374SOL    HW150990   2.407   7.574   8.288 -0.4881 -2.3430  0.1769
16374SOL    HW250991   2.376   7.475   8.398 -0.1210 -0.3137  2.1977
16375SOL     OW50992   2.102   0.997   4.805 -0.6104 -0.7076  0.1413
16375SOL    HW150993   2.160   1.059   4.761 -0.9283 -1.1279 -0.9023
16375SOL    HW250994   2.158   0.952   4.868 -0.4779  0.9642  1.2945
16376SOL     OW50995   4.208   1.545   8.991 -0.1231  0.3345 -0.1919
16376SOL    HW150996   4.264   1.499   9.054 -1.4359 -0.5502  0.3819
16376SOL    HW250997   4.234   1.509   8.906 -1.2997 -1.7682  0.2572
16377SOL     OW50998   1.140   7.053   6.976  0.3413 -0.4104 -0.2283
16377SOL    HW150999   1.144   7.054   7.071 -0.0398 -2.1095 -0.1586
16377SOL    HW251000   1.172   7.139   6.949 -2.3323  1.2700  1.5060
16378SOL     OW51001   6.961   6.167   4.907 -0.0449 -0.4891  0.0099
16378SOL    HW151002   6.965   6.262   4.898 -0.0855 -0.5772 -1.0075
16378SOL    HW251003   7.009   6.149   4.988  1.2584  0.2745 -0.5517
16379SOL     OW51004   6.957   4.322   3.093  0.2808  0.0985 -0.1094
16379SOL    HW151005   6.897   4.393   3.118 -2.4348 -1.6963 -1.0917
16379SOL    HW251006   7.044   4.357   3.112 -1.0683  2.3383  2.7796
16380SOL     OW51007   6.729   2.717   4.879  0.2545 -0.0823  0.9107
16380SOL    HW151008   6.784   2.641   4.862  1.8203  0.9444  1.2217
16380SOL    HW251009   6.789   2.791   4.879 -1.3589  1.3235 -0.5006
16381SOL     OW51010   6.729   0.400   1.570  0.4815 -0.3776 -0.3581
16381SOL    HW151011   6.736   0.458   1.646  0.2125 -1.3904  0.4655
16381SOL    HW251012   6.800   0.428   1.512  0.5174  0.5932  0.1419
16382SOL     OW51013   4.589   5.888   5.456  0.0295  0.5027  0.1719
16382SOL    HW151014   4.613   5.838   5.533 -0.3945 -1.3214 -0.8337
16382SOL    HW251015   4.551   5.824   5.395  2.1911  1.4429 -2.3755
16383SOL     OW51016   0.097   2.353   5.582 -0.4156  0.2364  0.6765
16383SOL    HW151017   0.075   2.430   5.635 -0.3747  3.1660 -3.1338
16383SOL    HW251018   0.013   2.319   5.552 -0.4107 -1.1095  2.0389
16384SOL     OW51019   3.386   6.164   5.761 -0.1726  0.2879  0.6484
16384SOL    HW151020   3.410   6.256   5.752 -0.9960  0.7399  2.4316
16384SOL    HW251021   3.468   6.116   5.754  0.2153  1.1081 -0.6927
16385SOL     OW51022   6.575   1.652   6.057  0.7774  0.3281  0.8250
16385SOL    HW151023   6.620   1.645   6.141 -0.6200  1.3839  1.7148
16385SOL    HW251024   6.626   1.716   6.007  3.1908 -2.2666 -0.2807
16386SOL     OW51025   5.402   6.756   0.448 -0.3733 -0.2907  0.4608
16386SOL    HW151026   5.487   6.787   0.418  0.0191 -1.9926 -0.2978
16386SOL    HW251027   5.338   6.808   0.399  0.1887  1.1431  1.1830
16387SOL     OW51028   4.732   6.349   2.214  1.1202 -0.1565  0.0713
16387SOL    HW151029   4.785   6.311   2.284  1.2657  0.1816  0.1489
16387SOL    HW251030   4.791   6.412   2.171  0.5850  0.7100  0.5865
16388SOL     OW51031   3.967   8.827   2.353  0.3060  0.1996  0.0531
16388SOL    HW151032   3.881   8.825   2.394  1.0449 -0.8128  1.6633
16388SOL    HW251033   3.985   8.920   2.340  0.0510  0.5883  2.1443
16389SOL     OW51034   6.288   8.463   0.048  0.6283 -0.1826 -0.4059
16389SOL    HW151035   6.249   8.498   0.128  1.7854  0.4727 -0.1093
16389SOL    HW251036   6.374   8.431   0.075  1.1511  0.3178 -1.4384
16390SOL     OW51037   4.967   3.517   2.671  0.1802  0.4875 -0.3215
16390SOL    HW151038   4.937   3.531   2.761  3.1821  1.4831  0.6269
16390SOL    HW251039   5.014   3.433   2.673  0.4065  0.5899 -0.9350
16391SOL     OW51040   8.008   1.079   5.286  0.5161  0.5836  0.3122
16391SOL    HW151041   7.963   1.156   5.251 -1.6443 -0.3829  0.7866
16391SOL    HW251042   7.969   1.005   5.240  2.6139 -0.2788 -0.2071
16392SOL     OW51043   0.711   3.087   0.412 -0.0177  0.1235 -0.0708
16392SOL    HW151044   0.729   3.149   0.341 -0.3344 -0.6553 -0.8458
16392SOL    HW251045   0.707   3.142   0.491 -0.0419  1.0513 -0.6991
16393SOL     OW51046   7.418   3.976   2.873  0.4414 -0.2785 -0.3142
16393SOL    HW151047   7.479   4.003   2.804  0.7469 -1.3967 -0.4943
16393SOL    HW251048   7.473   3.933   2.939  0.2614  1.3928  0.9997
16394SOL     OW51049   4.305   3.953   2.164  0.4599 -0.0562  0.0690
16394SOL    HW151050   4.386   3.999   2.139 -0.6248  0.8008 -2.1989
16394SOL    HW251051   4.260   3.939   2.081 -1.9916  0.0042  1.3169
16395SOL     OW51052   0.754   7.289   1.731 -0.1314  0.6835  0.3713
16395SOL    HW151053   0.808   7.223   1.775 -0.3180 -0.0635 -0.4980
16395SOL    HW251054   0.680   7.302   1.790 -0.0527  0.1762  0.5851
16396SOL     OW51055   2.511   0.332   1.279 -0.3235 -0.8813  0.1288
16396SOL    HW151056   2.435   0.371   1.236  0.5520  0.8142  0.0196
16396SOL    HW251057   2.483   0.243   1.302 -1.6711 -0.9580 -1.6224
16397SOL     OW51058   4.531   8.959   8.466  0.2722 -0.0968  0.1251
16397SOL    HW151059   4.624   8.966   8.445  0.1553  2.6953  0.1159
16397SOL    HW251060   4.528   8.951   8.561  0.5682  2.1546  0.3918
16398SOL     OW51061   3.583   3.399   4.432  0.2963 -0.1816  0.3812
16398SOL    HW151062   3.668   3.378   4.392 -0.1090 -1.4175  0.1174
16398SOL    HW251063   3.562   3.322   4.485 -0.7412  0.0258  0.2920
16399SOL     OW51064   3.375   2.456   5.993 -0.2243  0.0630  0.4964
16399SOL    HW151065   3.450   2.515   5.980 -1.2851  1.3800  0.1449
16399SOL    HW251066   3.395   2.411   6.075 -0.3186  2.4954  1.9864
16400SOL     OW51067   8.103   5.307   5.340  0.2735 -0.0389 -0.5821
16400SOL    HW151068   8.143   5.232   5.384  1.0510  1.1464  0.8295
16400SOL    HW251069   8.011   5.306   5.369  0.6944  0.5266  0.8493
16401SOL     OW51070   5.290   5.791   4.483  0.1265  0.9192  1.1343
16401SOL    HW151071   5.312   5.879   4.450  2.3037  0.8407  2.2283
16401SOL    HW251072   5.340   5.783   4.564  0.1838 -1.4454  0.9176
16402SOL     OW51073   2.063   2.120   8.262 -0.4377 -0.4441 -0.6254
16402SOL    HW151074   2.087   2.151   8.349 -1.4459  1.4845 -0.9782
16402SOL    HW251075   2.139   2.139   8.208 -0.8578  1.1215 -0.7312
16403SOL     OW51076   2.780   8.290   3.695 -0.3894 -0.0386 -0.0078
16403SOL    HW151077   2.797   8.352   3.766  0.5450  1.0143 -1.1068
16403SOL    HW251078   2.843   8.314   3.627 -1.6836 -0.5983 -1.4567
16404SOL     OW51079   7.390   7.413   7.704  0.5510  0.1491  0.4125
16404SOL    HW151080   7.350   7.327   7.692  0.5998  0.1613  0.1551
16404SOL    HW251081   7.420   7.438   7.616  1.2577  0.0739  0.6278
16405SOL     OW51082   6.052   6.389   1.480 -0.5215 -0.2919 -0.1335
16405SOL    HW151083   6.068   6.483   1.484  0.2611 -0.4487  0.5968
16405SOL    HW251084   5.975   6.376   1.536 -0.4234 -0.1363  0.0386
16406SOL     OW51085   4.452   5.691   7.075 -0.0436 -0.3990 -0.1351
16406SOL    HW151086   4.359   5.706   7.057  0.0180 -0.2374 -0.3232
16406SOL    HW251087   4.491   5.779   7.075  0.0172 -0.4190  0.4580
16407SOL     OW51088   5.133   6.677   1.149  0.3503  0.1034  0.7875
16407SOL    HW151089   5.216   6.641   1.119  2.1993  4.2233  0.2974
16407SOL    HW251090   5.076   6.674   1.071  0.4334 -1.4584  0.7454
16408SOL     OW51091   7.703   6.343   6.704  0.4769 -0.2403  0.3588
16408SOL    HW151092   7.764   6.351   6.631 -0.0078  0.8793  0.0545
16408SOL    HW251093   7.757   6.357   6.782  0.8180 -0.4788  0.1686
16409SOL     OW51094   2.322   8.194   6.783  0.2432  0.1718 -0.2219
16409SOL    HW151095   2.364   8.109   6.793 -0.7526 -0.4233 -0.9313
16409SOL    HW251096   2.355   8.246   6.857  1.5120 -0.5463 -0.2635
16410SOL     OW51097   6.679   3.117   6.101  0.1369 -0.0672 -0.3553
16410SOL    HW151098   6.714   3.184   6.041  0.1865  1.7842  1.6251
16410SOL    HW251099   6.584   3.124   6.090  0.0682  1.4598  0.9299
16411SOL     OW51100   4.928   0.579   7.066 -0.6295 -0.5220  0.1099
16411SOL    HW151101   5.016   0.543   7.075 -0.2611  0.0971 -0.9267
16411SOL    HW251102   4.893   0.540   6.986 -1.1628 -0.4875  0.3194
16412SOL     OW51103   5.721   7.472   4.903  0.2596 -0.3085 -0.0427
16412SOL    HW151104   5.626   7.466   4.895  0.3043  0.2310 -1.1013
16412SOL    HW251105   5.754   7.449   4.816  1.1061 -0.6268  0.3537
16413SOL     OW51106   3.572   6.839   3.897 -0.0850 -0.2708 -0.2289
16413SOL    HW151107   3.550   6.925   3.861  1.8710 -0.0372 -1.0151
16413SOL    HW251108   3.603   6.789   3.822  0.1333 -1.1819  0.4518
16414SOL     OW51109   2.509   8.835   3.996  0.2111 -0.2927  0.2932
16414SOL    HW151110   2.555   8.911   3.960 -0.5639 -0.2205 -0.5759
16414SOL    HW251111   2.560   8.760   3.965 -0.5331 -0.2426 -1.1574
16415SOL     OW51112   3.405   5.785   1.166 -0.2589 -0.2239 -0.1944
16415SOL    HW151113   3.479   5.767   1.108  0.1145 -0.7218  0.4268
16415SOL    HW251114   3.425   5.869   1.206  0.4552 -0.8040  0.7024
16416SOL     OW51115   8.601   8.470   4.107  0.7260  0.2426 -0.0872
16416SOL    HW151116   8.507   8.482   4.117  0.7671  1.6654 -1.0042
16416SOL    HW251117   8.619   8.497   4.016  1.9705 -0.2683 -0.0134
16417SOL     OW51118   3.242   8.981   3.345 -0.2143 -0.2070  0.9879
16417SOL    HW151119   3.310   8.962   3.409  0.1361 -0.9850  0.3978
16417SOL    HW251120   3.228   8.898   3.299  1.3777  0.9085 -1.7116
16418SOL     OW51121   1.366   1.406   8.701  0.2250 -0.6233 -0.6980
16418SOL    HW151122   1.277   1.409   8.737  0.2622 -1.1601 -0.5502
16418SOL    HW251123   1.394   1.497   8.699  1.2583 -0.6607  3.2161
16419SOL     OW51124   8.128   3.806   7.581 -0.1759 -0.4408  0.5321
16419SOL    HW151125   8.060   3.873   7.569 -0.0372 -0.3282  0.3765
16419SOL    HW251126   8.185   3.841   7.649 -0.6817 -0.8600  1.1877
16420SOL     OW51127   0.194   0.975   8.963  0.8360  0.3875  0.1538
16420SOL    HW151128   0.279   0.962   8.920  0.3471 -1.3553 -0.3892
16420SOL    HW251129   0.130   0.961   8.894  0.0684  2.6780  0.3237
16421SOL     OW51130   5.570   1.779   6.371 -0.6126  0.0564  0.2229
16421SOL    HW151131   5.602   1.690   6.382 -0.1691  0.4511  2.6241
16421SOL    HW251132   5.476   1.768   6.352 -0.5874 -0.9155  0.6019
16422SOL     OW51133   0.295   4.467   8.170  0.1646  0.2479  0.2786
16422SOL    HW151134   0.267   4.555   8.145 -0.9330  0.1158  0.9941
16422SOL    HW251135   0.221   4.411   8.148 -0.7906  0.0805  3.4828
16423SOL     OW51136   7.780   3.284   3.004 -0.4466 -0.0206  0.4945
16423SOL    HW151137   7.798   3.349   2.936 -1.0914  1.8890  2.0329
16423SOL    HW251138   7.689   3.259   2.990 -0.3646 -0.1696  0.2281
16424SOL     OW51139   3.676   4.135   6.448 -0.0595 -0.1041 -0.5249
16424SOL    HW151140   3.716   4.222   6.449 -1.8438  0.7944  2.3735
16424SOL    HW251141   3.740   4.079   6.493 -0.0484  0.2696 -0.0800
16425SOL     OW51142   3.856   8.091   7.764 -0.3630 -0.0366  0.1256
16425SOL    HW151143   3.939   8.087   7.716 -0.0096  1.1919  0.5866
16425SOL    HW251144   3.847   8.005   7.805 -0.1412 -0.7404 -1.2551
16426SOL     OW51145   4.553   0.536   6.452  0.1296 -0.5414  0.6948
16426SOL    HW151146   4.499   0.458   6.439  1.6085 -1.3221 -1.4814
16426SOL    HW251147   4.598   0.521   6.535 -0.7298 -1.2903  1.0364
16427SOL     OW51148   3.898   0.881   7.284 -0.2767  0.1261 -0.1225
16427SOL    HW151149   3.901   0.864   7.190  0.1552  0.0270 -0.0972
16427SOL    HW251150   3.816   0.928   7.298 -0.1873  0.4312 -0.5949
16428SOL     OW51151   2.209   5.422   8.008  0.2497 -0.1802  0.0446
16428SOL    HW151152   2.264   5.390   8.079  0.3621  2.3677  1.2115
16428SOL    HW251153   2.121   5.425   8.045 -0.0033 -0.4323 -0.5143
16429SOL     OW51154   8.930   0.550   8.316  0.5389 -0.5496  0.4198
16429SOL    HW151155   8.925   0.456   8.298 -1.6072 -0.2312 -1.0888
16429SOL    HW251156   8.844   0.584   8.289  1.6987  2.0556 -0.3273
16430SOL     OW51157   2.262   7.523   3.854 -0.2290  0.0648 -0.3478
16430SOL    HW151158   2.205   7.525   3.931  0.4238  1.3996  0.1306
16430SOL    HW251159   2.208   7.485   3.785 -0.8656 -1.0308  0.7291
16431SOL     OW51160   5.449   5.449   6.279 -0.2165 -0.0020 -0.5094
16431SOL    HW151161   5.442   5.432   6.373  0.7488  1.0566 -0.2196
16431SOL    HW251162   5.362   5.427   6.244 -1.4003  1.8721  1.0163
16432SOL     OW51163   3.395   1.612   6.867  0.5586  0.4651 -0.0084
16432SOL    HW151164   3.414   1.527   6.906 -0.0614  0.6749  0.7729
16432SOL    HW251165   3.300   1.617   6.863  0.5980  0.3927 -1.7205
16433SOL     OW51166   4.495   8.372   2.774 -0.3480 -0.2037 -0.3801
16433SOL    HW151167   4.486   8.283   2.808  2.3464 -0.4816 -0.2133
16433SOL    HW251168   4.446   8.371   2.692 -0.6579 -1.7212 -0.2115
16434SOL     OW51169   2.992   2.630   1.773 -0.4525  0.5227  0.2769
16434SOL    HW151170   2.939   2.625   1.853 -0.3113  0.7277  0.3827
16434SOL    HW251171   2.930   2.658   1.706 -0.6797 -0.1069  0.2135
16435SOL     OW51172   7.510   2.387   6.640  0.4375  0.0758 -0.2950
16435SOL    HW151173   7.445   2.438   6.590  0.9198 -0.2132 -1.2423
16435SOL    HW251174   7.475   2.386   6.729 -0.7080  0.1887 -0.7143
16436SOL     OW51175   8.712   5.737   1.343  0.0096  0.2826  0.2213
16436SOL    HW151176   8.665   5.781   1.273  0.5113  1.7593  0.7851
16436SOL    HW251177   8.651   5.671   1.375 -1.3298  1.5168  0.3083
16437SOL     OW51178   6.591   0.829   0.452  0.0085  0.3155 -0.1466
16437SOL    HW151179   6.616   0.776   0.527  0.4944  0.5895 -0.1113
16437SOL    HW251180   6.603   0.770   0.377  0.9073  0.4791 -0.1448
16438SOL     OW51181   7.057   2.526   1.072 -0.1486 -0.2922  0.3390
16438SOL    HW151182   6.983   2.586   1.059  0.6688  0.4138 -1.4680
16438SOL    HW251183   7.123   2.579   1.118  1.0019  0.6915 -2.2094
16439SOL     OW51184   4.975   8.894   0.917  0.1572 -0.0418  0.5858
16439SOL    HW151185   4.981   8.859   0.828 -0.1760 -1.1544  0.9886
16439SOL    HW251186   5.052   8.951   0.925 -0.8009  1.5922 -1.0363
16440SOL     OW51187   8.634   5.234   5.144 -0.4209  0.8032 -0.5963
16440SOL    HW151188   8.576   5.176   5.095 -1.5678 -0.8421  2.4233
16440SOL    HW251189   8.604   5.322   5.122 -1.8429  0.0953 -1.6714
16441SOL     OW51190   4.804   3.024   3.694  0.0531  0.4003  0.0999
16441SOL    HW151191   4.802   2.960   3.765 -1.1757 -0.8580 -0.9970
16441SOL    HW251192   4.814   3.108   3.738 -0.2841 -0.3616  1.7330
16442SOL     OW51193   8.318   5.647   7.956  0.1086  0.2259  0.7224
16442SOL    HW151194   8.281   5.606   8.034 -2.0887 -0.5194 -0.6163
16442SOL    HW251195   8.360   5.576   7.909 -0.4092  0.2452  0.2240
16443SOL     OW51196   3.638   0.821   8.438  0.7007  0.1827 -0.5627
16443SOL    HW151197   3.568   0.850   8.379  1.2677  0.9939 -0.8554
16443SOL    HW251198   3.622   0.869   8.519  1.0708  0.5737 -0.7193
16444SOL     OW51199   3.733   2.492   7.264  0.3923 -0.1297 -0.1628
16444SOL    HW151200   3.766   2.428   7.327  1.7459  0.8170  0.1361
16444SOL    HW251201   3.758   2.456   7.179 -0.8221 -1.0617 -0.1642
16445SOL     OW51202   6.023   2.807   2.493 -0.0861  0.0939 -0.6308
16445SOL    HW151203   5.962   2.843   2.557 -0.6109 -1.9408  0.1172
16445SOL    HW251204   5.975   2.810   2.410 -0.3839  0.4574 -0.4481
16446SOL     OW51205   0.953   3.060   2.881 -0.2035  0.3766  0.1781
16446SOL    HW151206   0.956   3.028   2.791 -0.5517  1.3476 -0.1926
16446SOL    HW251207   0.993   2.990   2.933  0.7959  0.1735 -0.8323
16447SOL     OW51208   7.936   2.457   4.204 -0.1488 -0.0448 -0.4214
16447SOL    HW151209   7.859   2.470   4.148  0.6796 -0.0784 -1.6241
16447SOL    HW251210   8.004   2.425   4.144  0.4578 -1.2340  0.8231
16448SOL     OW51211   4.406   4.901   7.414 -0.1137  0.3593 -0.3273
16448SOL    HW151212   4.387   4.808   7.427 -0.0890  0.4289  0.2687
16448SOL    HW251213   4.333   4.946   7.458  0.5656  0.6194  0.5719
16449SOL     OW51214   8.342   2.899   5.262 -0.4513 -0.5403 -0.5086
16449SOL    HW151215   8.347   2.994   5.255  0.9038 -0.5129  0.4657
16449SOL    HW251216   8.260   2.883   5.309 -0.7532  0.1271 -0.7875
16450SOL     OW51217   5.953   4.570   4.797 -0.3409 -0.6469 -0.0338
16450SOL    HW151218   5.909   4.655   4.796 -0.1729 -0.5185  1.4308
16450SOL    HW251219   5.914   4.522   4.724 -0.8072  0.4921 -0.5662
16451SOL     OW51220   0.660   5.556   4.989 -0.0216 -0.8911 -0.4721
16451SOL    HW151221   0.741   5.600   4.962 -0.3917  0.7540  0.9695
16451SOL    HW251222   0.691   5.479   5.038  0.6957  0.0040  0.5210
16452SOL     OW51223   2.669   7.862   6.590  0.1268  0.0504  0.3702
16452SOL    HW151224   2.729   7.902   6.528 -0.9894  0.2976 -0.5937
16452SOL    HW251225   2.678   7.768   6.574 -2.3273  0.1372 -2.4355
16453SOL     OW51226   5.167   1.095   1.646  0.5888  0.3670  0.6675
16453SOL    HW151227   5.222   1.088   1.568  0.5941 -1.5223  0.8057
16453SOL    HW251228   5.228   1.090   1.720  0.3999  0.1936  0.8112
16454SOL     OW51229   3.634   5.655   1.082 -0.0656  0.1770 -0.2222
16454SOL    HW151230   3.652   5.563   1.060 -0.5962 -0.1254  0.5844
16454SOL    HW251231   3.693   5.704   1.025 -0.7370 -0.6076 -1.6566
16455SOL     OW51232   5.046   7.540   6.813 -0.2949 -0.3732 -0.3368
16455SOL    HW151233   5.080   7.621   6.776 -2.1537  0.7462  0.2285
16455SOL    HW251234   5.062   7.549   6.907  1.9112 -1.9376 -0.4954
16456SOL     OW51235   8.347   5.775   0.256  0.3076 -0.2737  0.2474
16456SOL    HW151236   8.394   5.848   0.217 -1.7320  1.0672  0.1653
16456SOL    HW251237   8.279   5.753   0.192 -0.1664 -1.1473  1.0206
16457SOL     OW51238   2.217   2.137   1.533  0.4048  0.0034 -0.0193
16457SOL    HW151239   2.302   2.182   1.525  0.3848  0.1414  0.5364
16457SOL    HW251240   2.199   2.105   1.444  0.8109  0.3868 -0.2448
16458SOL     OW51241   6.788   6.899   0.321 -0.3079  0.4115  0.5050
16458SOL    HW151242   6.850   6.832   0.292 -1.1441  0.0370 -0.4726
16458SOL    HW251243   6.843   6.963   0.367  0.7892  0.0633 -0.2715
16459SOL     OW51244   0.868   8.586   8.834  0.2623  0.0329 -0.4430
16459SOL    HW151245   0.815   8.537   8.772  2.0040 -1.8280 -0.5580
16459SOL    HW251246   0.848   8.548   8.919 -1.3758  1.9143  0.0815
16460SOL     OW51247   7.247   3.049   8.701 -0.2663  0.0056  0.3530
16460SOL    HW151248   7.209   3.100   8.630 -1.5959 -2.6227 -0.9693
16460SOL    HW251249   7.187   2.976   8.714  1.9644 -1.7981  1.4285
16461SOL     OW51250   3.942   6.462   2.581 -0.0360 -0.5571 -0.3104
16461SOL    HW151251   3.884   6.406   2.632 -0.6442  0.7316  0.4673
16461SOL    HW251252   4.026   6.418   2.583 -0.6776 -1.8308 -0.3895
16462SOL     OW51253   4.407   3.509   5.636 -0.0204  0.3099 -0.1626
16462SOL    HW151254   4.361   3.520   5.720  0.4272 -0.6136  0.2184
16462SOL    HW251255   4.349   3.454   5.584  0.0424  0.2581 -0.1780
16463SOL     OW51256   4.545   7.087   2.505  0.6072 -0.1296 -0.0711
16463SOL    HW151257   4.527   7.049   2.419  2.2465 -0.5371 -0.2744
16463SOL    HW251258   4.567   7.011   2.560  1.7665  0.2939  0.0885
16464SOL     OW51259   1.602   6.684   8.662  0.5272 -0.3543 -0.4856
16464SOL    HW151260   1.567   6.627   8.594 -0.2548 -1.3427  0.6980
16464SOL    HW251261   1.695   6.663   8.665  0.3959 -0.9799 -0.6160
16465SOL     OW51262   4.820   0.156   7.871  0.1564  0.4781  0.0676
16465SOL    HW151263   4.807   0.250   7.887  0.2857  0.6391 -0.7469
16465SOL    HW251264   4.742   0.115   7.909 -0.6097  1.0445 -0.8325
16466SOL     OW51265   8.801   6.242   5.785 -0.4537  0.5577 -0.1829
16466SOL    HW151266   8.720   6.192   5.798 -0.5977  0.9555  0.4637
16466SOL    HW251267   8.870   6.182   5.812 -0.6254  0.6861  0.5648
16467SOL     OW51268   0.652   3.502   3.898  0.6445 -0.1960 -0.5968
16467SOL    HW151269   0.730   3.512   3.952 -0.5597  0.4707  1.1246
16467SOL    HW251270   0.639   3.407   3.892 -0.0835 -0.3176  1.7633
16468SOL     OW51271   7.972   8.589   5.406  0.1966  0.3168 -0.2342
16468SOL    HW151272   7.968   8.578   5.311  2.1751  0.7115 -0.4037
16468SOL    HW251273   8.032   8.521   5.435 -0.5775  0.0441  0.7964
16469SOL     OW51274   4.785   2.784   8.570  0.3124 -0.0604  0.3987
16469SOL    HW151275   4.753   2.797   8.481  0.5196 -1.2912  0.1282
16469SOL    HW251276   4.875   2.754   8.559 -0.1048 -1.5948  0.9419
16470SOL     OW51277   5.399   7.297   8.988  0.2993  0.1250 -0.2288
16470SOL    HW151278   5.401   7.219   9.044  2.0116 -0.5760 -1.1826
16470SOL    HW251279   5.401   7.370   9.049  2.5016 -0.6219  0.6932
16471SOL     OW51280   1.159   3.698   8.793 -0.2498  0.2457  0.7162
16471SOL    HW151281   1.116   3.613   8.780  1.6460 -0.5985 -0.4232
16471SOL    HW251282   1.115   3.757   8.732  0.9006 -0.8843 -1.2877
16472SOL     OW51283   8.419   1.282   8.902 -0.1384  1.3933 -0.6080
16472SOL    HW151284   8.450   1.195   8.927  0.4105  2.0619  1.2188
16472SOL    HW251285   8.482   1.313   8.837  0.9920  1.3028  0.4130
16473SOL     OW51286   4.316   3.747   7.690 -0.1754  0.0061  0.2602
16473SOL    HW151287   4.377   3.811   7.725  1.3436 -1.0368 -0.3497
16473SOL    HW251288   4.295   3.690   7.765 -0.4952  0.4274  0.4940
16474SOL     OW51289   7.215   8.081   2.701 -0.5176  0.5286 -0.1937
16474SOL    HW151290   7.311   8.084   2.696 -0.4940 -0.2266 -0.2011
16474SOL    HW251291   7.187   8.166   2.666  0.1222  0.4714 -0.8649
16475SOL     OW51292   5.967   8.502   8.431  0.1993 -0.2276  0.0986
16475SOL    HW151293   5.953   8.442   8.504 -0.0183 -0.5860 -0.2323
16475SOL    HW251294   5.880   8.515   8.393  0.3098 -0.0471 -0.0983
16476SOL     OW51295   1.889   5.041   0.551  0.0148 -0.2350  0.2484
16476SOL    HW151296   1.974   4.999   0.564 -0.5076 -1.6915 -0.8130
16476SOL    HW251297   1.826   4.969   0.551 -1.0737  0.6919 -0.1904
16477SOL     OW51298   7.399   7.421   5.834 -0.1544  0.2341  0.1855
16477SOL    HW151299   7.318   7.376   5.857 -0.0276  0.0047  0.1895
16477SOL    HW251300   7.382   7.458   5.748  0.5605 -1.9193 -0.9523
16478SOL     OW51301   1.170   1.761   2.314 -0.2074  0.4028  0.4313
16478SOL    HW151302   1.110   1.774   2.388 -0.1797 -0.2826  0.5770
16478SOL    HW251303   1.113   1.764   2.237 -0.5892 -1.1330  0.6156
16479SOL     OW51304   5.905   7.121   2.147 -0.3847  0.3233  0.1561
16479SOL    HW151305   5.898   7.217   2.146  1.6626  0.5255 -0.2064
16479SOL    HW251306   5.831   7.091   2.095  0.8884  1.9590 -2.9097
16480SOL     OW51307   4.503   6.151   0.543 -0.2963  0.4300 -0.6442
16480SOL    HW151308   4.551   6.232   0.564 -0.0703 -0.0807  0.9050
16480SOL    HW251309   4.488   6.110   0.628 -2.8637  0.1944 -1.1569
16481SOL     OW51310   7.420   3.587   1.592 -0.1620  0.2787 -0.2703
16481SOL    HW151311   7.414   3.679   1.617 -0.5039  0.8369 -2.2289
16481SOL    HW251312   7.407   3.539   1.674  1.0481  1.9502  0.9867
16482SOL     OW51313   5.742   2.926   7.066  0.8901 -0.1507  0.7357
16482SOL    HW151314   5.764   2.901   6.977 -0.4336  0.2687  0.2690
16482SOL    HW251315   5.816   2.979   7.095  0.6579  1.0189 -0.6854
16483SOL     OW51316   6.587   6.111   2.578  0.5852 -0.5272  0.0760
16483SOL    HW151317   6.570   6.017   2.587 -0.0626 -0.4963 -0.7654
16483SOL    HW251318   6.683   6.119   2.585  0.5892 -1.1515  0.8919
16484SOL     OW51319   1.250   0.428   6.686 -0.4538 -0.2863 -0.2135
16484SOL    HW151320   1.223   0.488   6.617 -1.3677  0.5593  0.8540
16484SOL    HW251321   1.342   0.449   6.702 -0.7079  0.6855  0.0028
16485SOL     OW51322   0.393   0.945   8.430  0.1676  0.6309  0.0242
16485SOL    HW151323   0.482   0.969   8.455 -0.2970  0.3319  2.1238
16485SOL    HW251324   0.376   0.864   8.478 -1.9231  1.7369  1.2638
16486SOL     OW51325   6.637   8.388   3.816  0.3561 -0.7049  0.5199
16486SOL    HW151326   6.597   8.473   3.794  0.5145 -0.8696 -0.4212
16486SOL    HW251327   6.638   8.387   3.912  0.4148  0.3881  0.5434
16487SOL     OW51328   0.416   1.930   6.769 -0.1667 -0.3895  0.0751
16487SOL    HW151329   0.510   1.944   6.780 -0.2495  0.2047  0.0660
16487SOL    HW251330   0.407   1.895   6.680  0.0016  0.0423 -0.1134
16488SOL     OW51331   4.327   5.359   5.867 -0.2163 -0.2869  0.0466
16488SOL    HW151332   4.281   5.373   5.949  2.5060 -3.6661  2.4368
16488SOL    HW251333   4.354   5.268   5.870  2.3343  0.1495 -3.4051
16489SOL     OW51334   7.457   2.525   2.527  0.2505 -0.0726 -0.1537
16489SOL    HW151335   7.410   2.481   2.598 -0.0723  0.4774 -0.0178
16489SOL    HW251336   7.437   2.618   2.539 -0.7053 -0.0522 -1.5956
16490SOL     OW51337   0.428   7.335   6.336 -0.0040 -0.0728 -0.6122
16490SOL    HW151338   0.340   7.300   6.346 -0.6753  1.6343 -0.1188
16490SOL    HW251339   0.419   7.406   6.273  1.2145 -0.4603 -1.2628
16491SOL     OW51340   0.008   0.193   5.773  0.2142 -0.5714 -0.0719
16491SOL    HW151341   0.030   0.179   5.866 -3.3507  1.6044  1.3009
16491SOL    HW251342  -0.031   0.110   5.745  0.2917 -0.8945  0.7534
16492SOL     OW51343   3.142   4.785   4.279  0.1749 -0.6574 -0.1099
16492SOL    HW151344   3.233   4.768   4.304  0.5465  1.8715  0.5954
16492SOL    HW251345   3.150   4.839   4.200 -0.7844 -1.8962 -1.0675
16493SOL     OW51346   8.027   4.311   6.407  0.0886 -0.5400 -0.6691
16493SOL    HW151347   8.085   4.387   6.406  0.1846 -0.5262  1.3283
16493SOL    HW251348   7.999   4.300   6.316  2.5727 -0.0430 -1.5678
16494SOL     OW51349   1.754   7.050   7.134 -0.4731  0.6223 -0.0650
16494SOL    HW151350   1.808   7.126   7.156 -0.1611 -0.1394  2.0345
16494SOL    HW251351   1.676   7.060   7.188 -0.6819 -0.2670 -0.1820
16495SOL     OW51352   3.863   8.493   4.494 -0.2874  0.6119  0.0559
16495SOL    HW151353   3.914   8.478   4.574  1.0419 -1.3259 -1.0696
16495SOL    HW251354   3.841   8.405   4.463 -0.9295  1.3267 -1.6285
16496SOL     OW51355   7.640   5.644   4.665  0.2336 -0.0776  0.0349
16496SOL    HW151356   7.602   5.563   4.700  1.5115 -0.7801 -0.1463
16496SOL    HW251357   7.679   5.687   4.742 -0.2797  0.2827  0.0985
16497SOL     OW51358   0.647   0.605   6.988  0.1439 -0.2028 -0.3937
16497SOL    HW151359   0.726   0.553   7.005  0.2225  0.4878  1.6059
16497SOL    HW251360   0.575   0.551   7.020 -0.0719 -0.1997 -0.8511
16498SOL     OW51361   7.995   2.295   8.359  0.6098 -0.5039  0.8110
16498SOL    HW151362   7.918   2.263   8.312  1.0427 -1.3508  0.6519
16498SOL    HW251363   8.041   2.350   8.295  0.5207 -0.5931  0.6713
16499SOL     OW51364   4.152   3.919   5.010 -0.5761  0.3303  0.2092
16499SOL    HW151365   4.137   3.825   5.002  2.0184 -0.3218  1.7539
16499SOL    HW251366   4.073   3.952   5.052 -1.3681 -1.2124  0.0065
16500SOL     OW51367   5.405   0.714   0.540  0.1691 -0.1415  0.3365
16500SOL    HW151368   5.425   0.699   0.632  0.3312  1.4604  0.5967
16500SOL    HW251369   5.456   0.792   0.517 -2.2552  1.3958 -0.2285
16501SOL     OW51370   4.236   4.619   7.651 -0.5085  0.5977 -0.1994
16501SOL    HW151371   4.289   4.611   7.731 -1.6594 -1.0055  0.4580
16501SOL    HW251372   4.298   4.649   7.584  1.4704 -1.9852  0.3242
16502SOL     OW51373   7.773   1.072   0.545 -0.1607 -0.5635 -0.0716
16502SOL    HW151374   7.824   1.147   0.576  0.4444 -0.4181 -1.3067
16502SOL    HW251375   7.684   1.087   0.577 -0.5262  1.7385 -1.9021
16503SOL     OW51376   7.982   8.308   6.427  0.0912  0.2412  0.2633
16503SOL    HW151377   7.894   8.272   6.442  0.5410 -1.2139 -0.4341
16503SOL    HW251378   8.019   8.317   6.515  0.1351 -1.5283  0.4706
16504SOL     OW51379   5.369   1.987   1.422  0.2527 -0.4867  0.3904
16504SOL    HW151380   5.444   1.978   1.363  0.1921  0.8223  0.0847
16504SOL    HW251381   5.326   2.067   1.394 -0.4396 -0.4540  1.4890
16505SOL     OW51382   0.353   0.138   6.751  0.5391 -0.1316  0.1175
16505SOL    HW151383   0.264   0.172   6.747  0.0208 -1.4440  0.0635
16505SOL    HW251384   0.390   0.157   6.665  0.5621  1.0334  0.3690
16506SOL     OW51385   3.565   1.621   7.119 -0.2391 -0.2807 -0.4781
16506SOL    HW151386   3.489   1.563   7.127 -0.2274 -0.1517  0.7750
16506SOL    HW251387   3.528   1.704   7.087 -0.6203 -0.2747 -0.0474
16507SOL     OW51388   3.993   0.494   1.436 -0.2216  0.3099 -0.0551
16507SOL    HW151389   4.044   0.559   1.389  2.2231 -0.8211  0.8493
16507SOL    HW251390   3.978   0.424   1.372  0.8325 -0.0827  0.1196
16508SOL     OW51391   6.087   6.589   6.080 -0.2500 -0.0789 -0.1564
16508SOL    HW151392   6.172   6.547   6.067 -0.0054  0.4626 -0.3349
16508SOL    HW251393   6.068   6.631   5.996 -1.2297 -1.1397 -0.4978
16509SOL     OW51394   2.686   6.620   6.714 -0.1467 -1.0014 -0.4243
16509SOL    HW151395   2.737   6.554   6.761  1.9672 -0.0753 -1.2972
16509SOL    HW251396   2.733   6.702   6.728 -2.9883  0.5440  1.0875
16510SOL     OW51397   2.716   2.999   7.129 -0.4602 -0.0112  0.4060
16510SOL    HW151398   2.658   2.937   7.084 -0.7587  0.0295  0.7354
16510SOL    HW251399   2.683   3.002   7.219  0.4547 -0.4983  0.7772
16511SOL     OW51400   1.949   3.583   3.985  0.1085 -0.3194  0.1675
16511SOL    HW151401   1.949   3.513   3.920  2.4337  0.5629 -0.8883
16511SOL    HW251402   2.002   3.550   4.057  0.3607 -0.0318  0.1153
16512SOL     OW51403   6.130   4.389   7.768  0.4466 -0.0128  0.6333
16512SOL    HW151404   6.072   4.346   7.831  1.3566  0.3188  1.7357
16512SOL    HW251405   6.180   4.318   7.728  0.1814 -0.1899  0.6193
16513SOL     OW51406   4.591   5.268   2.214 -0.0056  0.8805 -0.1575
16513SOL    HW151407   4.682   5.248   2.191  0.4140 -0.1817  2.0772
16513SOL    HW251408   4.597   5.349   2.265 -0.1102  0.1581  1.0419
16514SOL     OW51409   7.268   6.950   3.269 -0.5866  0.8727 -0.3161
16514SOL    HW151410   7.325   6.972   3.343  1.1546 -0.3779 -1.2265
16514SOL    HW251411   7.187   6.917   3.310  0.1313  0.6919  1.0146
16515SOL     OW51412   5.413   7.747   3.764  0.2162  0.4762 -0.0102
16515SOL    HW151413   5.440   7.753   3.856  0.4775  0.4709 -0.0865
16515SOL    HW251414   5.488   7.709   3.720 -1.2349 -3.3402  0.4204
16516SOL     OW51415   6.953   8.331   3.169  0.7769  0.1862  0.1107
16516SOL    HW151416   6.907   8.285   3.240 -0.4674  1.3050  0.0682
16516SOL    HW251417   6.942   8.274   3.093  1.2460 -0.5363  0.5650
16517SOL     OW51418   0.046   3.600   7.678  0.0614  0.6778  0.1173
16517SOL    HW151419   0.104   3.641   7.613  0.0574  1.5777  0.6698
16517SOL    HW251420   0.059   3.506   7.665  0.5440  0.8497 -0.7523
16518SOL     OW51421   1.306   5.286   6.235  0.0900 -0.2896  0.2841
16518SOL    HW151422   1.368   5.289   6.308 -0.4292 -0.0671  0.7253
16518SOL    HW251423   1.236   5.228   6.266  0.4020 -1.1123 -0.4775
16519SOL     OW51424   1.196   5.800   6.504 -0.5473 -0.0289  0.5401
16519SOL    HW151425   1.137   5.860   6.459 -1.0453 -0.5851  0.4439
16519SOL    HW251426   1.145   5.721   6.518  0.3047 -0.6927  0.0389
16520SOL     OW51427   7.237   3.734   0.669 -0.7774  0.0035  0.3460
16520SOL    HW151428   7.325   3.749   0.702 -1.0662  1.1341  0.6522
16520SOL    HW251429   7.235   3.779   0.585 -0.7441 -0.9449 -0.1802
16521SOL     OW51430   3.544   6.137   3.957 -0.2099  0.1626  0.0995
16521SOL    HW151431   3.466   6.190   3.942 -0.8680 -0.7904  0.0419
16521SOL    HW251432   3.528   6.093   4.041 -0.6982 -1.6356 -0.8872
16522SOL     OW51433   5.980   6.698   6.621  0.1555 -0.1598 -0.7474
16522SOL    HW151434   6.069   6.690   6.585  0.3868 -0.4932 -0.1260
16522SOL    HW251435   5.922   6.676   6.549  0.6363 -2.2720 -0.5473
16523SOL     OW51436   5.009   6.503   1.296 -0.1115  0.0136  0.7285
16523SOL    HW151437   5.067   6.428   1.282  1.3292  1.2303 -0.1301
16523SOL    HW251438   5.051   6.575   1.249  0.2989  2.1905  4.0854
16524SOL     OW51439   5.486   0.939   1.456 -0.4470  0.0069 -0.3117
16524SOL    HW151440   5.392   0.952   1.438 -0.6845  0.0479  0.8777
16524SOL    HW251441   5.488   0.868   1.520  0.5299 -2.0869 -2.4791
16525SOL     OW51442   0.981   7.290   1.022  0.0349 -0.1045  0.1485
16525SOL    HW151443   0.906   7.297   0.963 -0.9842 -3.1692  0.9058
16525SOL    HW251444   1.041   7.229   0.979 -0.4576 -1.9305  1.8847
16526SOL     OW51445   2.171   4.747   4.522  0.0945  0.5022 -0.3596
16526SOL    HW151446   2.191   4.816   4.458 -0.0565  0.3205 -0.6072
16526SOL    HW251447   2.093   4.704   4.486  0.8598 -0.5375 -0.7911
16527SOL     OW51448   4.814   5.761   5.967  0.6396  0.7728  0.2927
16527SOL    HW151449   4.867   5.691   6.005 -2.0182 -2.0719 -0.7322
16527SOL    HW251450   4.765   5.797   6.041  0.5285  0.0751  0.5663
16528SOL     OW51451   0.863   8.251   6.141  0.3882  0.6413  0.0512
16528SOL    HW151452   0.896   8.339   6.160  1.0114  0.2687  0.7448
16528SOL    HW251453   0.940   8.194   6.149 -0.7340 -0.6147  4.1751
16529SOL     OW51454   5.507   8.985   6.767  0.2303 -0.3048  0.3983
16529SOL    HW151455   5.441   9.010   6.832  0.4114  0.3746  0.3353
16529SOL    HW251456   5.571   8.934   6.816 -1.4236 -2.9342  0.0459
16530SOL     OW51457   4.005   6.964   2.137  0.1785  0.2195  0.3783
16530SOL    HW151458   4.041   6.973   2.225 -1.2594  2.2337  0.8298
16530SOL    HW251459   4.076   6.989   2.078  0.4314  1.2335  1.0967
16531SOL     OW51460   4.671   7.833   1.623  0.2051  0.7270  0.7556
16531SOL    HW151461   4.586   7.876   1.623 -0.0059  0.3221 -0.3130
16531SOL    HW251462   4.700   7.836   1.532  0.3160 -1.1277  0.6940
16532SOL     OW51463   1.605   0.485   0.679 -0.3730 -0.4982  0.1832
16532SOL    HW151464   1.621   0.552   0.746  0.9547 -0.8718  0.2804
16532SOL    HW251465   1.519   0.507   0.643 -1.3695 -0.5880  2.3493
16533SOL     OW51466   6.459   7.231   4.537 -0.3342 -0.1980 -0.1077
16533SOL    HW151467   6.518   7.265   4.604 -0.8806  2.4601 -0.8807
16533SOL    HW251468   6.516   7.185   4.476  0.2236 -2.2995  1.8536
16534SOL     OW51469   6.197   7.807   0.499  0.0923  0.5577 -0.0851
16534SOL    HW151470   6.143   7.770   0.569  2.6878  0.1213  1.8508
16534SOL    HW251471   6.277   7.756   0.501  1.2995  2.2452 -1.6383
16535SOL     OW51472   4.841   7.662   2.109  0.1056  0.1611 -0.0260
16535SOL    HW151473   4.767   7.670   2.049  0.1128  0.1288 -0.0395
16535SOL    HW251474   4.908   7.721   2.074  0.0424  0.2784  0.0524
16536SOL     OW51475   6.867   5.521   1.189  0.0282 -0.6001  0.4011
16536SOL    HW151476   6.906   5.580   1.126  0.5718 -2.6084 -1.2594
16536SOL    HW251477   6.921   5.529   1.268  1.3494 -0.3872 -0.4992
16537SOL     OW51478   3.074   2.938   6.644 -0.3930 -0.1723 -0.6923
16537SOL    HW151479   3.070   2.843   6.642  0.8424 -0.3586  1.6067
16537SOL    HW251480   2.991   2.965   6.683  0.0449 -0.5014  0.5337
16538SOL     OW51481   2.021   6.300   5.089 -0.5162  0.4997 -0.3339
16538SOL    HW151482   2.040   6.224   5.034 -0.2846 -0.1049  0.5537
16538SOL    HW251483   2.024   6.266   5.179 -2.3705  1.1168  0.0130
16539SOL     OW51484   5.743   7.498   8.277  0.0303  0.5545  0.7868
16539SOL    HW151485   5.785   7.557   8.339 -1.4617  1.3727  1.0522
16539SOL    HW251486   5.686   7.443   8.332  1.0853 -0.8996  0.4994
16540SOL     OW51487   4.149   7.810   0.239  0.6478  0.2836  0.0897
16540SOL    HW151488   4.225   7.782   0.290  0.5442  2.0533  1.2774
16540SOL    HW251489   4.171   7.783   0.149  2.0204 -0.5116  0.6205
16541SOL     OW51490   4.708   5.990   0.434 -0.1673 -0.6113  0.4064
16541SOL    HW151491   4.619   6.026   0.430 -0.5971 -1.3950  2.1020
16541SOL    HW251492   4.734   6.001   0.525  1.9316  0.5702 -0.2819
16542SOL     OW51493   7.740   8.144   0.918  0.4477  0.7999  0.1494
16542SOL    HW151494   7.801   8.103   0.856  1.5916  0.2547  1.5668
16542SOL    HW251495   7.790   8.151   1.000 -1.0058  1.4861  1.0222
16543SOL     OW51496   8.175   7.269   0.062 -0.0488 -0.0036  0.1807
16543SOL    HW151497   8.171   7.204   0.133  0.9721 -2.0153 -1.4961
16543SOL    HW251498   8.100   7.249   0.007  1.5746 -1.4699 -1.6490
16544SOL     OW51499   4.994   2.440   4.977  0.6736 -0.5934 -0.2945
16544SOL    HW151500   4.995   2.438   5.072  1.4896 -0.3701 -0.2865
16544SOL    HW251501   5.086   2.430   4.952  0.3007 -2.5928 -1.1061
16545SOL     OW51502   6.062   0.441   3.627  0.7216 -0.4518  0.3375
16545SOL    HW151503   6.021   0.409   3.546 -1.5213  2.6215  0.0780
16545SOL    HW251504   5.991   0.486   3.673  2.8531  1.3450  2.0913
16546SOL     OW51505   1.980   5.403   8.110  0.2164 -0.5333 -0.2978
16546SOL    HW151506   1.886   5.384   8.114  0.1002 -0.6317 -2.2989
16546SOL    HW251507   2.009   5.397   8.200 -1.4465 -1.8733  0.2189
16547SOL     OW51508   2.370   8.266   8.995 -0.5728  0.5078 -0.3603
16547SOL    HW151509   2.419   8.193   9.032 -2.4451 -0.3837  0.5133
16547SOL    HW251510   2.403   8.274   8.905  0.1783 -0.9496 -0.2365
16548SOL     OW51511   2.953   5.036   8.027  0.1247 -0.1340 -0.1263
16548SOL    HW151512   2.933   5.116   8.075  2.2642  0.1688  0.3730
16548SOL    HW251513   2.967   4.970   8.095 -0.1690 -0.5709 -0.4808
16549SOL     OW51514   8.570   0.913   7.749 -0.3283  1.1366 -0.3852
16549SOL    HW151515   8.486   0.926   7.794 -0.3088  1.4785 -0.4468
16549SOL    HW251516   8.546   0.876   7.664 -0.3851  0.7692 -0.2120
16550SOL     OW51517   5.142   7.883   3.190  0.5057  0.5078 -0.1784
16550SOL    HW151518   5.164   7.976   3.184  0.9921  0.3507 -0.9286
16550SOL    HW251519   5.075   7.869   3.123 -0.1573  0.4717  0.4722
16551SOL     OW51520   4.765   1.422   4.295 -0.0539  0.1078  0.2360
16551SOL    HW151521   4.727   1.361   4.232  0.5139  0.5665 -0.5592
16551SOL    HW251522   4.848   1.450   4.256  0.1223  0.7029  1.0003
16552SOL     OW51523   4.186   6.791   8.525  0.3630  0.2263 -0.0055
16552SOL    HW151524   4.091   6.804   8.526  0.1849 -0.9181  0.6412
16552SOL    HW251525   4.222   6.870   8.565 -0.3773  0.3184  0.4916
16553SOL     OW51526   1.930   7.249   7.232 -0.1582  0.1001 -0.5080
16553SOL    HW151527   1.961   7.329   7.273 -0.9247  1.3710 -2.2747
16553SOL    HW251528   2.008   7.213   7.189  0.0289  0.2843 -0.3237
16554SOL     OW51529   2.351   7.369   8.711 -0.0624 -0.0424  0.6749
16554SOL    HW151530   2.313   7.288   8.677 -0.9237  0.3401  0.7030
16554SOL    HW251531   2.441   7.369   8.678 -0.2497 -0.6955  0.1405
16555SOL     OW51532   2.331   6.016   5.245  0.1586 -0.5703  0.0758
16555SOL    HW151533   2.264   5.956   5.280  2.7868 -3.8207  0.0598
16555SOL    HW251534   2.380   6.045   5.321 -0.3715  0.6657 -0.0410
16556SOL     OW51535   6.937   5.682   5.217 -0.9991  0.1601 -0.2088
16556SOL    HW151536   7.018   5.688   5.268 -0.4108 -0.0775 -1.0851
16556SOL    HW251537   6.891   5.764   5.236 -0.9330 -0.0436  0.9046
16557SOL     OW51538   1.466   2.863   1.505  0.9889 -0.0159  0.1134
16557SOL    HW151539   1.471   2.874   1.600 -0.6822  1.4881  0.0800
16557SOL    HW251540   1.538   2.916   1.470  0.5889  0.7772  0.4834
16558SOL     OW51541   6.640   7.917   7.697 -0.4575  0.5712 -0.0655
16558SOL    HW151542   6.682   7.969   7.765 -0.2601  0.6054 -0.2124
16558SOL    HW251543   6.549   7.907   7.727 -0.1747 -0.0887  0.5895
16559SOL     OW51544   3.214   2.872   5.346 -0.7373 -0.2968  0.1938
16559SOL    HW151545   3.250   2.897   5.431  0.4136 -1.0193 -0.0638
16559SOL    HW251546   3.247   2.938   5.285 -2.0650  0.5822  0.3762
16560SOL     OW51547   3.010   5.618   2.860  0.1838 -0.1022  0.4780
16560SOL    HW151548   3.066   5.548   2.891 -0.9211 -1.5909 -0.7091
16560SOL    HW251549   2.948   5.632   2.931  1.3417  0.7901  1.3461
16561SOL     OW51550   6.658   7.880   3.607  0.2105  0.2411  0.1368
16561SOL    HW151551   6.738   7.933   3.598  0.8647 -0.6076  0.7610
16561SOL    HW251552   6.671   7.832   3.689 -1.7976  1.5039  1.3045
16562SOL     OW51553   2.187   2.184   0.004 -0.2804  0.2279  0.7850
16562SOL    HW151554   2.198   2.092  -0.017  0.6612  0.8505 -1.8046
16562SOL    HW251555   2.276   2.219   0.009 -0.6350  1.3653 -0.3002
16563SOL     OW51556   1.781   5.850   0.316 -0.1865  0.0827  0.6396
16563SOL    HW151557   1.696   5.891   0.336  0.1437  0.1683  1.9450
16563SOL    HW251558   1.803   5.883   0.229 -3.6843 -3.5321 -2.0308
16564SOL     OW51559   6.561   7.341   2.837 -0.2617  0.2193 -0.3602
16564SOL    HW151560   6.469   7.317   2.839  0.4362 -2.8301  0.0190
16564SOL    HW251561   6.592   7.324   2.927  0.7420  0.8333 -0.5709
16565SOL     OW51562   6.460   8.077   3.961  0.3364  0.3763 -0.1919
16565SOL    HW151563   6.403   8.151   3.939 -0.4269  0.2063  1.0887
16565SOL    HW251564   6.399   8.006   3.981  1.0408 -0.2212 -0.1323
16566SOL     OW51565   2.154   3.302   0.877 -0.0941  0.7984 -0.0652
16566SOL    HW151566   2.218   3.281   0.809 -0.7496  2.0194 -1.1004
16566SOL    HW251567   2.132   3.217   0.915  0.1319  0.0357 -1.5411
16567SOL     OW51568   7.602   1.997   6.610 -0.2407 -0.5173 -0.5633
16567SOL    HW151569   7.530   2.045   6.569  1.0957  2.0763 -0.0187
16567SOL    HW251570   7.626   2.049   6.687  2.7295 -0.8509 -1.1504
16568SOL     OW51571   0.990   1.145   7.295 -0.0024  0.0245 -0.0862
16568SOL    HW151572   1.071   1.100   7.273 -0.3823 -0.6080 -0.2292
16568SOL    HW251573   1.003   1.235   7.265  0.5406 -0.1414 -0.3517
16569SOL     OW51574   7.472   6.378   7.181 -0.2493 -0.3819  0.3364
16569SOL    HW151575   7.385   6.391   7.142  0.0268  0.7574  0.0472
16569SOL    HW251576   7.510   6.466   7.182  0.9814 -0.9012  0.2703
16570SOL     OW51577   7.345   0.380   6.322  0.0602  0.2430 -0.5800
16570SOL    HW151578   7.417   0.440   6.302  1.3200 -1.3921 -1.1574
16570SOL    HW251579   7.311   0.354   6.236 -0.6491  0.3214 -0.3275
16571SOL     OW51580   7.802   8.687   5.731 -0.2704 -0.1279 -0.2076
16571SOL    HW151581   7.870   8.702   5.666  0.9176 -1.0444  0.7787
16571SOL    HW251582   7.770   8.598   5.713 -1.4654  0.4095 -0.8682
16572SOL     OW51583   3.961   1.375   5.729 -0.7523  0.4149  0.1633
16572SOL    HW151584   3.883   1.420   5.696 -0.7970 -0.2345 -0.6502
16572SOL    HW251585   4.020   1.372   5.654  0.6034  2.0217  1.0945
16573SOL     OW51586   7.938   7.605   3.459 -0.5251  0.5128 -0.7501
16573SOL    HW151587   7.918   7.544   3.529 -0.7001  1.2280 -0.1662
16573SOL    HW251588   7.922   7.556   3.378 -1.0386 -0.0802 -0.2924
16574SOL     OW51589   0.596   4.850   2.450  0.2033  0.5070  0.2118
16574SOL    HW151590   0.530   4.781   2.435 -0.3198  0.7528  1.2863
16574SOL    HW251591   0.646   4.819   2.526 -0.3262  1.4973  0.9931
16575SOL     OW51592   4.363   6.008   4.438  1.0972  0.0532  0.0521
16575SOL    HW151593   4.442   6.061   4.449 -0.0243  1.8483 -0.1765
16575SOL    HW251594   4.385   5.946   4.369  2.0010  1.1674 -0.7020
16576SOL     OW51595   8.862   8.683   0.140 -0.0297  0.0645  0.5178
16576SOL    HW151596   8.893   8.672   0.230  1.1272 -0.5320  0.0708
16576SOL    HW251597   8.909   8.761   0.108  0.9354 -0.7571 -0.1216
16577SOL     OW51598   8.196   4.697   0.902 -0.2923  0.5726  0.2048
16577SOL    HW151599   8.244   4.775   0.876  0.1450  0.6649  1.2303
16577SOL    HW251600   8.133   4.728   0.967  0.0158  0.0498  0.7660
16578SOL     OW51601   4.481   5.212   4.087  0.3253 -0.3991  0.0373
16578SOL    HW151602   4.556   5.272   4.078  1.1527 -1.5550 -1.0833
16578SOL    HW251603   4.500   5.162   4.166  0.7784 -0.7243 -0.2712
16579SOL     OW51604   8.199   2.082   2.012 -0.4508 -0.0013  0.1012
16579SOL    HW151605   8.255   2.057   1.939 -0.4044  1.0614 -0.2561
16579SOL    HW251606   8.257   2.082   2.088  1.0512  4.2736 -0.7350
16580SOL     OW51607   5.515   0.538   4.450 -0.6011  0.9345  0.2856
16580SOL    HW151608   5.523   0.562   4.358  1.5941 -0.9337 -0.1039
16580SOL    HW251609   5.438   0.480   4.454 -0.2069  0.3388 -0.5642
16581SOL     OW51610   1.644   5.923   8.533  0.0460  0.0140  0.1530
16581SOL    HW151611   1.622   5.913   8.626  0.5179 -2.3137  0.0770
16581SOL    HW251612   1.735   5.894   8.526 -0.3184 -0.9053 -1.1758
16582SOL     OW51613   1.541   4.467   4.878 -0.1787 -0.1292  0.2234
16582SOL    HW151614   1.585   4.396   4.924 -1.4083  0.6392  2.7775
16582SOL    HW251615   1.571   4.546   4.923 -1.4078  0.6980 -0.3650
16583SOL     OW51616   0.821   5.752   8.971 -0.6301 -0.5690 -0.2831
16583SOL    HW151617   0.906   5.744   9.015 -0.5876  1.0063 -0.0221
16583SOL    HW251618   0.833   5.821   8.906 -1.1022 -1.8791 -1.8538
16584SOL     OW51619   5.540   8.225   5.008 -0.0868  0.3065  0.0395
16584SOL    HW151620   5.567   8.308   5.047  0.8465 -0.6412  1.5366
16584SOL    HW251621   5.450   8.240   4.979  0.4388  2.1583 -0.7681
16585SOL     OW51622   6.549   0.291   3.930 -0.2293  0.5781  0.0445
16585SOL    HW151623   6.550   0.197   3.944  0.2013  0.5482 -0.1838
16585SOL    HW251624   6.495   0.326   4.002 -0.9842  0.0939 -0.2694
16586SOL     OW51625   7.157   0.076   8.671 -0.4279 -0.5534 -0.3346
16586SOL    HW151626   7.092   0.010   8.649  0.2958 -1.2642 -0.3718
16586SOL    HW251627   7.217   0.076   8.596 -1.2108  1.1944 -1.0325
16587SOL     OW51628   2.481   6.473   8.660  0.0786 -0.3176  0.2244
16587SOL    HW151629   2.443   6.416   8.593 -0.6987 -0.2018  0.5564
16587SOL    HW251630   2.467   6.562   8.627  1.4304 -0.2982 -0.3673
16588SOL     OW51631   2.438   1.911   2.719  0.4248 -0.2976 -0.1109
16588SOL    HW151632   2.412   2.000   2.693  0.1878  0.1012  1.3628
16588SOL    HW251633   2.525   1.899   2.681  1.1257  1.1826  0.8955
16589SOL     OW51634   0.002   5.094   2.510  0.0331  0.3823  0.4144
16589SOL    HW151635   0.074   5.034   2.490  2.2550  2.9387  0.2734
16589SOL    HW251636  -0.020   5.134   2.426 -4.8010 -3.3563 -0.5871
16590SOL     OW51637   5.123   3.848   1.548 -0.0469  0.1124 -0.6626
16590SOL    HW151638   5.107   3.923   1.491  0.0689  0.2831 -0.4700
16590SOL    HW251639   5.144   3.777   1.488  1.5279  0.6407 -0.7734
16591SOL     OW51640   0.020   3.851   8.712 -0.0957 -0.0827 -0.9661
16591SOL    HW151641   0.056   3.766   8.737  0.4493  0.5366  0.4728
16591SOL    HW251642   0.096   3.905   8.693 -0.3758  0.4281 -0.6749
16592SOL     OW51643   3.587   5.135   6.762  0.1976 -0.2078  0.1429
16592SOL    HW151644   3.537   5.108   6.839  1.5093  0.6070  1.3481
16592SOL    HW251645   3.570   5.229   6.754  1.0677 -0.0347  0.2354
16593SOL     OW51646   4.615   0.513   7.305  0.1315  0.0697  0.0813
16593SOL    HW151647   4.643   0.578   7.240  0.0742 -0.7074 -0.7448
16593SOL    HW251648   4.672   0.438   7.289 -0.1442 -0.2687  0.6825
16594SOL     OW51649   1.017   4.250   8.847  0.0515 -0.1904 -0.1034
16594SOL    HW151650   0.969   4.322   8.889  0.8138 -0.7101  1.7564
16594SOL    HW251651   1.087   4.293   8.798  0.3988  0.3448  0.8459
16595SOL     OW51652   3.054   5.414   1.029  0.3283 -0.4296 -0.1407
16595SOL    HW151653   2.993   5.422   1.102  0.3121 -1.6515 -0.0006
16595SOL    HW251654   3.115   5.487   1.039  0.1466 -0.4179  0.9194
16596SOL     OW51655   2.145   2.657   6.797  0.4471 -0.0310  0.4241
16596SOL    HW151656   2.126   2.617   6.882  0.6253 -0.8167  0.1081
16596SOL    HW251657   2.118   2.590   6.733  0.3678  0.5270 -0.1341
16597SOL     OW51658   8.979   6.364   5.156 -0.6912  0.1795 -0.1640
16597SOL    HW151659   9.013   6.311   5.084 -1.2999  0.2610 -0.5183
16597SOL    HW251660   8.934   6.302   5.213  0.2882  0.0250  0.4646
16598SOL     OW51661   8.981   3.361   0.247 -0.0105  0.0651 -0.0644
16598SOL    HW151662   8.922   3.417   0.296 -0.7841 -0.4521 -0.3821
16598SOL    HW251663   9.063   3.411   0.241 -0.4871  0.8888  0.1765
16599SOL     OW51664   3.368   2.347   2.083  0.0558  0.0349  0.4814
16599SOL    HW151665   3.410   2.325   2.000  1.0201  0.1192  0.9305
16599SOL    HW251666   3.359   2.443   2.080 -1.1298 -0.0854 -0.0813
16600SOL     OW51667   4.348   7.742   7.597  0.3237 -0.3756  0.4449
16600SOL    HW151668   4.338   7.836   7.613  1.3939 -0.2446  0.4034
16600SOL    HW251669   4.293   7.701   7.664 -0.8068  0.2753 -0.0479
16601SOL     OW51670   4.245   7.464   8.245  0.0948  0.7927  0.0900
16601SOL    HW151671   4.263   7.474   8.338 -1.0808  1.7566  0.2420
16601SOL    HW251672   4.310   7.519   8.201  0.5044  0.5136  0.3351
16602SOL     OW51673   7.855   4.301   5.547  0.3311  0.2112 -0.6975
16602SOL    HW151674   7.779   4.283   5.603  1.3618 -0.9921  0.3860
16602SOL    HW251675   7.905   4.366   5.597  0.8103 -0.2100 -0.6178
16603SOL     OW51676   5.978   6.720   7.656  0.4012  0.4323  0.0348
16603SOL    HW151677   5.993   6.638   7.703  1.7069 -0.6532 -2.0906
16603SOL    HW251678   5.884   6.720   7.638  0.1112  0.2345  1.4586
16604SOL     OW51679   2.404   6.754   6.522  0.1539 -0.3122 -0.1807
16604SOL    HW151680   2.455   6.819   6.570 -0.3770 -0.3088  0.3921
16604SOL    HW251681   2.431   6.765   6.431  0.6785  0.1422  0.0245
16605SOL     OW51682   5.117   3.934   7.727 -0.2246 -0.4434  0.1940
16605SOL    HW151683   5.173   4.012   7.721 -0.9167  0.3328  2.7566
16605SOL    HW251684   5.140   3.895   7.811 -1.4107 -1.8257 -0.0918
16606SOL     OW51685   2.872   7.639   3.418  0.0532  0.0764  0.2410
16606SOL    HW151686   2.933   7.699   3.462 -0.9525  1.5447 -0.2917
16606SOL    HW251687   2.837   7.585   3.488  1.0993  0.0101  0.7212
16607SOL     OW51688   4.631   1.610   8.840 -0.0339  0.4725 -0.3933
16607SOL    HW151689   4.574   1.565   8.778 -1.7062  1.8734  0.0610
16607SOL    HW251690   4.641   1.698   8.805 -1.6837  1.5590  1.6279
16608SOL     OW51691   7.993   7.742   8.974 -0.3146 -0.3069 -0.4833
16608SOL    HW151692   8.048   7.791   9.034 -1.2391  1.1866 -0.7953
16608SOL    HW251693   7.986   7.655   9.012  1.5195 -0.2751  0.0037
16609SOL     OW51694   4.113   1.727   4.592 -0.6450 -0.4647 -0.1693
16609SOL    HW151695   4.040   1.701   4.648  0.4722 -0.4937  1.3387
16609SOL    HW251696   4.163   1.647   4.578  0.5067  0.0043  1.0084
16610SOL     OW51697   5.790   5.595   5.342 -0.4461 -0.0811  0.6331
16610SOL    HW151698   5.809   5.514   5.390 -1.1286  0.4612  1.8385
16610SOL    HW251699   5.712   5.574   5.291 -0.7845 -0.1075  1.1538
16611SOL     OW51700   2.017   6.167   7.386 -0.3552 -0.1724  0.3787
16611SOL    HW151701   2.073   6.219   7.328 -0.4573  0.8055  1.1467
16611SOL    HW251702   2.023   6.078   7.350 -1.2580  0.5677 -1.7714
16612SOL     OW51703   3.697   8.925   0.040 -0.6144  0.3349  0.3073
16612SOL    HW151704   3.725   8.883   0.121 -1.1206 -0.9219 -0.1344
16612SOL    HW251705   3.617   8.878   0.016 -0.0288  0.1286 -1.3373
16613SOL     OW51706   3.022   2.320   7.906  0.1504  0.0842 -0.2532
16613SOL    HW151707   3.102   2.278   7.937 -0.6988 -0.6793  0.9978
16613SOL    HW251708   3.044   2.353   7.819  2.0566  0.6026  0.3870
16614SOL     OW51709   2.950   2.907   7.248 -0.1831  0.1866 -0.4751
16614SOL    HW151710   2.968   2.963   7.323  0.1042 -0.4734 -0.0457
16614SOL    HW251711   2.904   2.964   7.186 -0.3908  0.7446  0.1816
16615SOL     OW51712   5.036   5.523   2.962 -0.3670 -0.1335  0.4168
16615SOL    HW151713   5.106   5.578   2.926 -0.0252  0.5021  1.9954
16615SOL    HW251714   4.978   5.506   2.887 -0.2225  1.9594 -0.2188
16616SOL     OW51715   5.859   2.132   5.949 -0.7588 -0.3908  0.0146
16616SOL    HW151716   5.816   2.082   5.880  0.6656 -2.2363  0.3839
16616SOL    HW251717   5.863   2.073   6.024  2.0347 -0.2460  0.0950
16617SOL     OW51718   4.420   3.337   4.874 -0.0171  0.0788 -0.1111
16617SOL    HW151719   4.373   3.412   4.836  0.5861  0.7173  0.3598
16617SOL    HW251720   4.504   3.374   4.903  0.5782 -0.9336 -0.4919
16618SOL     OW51721   0.878   1.596   7.103 -0.1129 -0.3269  0.3179
16618SOL    HW151722   0.792   1.566   7.131 -0.3948  1.3642  1.4361
16618SOL    HW251723   0.940   1.545   7.155 -0.4745 -0.8967  0.1904
16619SOL     OW51724   4.421   5.284   0.361 -0.4307 -0.1778  0.1515
16619SOL    HW151725   4.383   5.257   0.445  2.0337 -1.6782  0.8908
16619SOL    HW251726   4.422   5.379   0.364 -2.9026 -0.0979  0.5820
16620SOL     OW51727   0.994   7.803   1.748 -0.1937  0.0444  0.5618
16620SOL    HW151728   1.052   7.805   1.672 -1.0752 -1.1235 -0.1687
16620SOL    HW251729   0.924   7.743   1.724 -0.9812  0.3498  1.9590
16621SOL     OW51730   8.812   1.314   0.526 -0.0342  0.1860  0.4513
16621SOL    HW151731   8.885   1.284   0.580  1.1734  2.5905  0.2536
16621SOL    HW251732   8.797   1.242   0.464  1.3288 -0.8653  1.2929
16622SOL     OW51733   7.132   8.147   4.018 -0.1402  0.3388 -0.0777
16622SOL    HW151734   7.124   8.129   4.112  0.0988  0.5517 -0.0143
16622SOL    HW251735   7.101   8.067   3.976 -0.0923  0.1782  0.1862
16623SOL     OW51736   8.750   6.902   7.819 -0.2756 -0.2674  0.0404
16623SOL    HW151737   8.787   6.975   7.770  0.7158 -1.6893 -1.4385
16623SOL    HW251738   8.826   6.859   7.858 -1.0145  0.5784  2.5522
16624SOL     OW51739   7.148   4.394   7.123  0.2681  0.1031 -0.2652
16624SOL    HW151740   7.085   4.447   7.075 -1.3336 -1.8412 -0.4511
16624SOL    HW251741   7.230   4.406   7.077  0.0024  2.3847 -0.2706
16625SOL     OW51742   3.962   2.508   5.456  0.1066  0.3353 -0.1167
16625SOL    HW151743   4.015   2.574   5.501  1.4470 -0.9368  0.2387
16625SOL    HW251744   3.888   2.493   5.515  1.8408 -1.3350  1.8095
16626SOL     OW51745   5.799   2.704   4.998  0.2431 -0.1973  0.4578
16626SOL    HW151746   5.877   2.741   4.958  0.2006 -0.9624 -0.3554
16626SOL    HW251747   5.727   2.733   4.942  0.3188 -2.4290 -0.9134
16627SOL     OW51748   6.199   5.182   3.121 -0.2228 -0.1998  0.4587
16627SOL    HW151749   6.249   5.158   3.043  2.7367 -0.7852  2.3617
16627SOL    HW251750   6.227   5.272   3.140  0.1263 -0.5156  1.5233
16628SOL     OW51751   8.128   1.714   0.868  0.1687  0.3720  0.0266
16628SOL    HW151752   8.167   1.802   0.870 -0.8267  0.8187  0.4481
16628SOL    HW251753   8.181   1.666   0.804  0.3023  1.4931 -0.7445
16629SOL     OW51754   8.034   7.001   5.021 -0.0870 -0.3707  0.1396
16629SOL    HW151755   7.969   7.019   4.953  2.6544 -0.4100 -2.7254
16629SOL    HW251756   8.021   6.908   5.042 -0.9937 -0.3538 -0.2939
16630SOL     OW51757   2.471   8.356   6.989 -0.4455  0.1868  0.9421
16630SOL    HW151758   2.467   8.438   6.939  1.2709  0.3668  1.0352
16630SOL    HW251759   2.397   8.361   7.049 -1.1093  1.0849  0.0747
16631SOL     OW51760   8.739   6.276   8.466  0.1232  0.5114  0.3577
16631SOL    HW151761   8.772   6.354   8.510  0.0383  0.1717  1.0403
16631SOL    HW251762   8.698   6.308   8.386  0.2962  1.1389  0.5192
16632SOL     OW51763   8.358   0.894   4.782  0.1453 -0.6109  0.1423
16632SOL    HW151764   8.439   0.847   4.763 -0.6526 -1.9929  0.0217
16632SOL    HW251765   8.291   0.845   4.735 -0.6713  0.9397 -0.3469
16633SOL     OW51766   6.250   6.365   6.252 -0.5530 -0.3602  0.1405
16633SOL    HW151767   6.309   6.427   6.209 -0.2858  0.2880  1.3714
16633SOL    HW251768   6.226   6.303   6.184  2.4292 -1.3078 -0.1851
16634SOL     OW51769   2.598   0.812   2.292 -0.2556  0.1922  0.4021
16634SOL    HW151770   2.654   0.844   2.221  1.2827  0.5746  1.7406
16634SOL    HW251771   2.659   0.783   2.360 -1.6831 -0.5902  1.4094
16635SOL     OW51772   8.143   8.363   0.344 -0.0559 -0.1509  0.1576
16635SOL    HW151773   8.158   8.342   0.252  0.3171 -2.2587  0.6515
16635SOL    HW251774   8.205   8.433   0.363  0.2348 -0.0574 -1.0492
16636SOL     OW51775   6.221   8.404   4.445 -0.5823  0.0077  0.4409
16636SOL    HW151776   6.264   8.380   4.363  1.2326  0.0862  1.3214
16636SOL    HW251777   6.189   8.321   4.480  1.1593 -0.4694  0.9994
16637SOL     OW51778   5.388   1.983   3.770 -0.4486 -0.0325 -0.0055
16637SOL    HW151779   5.428   2.067   3.750 -1.0223  0.1320 -0.4695
16637SOL    HW251780   5.295   2.002   3.781 -0.2846 -0.2108  2.2509
16638SOL     OW51781   8.023   3.618   7.112  0.3449  0.0981 -0.1459
16638SOL    HW151782   8.084   3.546   7.099 -0.4985 -0.8909  1.1274
16638SOL    HW251783   8.076   3.687   7.151  0.6436 -0.8257  1.1379
16639SOL     OW51784   1.005   2.377   0.891 -0.2843 -0.1144  0.1876
16639SOL    HW151785   1.083   2.343   0.847 -2.0466 -1.3229 -2.2133
16639SOL    HW251786   0.989   2.461   0.849 -0.9119 -0.4003 -0.1527
16640SOL     OW51787   3.869   1.882   6.122  0.6080 -0.3313 -0.0574
16640SOL    HW151788   3.828   1.968   6.129  2.5245  0.5566  1.2316
16640SOL    HW251789   3.801   1.821   6.149 -0.1078  1.0141  1.3604
16641SOL     OW51790   0.415   6.331   7.789  0.2399 -0.3672 -0.0275
16641SOL    HW151791   0.456   6.378   7.716  0.7310 -0.4144  0.2110
16641SOL    HW251792   0.382   6.250   7.751  0.8802 -0.5943 -0.1201
16642SOL     OW51793   6.718   5.367   7.775  0.2037  0.1109 -0.1265
16642SOL    HW151794   6.782   5.389   7.842 -1.7495  1.3054  1.4686
16642SOL    HW251795   6.740   5.277   7.750  1.3357 -0.1973  1.7397
16643SOL     OW51796   7.718   4.487   6.088  0.0649  0.3208  0.4655
16643SOL    HW151797   7.711   4.501   6.183  1.6426  1.4216  0.4563
16643SOL    HW251798   7.732   4.393   6.078 -0.0397  0.2049  1.3319
16644SOL     OW51799   4.106   7.491   5.110  0.2631  0.6293 -0.6829
16644SOL    HW151800   4.195   7.491   5.074  0.1635 -0.8999 -1.0158
16644SOL    HW251801   4.075   7.402   5.095 -1.8841  1.5296 -1.8630
16645SOL     OW51802   8.107   5.570   5.807  0.3371  0.2137  0.8785
16645SOL    HW151803   8.112   5.659   5.771 -1.5425  0.0621  0.1146
16645SOL    HW251804   8.187   5.527   5.776  0.1562  0.9649 -0.7253
16646SOL     OW51805   2.871   5.430   7.211  0.9221  0.0297  0.4319
16646SOL    HW151806   2.853   5.337   7.201  1.7111 -0.2320  1.2183
16646SOL    HW251807   2.803   5.461   7.270 -1.0775  0.6188 -2.0368
16647SOL     OW51808   0.239   6.111   3.012 -0.1818 -0.1713  0.8185
16647SOL    HW151809   0.270   6.041   3.070  2.0768  1.0306  1.1744
16647SOL    HW251810   0.206   6.065   2.935  0.0199 -1.6662  1.5908
16648SOL     OW51811   0.988   4.456   7.426 -0.2551 -0.0198 -0.3204
16648SOL    HW151812   1.048   4.422   7.359 -0.7261  0.0285 -0.7737
16648SOL    HW251813   0.927   4.512   7.378  1.4074  2.7683  0.6001
16649SOL     OW51814   1.278   6.574   5.077 -0.0253  0.0596  0.0774
16649SOL    HW151815   1.224   6.621   5.014 -1.8522 -0.2723  1.3358
16649SOL    HW251816   1.303   6.493   5.032  0.5162  0.7821 -0.9651
16650SOL     OW51817   7.360   4.408   0.965  0.4056 -0.0331 -0.0566
16650SOL    HW151818   7.450   4.429   0.988  0.2466  0.4105  0.1786
16650SOL    HW251819   7.308   4.439   1.039 -0.0382  0.6763 -0.6402
16651SOL     OW51820   7.788   1.690   4.417  0.0197 -0.2227  0.0956
16651SOL    HW151821   7.766   1.598   4.405  0.3654 -0.9198  3.6039
16651SOL    HW251822   7.882   1.695   4.399 -0.1400 -0.3863 -0.8045
16652SOL     OW51823   6.333   8.205   1.483  0.5346 -0.4730  0.4119
16652SOL    HW151824   6.335   8.289   1.437 -0.5166 -0.8145 -0.2970
16652SOL    HW251825   6.322   8.229   1.575 -1.9480  0.1881  0.0327
16653SOL     OW51826   7.799   1.211   7.611  0.2045  0.5681 -0.1323
16653SOL    HW151827   7.731   1.208   7.543  0.7934 -0.3336 -0.7001
16653SOL    HW251828   7.843   1.295   7.597  1.5084 -0.3584 -2.0885
16654SOL     OW51829   1.348   4.768   8.543  0.8277 -0.1285  0.0591
16654SOL    HW151830   1.353   4.863   8.554  2.1010 -0.0991 -0.7042
16654SOL    HW251831   1.277   4.742   8.602  1.5204  1.0929  1.5071
16655SOL     OW51832   7.807   3.619   6.331  0.6028  0.5972  0.0909
16655SOL    HW151833   7.758   3.543   6.363  0.9870  0.4946  0.4438
16655SOL    HW251834   7.823   3.600   6.239  0.3128  0.4558  0.0675
16656SOL     OW51835   2.385   4.299   8.348  0.2523  0.4734  0.1223
16656SOL    HW151836   2.305   4.256   8.376 -1.2404  2.6681 -0.5063
16656SOL    HW251837   2.454   4.234   8.361 -1.5253 -1.2624  1.2671
16657SOL     OW51838   3.591   8.952   3.750 -0.4985 -0.4557  0.1693
16657SOL    HW151839   3.530   8.971   3.822 -1.1988  0.9391 -0.7541
16657SOL    HW251840   3.626   8.865   3.771 -2.0935 -0.9005  1.2189
16658SOL     OW51841   8.597   7.410   1.229 -0.4067 -0.0695  0.2387
16658SOL    HW151842   8.578   7.381   1.140 -0.3993  0.2126  0.1437
16658SOL    HW251843   8.540   7.356   1.284 -0.2306 -0.4157  0.0838
16659SOL     OW51844   8.494   1.011   1.594  0.9568 -0.0605  0.1632
16659SOL    HW151845   8.483   1.048   1.506 -0.7292  1.4930  0.9726
16659SOL    HW251846   8.479   0.917   1.582  1.2911  0.0423 -1.2915
16660SOL     OW51847   5.341   3.837   6.200  0.0853 -0.3668  0.1321
16660SOL    HW151848   5.414   3.822   6.260 -0.0356  1.2461  0.7269
16660SOL    HW251849   5.303   3.750   6.186  1.5337 -1.0911  0.5505
16661SOL     OW51850   8.700   1.904   7.942 -0.2493  0.3834  0.3217
16661SOL    HW151851   8.736   1.991   7.924  1.4806 -0.0774  1.2605
16661SOL    HW251852   8.724   1.852   7.866 -0.3700  0.4829  0.2161
16662SOL     OW51853   6.904   5.255   7.413  0.6203 -0.4645 -0.0138
16662SOL    HW151854   6.922   5.232   7.322  0.7314 -1.4237  0.2430
16662SOL    HW251855   6.849   5.185   7.445 -0.3973  0.4745  0.3357
16663SOL     OW51856   5.409   2.983   8.129  0.4793 -0.0705 -0.2401
16663SOL    HW151857   5.331   2.958   8.179  0.1605  0.5333 -0.4168
16663SOL    HW251858   5.415   2.918   8.060 -0.1942  0.1769 -0.5471
16664SOL     OW51859   7.173   2.418   5.020  0.1249 -0.4902  0.0932
16664SOL    HW151860   7.113   2.405   4.946 -0.1385 -0.5418  0.3150
16664SOL    HW251861   7.229   2.341   5.018  0.4902 -0.2204 -0.3975
16665SOL     OW51862   5.984   0.168   3.961  0.5467  0.3305  0.4114
16665SOL    HW151863   6.003   0.261   3.974  1.6345 -0.0112  1.4519
16665SOL    HW251864   6.065   0.133   3.922  0.4276 -0.3191  0.7431
16666SOL     OW51865   8.088   7.343   1.675 -0.3034 -0.1994 -0.2693
16666SOL    HW151866   8.021   7.411   1.663 -0.4598 -0.4306 -0.7130
16666SOL    HW251867   8.156   7.366   1.612 -0.7266 -0.9147 -1.0004
16667SOL     OW51868   2.713   0.436   2.908 -0.0397 -0.1524 -0.1756
16667SOL    HW151869   2.807   0.429   2.921  0.4780  2.9006 -1.3940
16667SOL    HW251870   2.695   0.378   2.834  0.7848 -1.0141  0.2705
16668SOL     OW51871   2.858   2.746   3.750  0.4959 -0.2265 -0.3475
16668SOL    HW151872   2.875   2.829   3.794  0.0773  0.9511 -2.2872
16668SOL    HW251873   2.899   2.680   3.807  1.2289  1.3270  1.0178
16669SOL     OW51874   3.979   2.479   4.035  0.4574  0.6496  0.1118
16669SOL    HW151875   3.929   2.494   4.115 -0.9412  1.4994 -0.8796
16669SOL    HW251876   4.067   2.508   4.056 -0.0078  1.3366  1.2069
16670SOL     OW51877   3.383   3.379   4.061  0.4817 -0.6867  0.3492
16670SOL    HW151878   3.310   3.398   4.003  1.8346  0.4177 -1.0781
16670SOL    HW251879   3.442   3.325   4.008  1.1042 -0.8536  1.1848
16671SOL     OW51880   2.982   0.572   0.696 -0.2124  0.2782  0.2252
16671SOL    HW151881   2.985   0.477   0.691 -0.0006  0.2500  0.8224
16671SOL    HW251882   3.061   0.601   0.649 -0.2031  0.1559  0.1655
16672SOL     OW51883   1.389   8.174   0.973  0.7594 -0.3122 -0.8655
16672SOL    HW151884   1.392   8.211   0.885  1.0520  1.9768  0.0498
16672SOL    HW251885   1.473   8.196   1.011  0.2133 -0.2692  0.3635
16673SOL     OW51886   6.771   4.890   6.646 -0.2548 -0.0386 -0.0123
16673SOL    HW151887   6.693   4.943   6.625  0.4292  1.0864  0.2105
16673SOL    HW251888   6.833   4.910   6.576 -0.3334 -1.3569 -0.4921
16674SOL     OW51889   4.527   7.734   0.838 -0.6683 -0.2850  0.0987
16674SOL    HW151890   4.548   7.771   0.924 -0.3591  2.5269 -1.0649
16674SOL    HW251891   4.433   7.713   0.844 -0.7860  0.4200  0.9500
16675SOL     OW51892   2.058   4.161   2.841 -0.0234 -0.1032 -0.2482
16675SOL    HW151893   1.997   4.198   2.777 -0.2104 -1.1247 -0.6769
16675SOL    HW251894   2.067   4.069   2.815  1.9279  0.0774 -0.3801
16676SOL     OW51895   2.460   4.898   8.839 -0.3798  0.2597  0.0206
16676SOL    HW151896   2.432   4.807   8.836 -0.9559  0.4515 -2.0855
16676SOL    HW251897   2.556   4.893   8.846 -0.4806 -0.4553  1.2589
16677SOL     OW51898   8.305   5.832   5.852 -0.4114  0.3894 -0.2148
16677SOL    HW151899   8.290   5.924   5.876  0.5597  0.8883 -1.4428
16677SOL    HW251900   8.267   5.824   5.765  0.8579  0.0372 -0.7493
16678SOL     OW51901   2.420   0.366   6.673 -0.5268 -0.1597 -0.7194
16678SOL    HW151902   2.389   0.295   6.728 -1.4038  2.2388  2.1856
16678SOL    HW251903   2.504   0.337   6.640  0.2956 -1.6517  2.3522
16679SOL     OW51904   8.059   2.842   5.280  0.1494  0.3297  0.0893
16679SOL    HW151905   8.034   2.755   5.247 -0.4363 -0.0952  1.5605
16679SOL    HW251906   8.060   2.897   5.202  0.0410 -0.8828 -0.8127
16680SOL     OW51907   1.839   6.225   8.445  0.3547 -0.1825 -0.2628
16680SOL    HW151908   1.791   6.176   8.378  0.3594 -0.1988 -0.2542
16680SOL    HW251909   1.805   6.190   8.528  0.1603  0.0202 -0.2570
16681SOL     OW51910   1.869   4.704   1.165  0.4706  0.1867  0.3152
16681SOL    HW151911   1.959   4.682   1.139  1.1012  3.3113 -0.6191
16681SOL    HW251912   1.829   4.620   1.188  3.3935 -1.4036  0.0780
16682SOL     OW51913   0.286   1.437   8.873 -0.2461 -0.4861  0.2991
16682SOL    HW151914   0.338   1.499   8.822 -1.3809  0.1425 -0.1270
16682SOL    HW251915   0.350   1.377   8.911  0.8701  0.8039  0.5258
16683SOL     OW51916   6.487   6.698   0.871 -0.3295  0.1015  0.1449
16683SOL    HW151917   6.392   6.699   0.878 -0.2983 -0.3934  0.6790
16683SOL    HW251918   6.518   6.715   0.960  0.0748 -1.0593  0.2327
16684SOL     OW51919   4.347   4.296   6.222  0.1424  0.1077 -0.3315
16684SOL    HW151920   4.364   4.232   6.290  3.7202  0.6980 -0.4934
16684SOL    HW251921   4.375   4.380   6.259 -0.4870  0.8997 -1.5613
16685SOL     OW51922   2.073   2.298   2.146  0.0677  0.0557 -0.4180
16685SOL    HW151923   2.035   2.277   2.232  1.2546  1.2969  0.4692
16685SOL    HW251924   2.020   2.371   2.114  0.4146  0.4493 -0.1167
16686SOL     OW51925   1.308   5.353   5.472 -0.2868  0.1043  0.1227
16686SOL    HW151926   1.335   5.369   5.563  1.7037  0.3725 -0.4553
16686SOL    HW251927   1.218   5.385   5.467 -0.5237 -0.1241  2.0408
16687SOL     OW51928   7.579   3.478   5.746  0.1368  0.5531 -0.1124
16687SOL    HW151929   7.573   3.424   5.667 -2.0378 -0.8747  0.9223
16687SOL    HW251930   7.493   3.471   5.787  0.1282  3.8869  0.7513
16688SOL     OW51931   5.521   4.326   1.169  0.3238  0.0743 -0.2484
16688SOL    HW151932   5.501   4.261   1.102 -0.2936  1.4503 -1.4781
16688SOL    HW251933   5.605   4.363   1.142  0.9627 -0.6246  0.7771
16689SOL     OW51934   3.168   7.166   4.343  0.1581  0.1449 -0.1387
16689SOL    HW151935   3.235   7.129   4.286  0.0645 -1.3577  0.6849
16689SOL    HW251936   3.215   7.187   4.424 -0.2243 -0.1952  0.1693
16690SOL     OW51937   2.169   7.558   2.449 -0.4595 -0.2689  0.2231
16690SOL    HW151938   2.235   7.491   2.434  0.1836  0.3218  0.3388
16690SOL    HW251939   2.217   7.631   2.489 -1.3367 -0.1590  1.1398
16691SOL     OW51940   8.090   0.049   4.494 -0.0859 -0.2131  0.9120
16691SOL    HW151941   8.129  -0.022   4.544 -1.5487 -0.7091  1.3940
16691SOL    HW251942   8.091   0.124   4.554  2.2068  0.4961  0.1377
16692SOL     OW51943   1.544   2.247   2.191 -0.0957  0.0436  0.4216
16692SOL    HW151944   1.576   2.311   2.128 -1.9037 -0.5908 -1.2722
16692SOL    HW251945   1.570   2.162   2.155  0.0227 -0.2968  1.2703
16693SOL     OW51946   4.973   5.628   0.528 -0.3392 -0.3919  0.0679
16693SOL    HW151947   4.924   5.641   0.610  0.8283 -1.3300  0.9488
16693SOL    HW251948   4.906   5.630   0.460 -1.4333 -0.2616  1.1139
16694SOL     OW51949   3.692   0.588   8.987 -0.4020  0.5022  0.3576
16694SOL    HW151950   3.748   0.618   8.915  0.9167  0.3560  1.2947
16694SOL    HW251951   3.627   0.657   8.997 -0.1903  0.8468 -0.5346
16695SOL     OW51952   3.227   6.874   2.385  0.3410 -0.2588  0.3927
16695SOL    HW151953   3.169   6.808   2.347  0.2040  0.9649 -1.6114
16695SOL    HW251954   3.168   6.933   2.432  0.1773 -0.1412  0.0426
16696SOL     OW51955   2.328   4.062   4.632 -0.0173  0.3488 -0.7554
16696SOL    HW151956   2.268   4.120   4.679  0.2335  1.7107 -2.0392
16696SOL    HW251957   2.388   4.029   4.699 -0.0048  1.7939 -0.0348
16697SOL     OW51958   1.843   6.264   8.150  0.3332 -0.1852 -0.2334
16697SOL    HW151959   1.900   6.189   8.132  0.9091  0.4097 -0.9892
16697SOL    HW251960   1.761   6.243   8.105  0.1689 -0.7722  0.3358
16698SOL     OW51961   0.527   5.152   5.114  0.4968 -0.3504  0.6604
16698SOL    HW151962   0.478   5.156   5.032 -1.7505  1.4054  1.9727
16698SOL    HW251963   0.555   5.061   5.120 -1.5298 -1.1685 -0.8279
16699SOL     OW51964   6.921   4.193   5.348  0.0696 -0.5091 -0.0596
16699SOL    HW151965   6.837   4.217   5.310 -0.1060  1.3385  1.3538
16699SOL    HW251966   6.902   4.174   5.440  1.1356 -0.3937  0.2039
16700SOL     OW51967   4.945   3.906   2.649  0.6812 -0.0708  0.3534
16700SOL    HW151968   5.021   3.857   2.683  1.7760  0.2420 -1.4983
16700SOL    HW251969   4.910   3.849   2.580  0.6070  0.7542 -0.3018
16701SOL     OW51970   5.250   2.145   8.569  0.8536  0.5259  0.2349
16701SOL    HW151971   5.341   2.122   8.549  0.9848  1.9046 -0.9234
16701SOL    HW251972   5.232   2.220   8.513 -1.0715  0.1636  0.3049
16702SOL     OW51973   5.930   5.197   8.763 -0.5742  0.0683  0.1481
16702SOL    HW151974   5.862   5.264   8.754 -2.0801 -1.6680 -2.5457
16702SOL    HW251975   5.891   5.131   8.821 -0.2394  0.1417  0.4633
16703SOL     OW51976   2.772   4.181   8.817 -0.5177  0.2019 -0.1936
16703SOL    HW151977   2.702   4.153   8.758 -0.6498 -0.4674  0.2630
16703SOL    HW251978   2.727   4.225   8.889 -0.4516 -0.0167 -0.0172
16704SOL     OW51979   8.351   2.109   5.565  0.4355 -0.7912 -0.3220
16704SOL    HW151980   8.301   2.172   5.617  0.9436 -0.3293 -0.3801
16704SOL    HW251981   8.297   2.030   5.564 -0.1213 -0.4170 -0.0873
16705SOL     OW51982   8.495   2.438   2.299 -0.1751 -0.4158  0.0700
16705SOL    HW151983   8.531   2.450   2.386 -0.5389 -2.8024  0.6072
16705SOL    HW251984   8.484   2.527   2.265  1.9843  0.5006  1.5912
16706SOL     OW51985   8.378   7.602   4.097 -1.0085 -0.5165 -0.7330
16706SOL    HW151986   8.437   7.598   4.172 -0.2411 -0.6629 -1.3325
16706SOL    HW251987   8.401   7.684   4.052 -1.8937 -0.1106 -0.4637
16707SOL     OW51988   6.228   8.996   6.120 -0.0646  0.4624  0.2255
16707SOL    HW151989   6.174   9.071   6.094  2.0763  1.9868 -0.0710
16707SOL    HW251990   6.250   8.953   6.037 -0.7923 -0.1932  0.3522
16708SOL     OW51991   7.270   2.881   7.461  0.1623 -0.2132  0.6014
16708SOL    HW151992   7.198   2.888   7.399  0.5801  1.6768  0.2609
16708SOL    HW251993   7.325   2.958   7.442  1.8105 -1.1402  1.4119
16709SOL     OW51994   7.038   0.126   8.238 -0.4663  0.0404 -0.6167
16709SOL    HW151995   7.119   0.098   8.281 -0.5552 -0.6712 -0.9077
16709SOL    HW251996   7.066   0.196   8.178  0.1642 -1.0911 -1.7005
16710SOL     OW51997   7.441   2.326   8.159 -0.4444  0.3707  0.5198
16710SOL    HW151998   7.440   2.246   8.212 -0.8238  0.3451  0.4759
16710SOL    HW251999   7.352   2.360   8.165 -0.7304 -0.0720 -0.7523
16711SOL     OW52000   6.508   1.438   4.873 -0.1352 -0.7626  0.1932
16711SOL    HW152001   6.572   1.501   4.908 -0.4356  0.3191 -1.1223
16711SOL    HW252002   6.427   1.457   4.921  0.1859 -1.3005  0.9798
16712SOL     OW52003   3.705   1.593   8.749  0.1378  0.5010  0.2644
16712SOL    HW152004   3.649   1.516   8.753  0.8672 -0.1095 -0.7329
16712SOL    HW252005   3.748   1.596   8.835 -0.8919  0.5963  0.7932
16713SOL     OW52006   5.940   7.628   6.899  0.4241  0.4535 -0.4814
16713SOL    HW152007   6.023   7.627   6.853  0.8482 -2.2260  0.1593
16713SOL    HW252008   5.925   7.537   6.924 -1.3739  1.2608  1.8064
16714SOL     OW52009   5.953   2.424   6.385  0.3135  0.3972  0.3281
16714SOL    HW152010   5.979   2.391   6.470 -0.7709  0.1285  0.5674
16714SOL    HW252011   5.869   2.381   6.366 -0.0896  1.4077 -0.2944
16715SOL     OW52012   8.854   0.871   6.726  0.1203 -0.6996  0.5560
16715SOL    HW152013   8.890   0.960   6.731 -0.8956 -0.2527  0.1035
16715SOL    HW252014   8.761   0.881   6.746 -1.1893 -0.8405 -4.2021
16716SOL     OW52015   7.764   7.629   6.995 -0.0929 -0.5516 -0.2462
16716SOL    HW152016   7.688   7.571   6.994 -0.1923 -0.4178 -0.7308
16716SOL    HW252017   7.807   7.615   6.910 -1.0798  1.3178 -1.1208
16717SOL     OW52018   4.492   8.708   8.010  0.3051 -0.2467 -0.0824
16717SOL    HW152019   4.554   8.646   7.972 -0.6681 -0.1382 -1.9337
16717SOL    HW252020   4.406   8.667   7.998 -0.2738  1.0520 -0.5326
16718SOL     OW52021   3.045   8.547   7.464 -0.1321 -0.0555 -0.1645
16718SOL    HW152022   2.978   8.493   7.506 -0.3705  0.5161  0.1978
16718SOL    HW252023   3.009   8.565   7.377  0.5505 -1.5913 -0.8028
16719SOL     OW52024   4.722   3.019   1.298  0.2054 -0.2207  0.4474
16719SOL    HW152025   4.638   3.011   1.344  0.4400  0.4294  1.0031
16719SOL    HW252026   4.698   3.019   1.205 -0.1642 -3.0939  0.4408
16720SOL     OW52027   4.306   5.540   4.623  0.2628  0.2508  0.0068
16720SOL    HW152028   4.366   5.592   4.678  2.4186 -1.4507 -0.5998
16720SOL    HW252029   4.313   5.580   4.536  2.1410 -1.1222 -0.5261
16721SOL     OW52030   8.023   5.289   7.180 -0.4340 -0.9236  0.0585
16721SOL    HW152031   7.971   5.367   7.198 -1.5747 -0.8964 -2.8355
16721SOL    HW252032   8.060   5.304   7.094  2.0611 -2.2307  0.7973
16722SOL     OW52033   6.632   8.365   4.094  0.2022 -0.4082 -0.4876
16722SOL    HW152034   6.668   8.277   4.086 -1.5482 -1.2895  0.5785
16722SOL    HW252035   6.670   8.399   4.175  1.7403  0.3082 -1.4590
16723SOL     OW52036   7.822   7.146   4.885 -0.4224 -0.1521 -0.5854
16723SOL    HW152037   7.732   7.162   4.915 -0.0485  2.7873 -0.6944
16723SOL    HW252038   7.816   7.143   4.790 -0.2611  1.6364 -0.6805
16724SOL     OW52039   5.759   2.358   3.936  0.0289  0.3990  0.2592
16724SOL    HW152040   5.768   2.274   3.980 -0.5391  1.1549  1.9087
16724SOL    HW252041   5.844   2.374   3.897  0.7777 -0.0500  1.6357
16725SOL     OW52042   8.970   5.923   4.978 -0.3041  0.2202 -0.6968
16725SOL    HW152043   9.037   5.900   4.913 -2.0823 -2.2079 -1.8034
16725SOL    HW252044   9.005   6.001   5.022  2.0720  0.5205 -2.9087
16726SOL     OW52045   4.795   4.565   0.509  0.4517 -0.4445  0.0347
16726SOL    HW152046   4.813   4.471   0.513 -1.8393 -0.9490 -0.0602
16726SOL    HW252047   4.854   4.603   0.573  0.2728 -2.1900  1.3255
16727SOL     OW52048   5.458   7.784   4.026  0.0940 -0.3730 -0.0590
16727SOL    HW152049   5.531   7.769   4.086  2.1581  2.4780 -1.5871
16727SOL    HW252050   5.398   7.841   4.073 -0.0969 -1.0343  0.5006
16728SOL     OW52051   3.993   7.450   8.334 -0.0176  0.2907 -0.5305
16728SOL    HW152052   4.080   7.444   8.294  0.3909  1.1753  0.1743
16728SOL    HW252053   3.953   7.526   8.292  0.4336  1.2591  0.7071
16729SOL     OW52054   1.553   2.526   5.288 -0.2143 -0.2693 -0.3733
16729SOL    HW152055   1.535   2.576   5.367 -0.9472 -2.9077  1.2774
16729SOL    HW252056   1.534   2.586   5.216 -0.7301  1.8463  1.4202
16730SOL     OW52057   5.618   6.442   3.713 -0.2925  0.4859 -0.4062
16730SOL    HW152058   5.531   6.480   3.721 -1.1432 -1.1037 -1.4699
16730SOL    HW252059   5.603   6.358   3.669  1.9592  0.9535 -2.2631
16731SOL     OW52060   2.210   5.468   4.754  0.5996 -0.3502  0.3776
16731SOL    HW152061   2.141   5.530   4.729  1.1946  0.7182  1.3225
16731SOL    HW252062   2.232   5.423   4.672  0.1185  0.6444 -0.3261
16732SOL     OW52063   8.191   5.816   2.063  0.5481 -0.2831  0.3794
16732SOL    HW152064   8.100   5.797   2.039  1.1983 -3.2854 -0.1944
16732SOL    HW252065   8.221   5.879   1.997 -1.2879  1.4695  1.1112
16733SOL     OW52066   5.610   8.088   7.617 -0.4628  0.1287  0.1529
16733SOL    HW152067   5.616   8.039   7.534  0.3686 -0.8579  0.7672
16733SOL    HW252068   5.613   8.180   7.591 -0.5850 -0.1644 -0.9443
16734SOL     OW52069   3.493   1.213   7.453  0.3737  0.1780  0.0484
16734SOL    HW152070   3.443   1.265   7.516  1.2887  0.5465  0.4780
16734SOL    HW252071   3.549   1.157   7.507 -0.2662 -0.9483 -0.4128
16735SOL     OW52072   1.388   4.825   1.736  0.2875 -0.6565  0.6989
16735SOL    HW152073   1.460   4.855   1.792 -0.9969 -0.1086  2.1157
16735SOL    HW252074   1.404   4.867   1.652  0.7985  0.7217  1.4530
16736SOL     OW52075   6.221   5.127   5.544 -0.1543  0.1397 -0.3950
16736SOL    HW152076   6.145   5.093   5.498 -1.6101  2.4602  0.1188
16736SOL    HW252077   6.185   5.174   5.620  1.6984  1.7298 -0.3979
16737SOL     OW52078   7.938   3.969   1.299  0.8074 -0.1613 -0.3813
16737SOL    HW152079   8.017   4.022   1.308  0.5411  0.2452 -0.3925
16737SOL    HW252080   7.955   3.891   1.351  1.1892 -0.0472 -0.3311
16738SOL     OW52081   6.354   8.831   4.936  0.2580 -0.0033  0.1974
16738SOL    HW152082   6.429   8.887   4.959 -0.4769  1.6632 -1.1774
16738SOL    HW252083   6.281   8.892   4.925 -1.2164 -1.5393  1.0208
16739SOL     OW52084   4.234   6.758   1.014 -0.4769 -0.6062  0.0832
16739SOL    HW152085   4.150   6.746   0.969 -0.8434  0.0624  0.5596
16739SOL    HW252086   4.213   6.817   1.087  0.4208 -0.4044  0.1845
16740SOL     OW52087   7.145   8.001   7.394  0.2268 -0.1848 -0.1609
16740SOL    HW152088   7.058   8.010   7.434  0.8217  0.7623  0.9690
16740SOL    HW252089   7.180   8.090   7.392 -0.2920  0.1107 -4.1695
16741SOL     OW52090   7.641   4.917   5.461 -0.2788  0.5004  0.5324
16741SOL    HW152091   7.611   4.982   5.398 -1.3469 -0.0678  0.4294
16741SOL    HW252092   7.612   4.950   5.545 -0.7332  0.2224  0.4904
16742SOL     OW52093   2.423   4.184   5.636  0.3562  0.4765 -0.2382
16742SOL    HW152094   2.361   4.223   5.698 -0.0273  0.6655 -0.7339
16742SOL    HW252095   2.398   4.220   5.551  1.8495  1.4305 -0.3083
16743SOL     OW52096   2.141   7.454   8.047  0.1706 -0.2576  0.3600
16743SOL    HW152097   2.233   7.429   8.059  0.0435 -0.3433  1.2258
16743SOL    HW252098   2.136   7.542   8.084  0.1885  0.2748 -0.8926
16744SOL     OW52099   0.789   2.892   3.685  0.5667  0.2838 -0.5677
16744SOL    HW152100   0.799   2.959   3.753  2.0398 -0.3995 -0.0837
16744SOL    HW252101   0.739   2.823   3.728  1.0664  0.0683 -0.3261
16745SOL     OW52102   6.292   7.773   6.355 -0.0634 -0.0395 -0.0252
16745SOL    HW152103   6.362   7.716   6.384  0.5716  0.1033 -1.2176
16745SOL    HW252104   6.277   7.833   6.429  0.9379 -0.1805  0.2988
16746SOL     OW52105   6.580   6.812   2.103 -0.8208  0.2842 -0.2651
16746SOL    HW152106   6.573   6.767   2.018 -3.4998 -0.6294  0.3624
16746SOL    HW252107   6.507   6.873   2.104 -1.1039 -0.0285  1.5570
16747SOL     OW52108   0.865   8.203   7.382  0.1037 -0.5650 -0.3681
16747SOL    HW152109   0.790   8.214   7.324 -0.3863  3.0742  0.7143
16747SOL    HW252110   0.829   8.164   7.462 -0.1500 -1.0728 -0.7274
16748SOL     OW52111   2.985   0.666   0.983 -0.2109 -0.1344 -0.3811
16748SOL    HW152112   2.894   0.677   1.012  0.5914  0.8385  2.0002
16748SOL    HW252113   2.979   0.660   0.888 -2.6873  1.0792 -0.3867
16749SOL     OW52114   8.227   3.957   8.146 -0.3774  0.2695 -0.1308
16749SOL    HW152115   8.223   4.017   8.071 -1.3646  0.4807  0.0848
16749SOL    HW252116   8.316   3.969   8.180 -1.4271  4.0744  1.8814
16750SOL     OW52117   4.438   4.383   1.977  0.2885  0.2355 -0.5874
16750SOL    HW152118   4.368   4.447   1.966  0.4457  0.7644  1.1567
16750SOL    HW252119   4.518   4.436   1.984  0.4519 -0.1363  0.6099
16751SOL     OW52120   5.783   3.454   0.005 -0.2120 -0.0831  0.5256
16751SOL    HW152121   5.821   3.404  -0.067  2.3266  0.1501  1.5932
16751SOL    HW252122   5.777   3.391   0.077  0.6065  0.4968  1.1208
16752SOL     OW52123   1.682   7.918   8.176 -0.2675 -0.1736 -0.2127
16752SOL    HW152124   1.638   7.888   8.097  0.6740  0.9463 -1.1925
16752SOL    HW252125   1.683   8.014   8.169  1.8586 -0.1324  0.0003
16753SOL     OW52126   2.309   2.624   8.649  0.2636 -0.4301 -0.0441
16753SOL    HW152127   2.229   2.665   8.682  0.5138  1.2920 -1.4091
16753SOL    HW252128   2.277   2.556   8.589 -0.1972 -0.0282 -0.2664
16754SOL     OW52129   1.330   7.563   6.430 -0.0548 -0.0307 -0.3585
16754SOL    HW152130   1.426   7.560   6.430 -0.0576 -0.5396  0.5213
16754SOL    HW252131   1.307   7.591   6.342  0.8847 -0.5011 -0.7668
16755SOL     OW52132   2.413   3.625   3.665 -0.1040 -0.5597  0.0598
16755SOL    HW152133   2.434   3.718   3.654 -3.1549  0.0854 -1.6838
16755SOL    HW252134   2.458   3.582   3.592 -1.7877  0.2461 -1.5551
16756SOL     OW52135   5.231   4.974   0.568  0.3377 -0.1039 -0.4482
16756SOL    HW152136   5.219   5.056   0.520  0.2541  0.7369  0.9716
16756SOL    HW252137   5.237   4.907   0.499  1.9963  1.2479 -1.7231
16757SOL     OW52138   1.227   3.083   2.576  0.2630 -0.0220  0.2291
16757SOL    HW152139   1.224   3.172   2.612  2.3040  0.3980 -0.4787
16757SOL    HW252140   1.141   3.047   2.594  0.0865  1.3256  2.5087
16758SOL     OW52141   3.470   0.821   6.425  0.7148 -0.7194  0.2505
16758SOL    HW152142   3.489   0.816   6.331 -0.2992  1.8950 -0.2072
16758SOL    HW252143   3.395   0.764   6.437 -1.0256  1.0908 -1.2288
16759SOL     OW52144   7.687   6.733   6.373  0.6585 -0.6049  0.1943
16759SOL    HW152145   7.676   6.685   6.291  1.4069  0.9796 -0.8908
16759SOL    HW252146   7.778   6.761   6.373  0.3228  0.5804  0.8976
16760SOL     OW52147   0.548   6.539   3.724 -0.1177  0.1791  0.4141
16760SOL    HW152148   0.471   6.568   3.773 -1.4938 -1.3915 -0.6956
16760SOL    HW252149   0.568   6.452   3.760 -1.2197 -1.0637 -1.7293
16761SOL     OW52150   5.227   1.506   1.321  0.0465  0.2626 -0.0580
16761SOL    HW152151   5.163   1.577   1.337 -0.2972  1.0547 -4.0301
16761SOL    HW252152   5.312   1.547   1.337 -0.1741  1.5102 -1.8228
16762SOL     OW52153   7.162   4.259   7.710  0.4891  0.7330  0.2142
16762SOL    HW152154   7.122   4.207   7.780 -1.1842  2.7696  0.8645
16762SOL    HW252155   7.234   4.305   7.754  0.5509  0.6863  0.1633
16763SOL     OW52156   5.864   8.222   4.076  0.1785 -0.1768  0.3324
16763SOL    HW152157   5.932   8.181   4.131  1.0757  2.0457  0.9951
16763SOL    HW252158   5.904   8.304   4.047 -1.0338 -0.3588 -2.0682
16764SOL     OW52159   5.153   7.868   8.959 -0.2292 -0.4100 -0.3262
16764SOL    HW152160   5.161   7.820   9.041 -1.8716 -1.6387 -0.8268
16764SOL    HW252161   5.243   7.892   8.936  0.4099 -1.3577  1.0517
16765SOL     OW52162   8.172   3.406   7.066  0.8086  0.2244 -0.0739
16765SOL    HW152163   8.229   3.333   7.040  1.3766 -0.5183  2.8811
16765SOL    HW252164   8.130   3.375   7.146  0.8331  3.0102  1.1010
16766SOL     OW52165   5.787   4.073   2.677 -0.3935 -0.0775 -0.4887
16766SOL    HW152166   5.735   4.015   2.733 -0.7663  0.0825 -0.6611
16766SOL    HW252167   5.829   4.015   2.615 -1.3642 -0.1062 -1.1373
16767SOL     OW52168   4.443   1.074   1.751  0.2168 -0.2145  0.0705
16767SOL    HW152169   4.391   1.134   1.806 -0.4957 -0.7689  0.0130
16767SOL    HW252170   4.448   1.118   1.666  0.1819  0.0248  0.1904
16768SOL     OW52171   4.238   2.409   8.267  0.0365 -0.4646  0.4518
16768SOL    HW152172   4.183   2.452   8.202  0.1319 -0.1022  0.6072
16768SOL    HW252173   4.243   2.471   8.340  2.6695  0.6286 -0.5217
16769SOL     OW52174   4.045   2.828   8.519 -0.3812 -0.1942  0.6070
16769SOL    HW152175   4.030   2.743   8.478  0.6878  0.8810 -2.3186
16769SOL    HW252176   3.963   2.848   8.564 -1.7390 -1.5020 -1.1376
16770SOL     OW52177   0.733   4.872   5.761  0.3171  0.7531  0.8043
16770SOL    HW152178   0.671   4.921   5.707 -1.0743 -0.8009  0.9159
16770SOL    HW252179   0.759   4.934   5.829  0.5694  2.1027 -0.4702
16771SOL     OW52180   6.814   8.212   3.394 -0.2765 -0.1234  0.2847
16771SOL    HW152181   6.869   8.137   3.415 -0.8530 -0.9677 -1.0395
16771SOL    HW252182   6.728   8.190   3.430  0.1622  1.0891  2.1513
16772SOL     OW52183   6.073   5.812   7.369  0.1717 -0.1637  0.0222
16772SOL    HW152184   6.014   5.810   7.294  1.3119  0.8456 -0.9375
16772SOL    HW252185   6.021   5.849   7.440 -0.0642  1.8124 -1.1141
16773SOL     OW52186   1.694   1.602   0.210 -0.4619  0.1228  0.2341
16773SOL    HW152187   1.709   1.635   0.299 -0.0198  1.9877 -0.4764
16773SOL    HW252188   1.760   1.648   0.157 -0.4372 -1.2757 -1.0008
16774SOL     OW52189   0.307   6.536   8.648  0.2731 -0.4503  0.2083
16774SOL    HW152190   0.286   6.628   8.632  1.1500 -0.1052  0.9500
16774SOL    HW252191   0.403   6.533   8.644  0.2384 -1.4178 -0.2264
16775SOL     OW52192   7.331   6.184   4.042  0.2382  0.9361  0.0902
16775SOL    HW152193   7.320   6.267   4.087  1.8973  1.4005 -0.2845
16775SOL    HW252194   7.300   6.201   3.953 -0.1618  0.9263  0.2285
16776SOL     OW52195   1.268   0.029   4.443  0.4761 -0.0610 -0.0918
16776SOL    HW152196   1.265   0.108   4.498  2.2599 -1.0371  1.5099
16776SOL    HW252197   1.343   0.044   4.385  0.6979 -0.4917  0.0854
16777SOL     OW52198   4.329   1.301   0.068 -0.3920  0.0401 -0.3536
16777SOL    HW152199   4.403   1.341   0.115  0.1162 -0.6636 -0.5480
16777SOL    HW252200   4.255   1.312   0.128 -0.2176  1.0609 -0.3044
16778SOL     OW52201   6.806   0.473   3.386 -0.2999 -0.1159  0.1416
16778SOL    HW152202   6.809   0.496   3.479 -0.5325  0.1712  0.0777
16778SOL    HW252203   6.792   0.556   3.341 -0.0352 -0.2341 -0.1633
16779SOL     OW52204   8.712   7.008   8.060 -0.7973 -0.7514  0.2625
16779SOL    HW152205   8.710   6.954   7.980 -1.4551  0.8167 -0.8198
16779SOL    HW252206   8.802   7.039   8.066 -0.1733 -2.5604  1.3720
16780SOL     OW52207   5.066   8.577   7.195  0.2740  0.2059  0.1329
16780SOL    HW152208   5.098   8.506   7.139  0.0319 -0.6403  1.0323
16780SOL    HW252209   5.115   8.566   7.277  0.2662  1.1129  0.2681
16781SOL     OW52210   7.876   7.070   3.655  0.0970  0.4256  0.3773
16781SOL    HW152211   7.874   7.076   3.559 -0.3836  1.9260  0.4614
16781SOL    HW252212   7.943   7.133   3.682 -0.2917  0.5513  1.0713
16782SOL     OW52213   4.335   3.875   5.469 -0.2062 -0.2165 -0.0987
16782SOL    HW152214   4.290   3.791   5.477  0.3582 -0.4963  0.1768
16782SOL    HW252215   4.296   3.916   5.392 -2.5499  0.5500  1.3915
16783SOL     OW52216   3.274   1.465   7.197  0.6664 -0.2598  0.1532
16783SOL    HW152217   3.268   1.373   7.220 -1.1051 -0.3912 -0.6554
16783SOL    HW252218   3.258   1.468   7.103  1.4455  0.8260  0.0290
16784SOL     OW52219   4.472   3.802   3.903  0.0006  0.2917  0.0758
16784SOL    HW152220   4.427   3.718   3.896  0.2017  0.0352  1.5596
16784SOL    HW252221   4.565   3.780   3.907  0.1951  0.7240 -1.2933
16785SOL     OW52222   2.063   7.576   1.162  0.0917  0.0616  0.0370
16785SOL    HW152223   1.978   7.591   1.204  0.1219  1.5545 -0.3627
16785SOL    HW252224   2.041   7.550   1.073  0.0474  0.2794 -0.0164
16786SOL     OW52225   8.962   4.656   8.141  0.0455 -0.2036 -0.0460
16786SOL    HW152226   8.886   4.598   8.139 -0.7973  0.7126  2.2344
16786SOL    HW252227   8.925   4.744   8.138  1.1838  0.2781 -1.2552
16787SOL     OW52228   1.455   1.627   1.688 -0.0128  0.0794 -1.2934
16787SOL    HW152229   1.499   1.687   1.627 -0.8250  1.2758 -0.7436
16787SOL    HW252230   1.511   1.629   1.766  0.6761 -0.9427 -1.7447
16788SOL     OW52231   3.908   0.654   5.485  0.9781  0.1217  0.4847
16788SOL    HW152232   3.931   0.605   5.564 -0.2872 -0.5548  0.4536
16788SOL    HW252233   3.991   0.691   5.456  1.7482 -0.9076  1.2599
16789SOL     OW52234   0.664   6.733   2.338  0.5854  0.3188 -0.1858
16789SOL    HW152235   0.594   6.685   2.295 -0.2487  1.2384  0.1107
16789SOL    HW252236   0.681   6.808   2.280  0.3499  0.8592  0.4272
16790SOL     OW52237   3.276   2.412   3.674  0.2789  0.7849 -0.1455
16790SOL    HW152238   3.305   2.493   3.715  0.2588  1.2890 -1.1033
16790SOL    HW252239   3.302   2.343   3.735 -0.5682  1.5806  1.1419
16791SOL     OW52240   7.518   8.268   8.500  0.2571  0.5314 -0.1686
16791SOL    HW152241   7.441   8.291   8.448 -0.9944  2.0184  2.1738
16791SOL    HW252242   7.551   8.351   8.534  2.6745 -0.1084 -0.6914
16792SOL     OW52243   0.567   6.759   2.031 -0.1541  0.9847  0.0891
16792SOL    HW152244   0.614   6.837   2.000 -0.8163  1.7421  0.9224
16792SOL    HW252245   0.635   6.696   2.050  0.3753  1.1950 -1.0157
16793SOL     OW52246   3.476   2.229   5.447  0.0831  0.3881 -0.3221
16793SOL    HW152247   3.438   2.314   5.470  0.5076  0.4201  0.3002
16793SOL    HW252248   3.559   2.251   5.405 -0.4743  0.3149 -1.4840
16794SOL     OW52249   4.668   5.866   6.820  0.6507  0.0517  0.2665
16794SOL    HW152250   4.633   5.912   6.896 -0.4573 -2.2108  1.2120
16794SOL    HW252251   4.720   5.794   6.857  2.4801  0.5762 -1.1478
16795SOL     OW52252   3.032   2.150   0.722  0.5755  0.2648  0.2872
16795SOL    HW152253   2.976   2.210   0.674 -1.3557 -1.7462 -0.1371
16795SOL    HW252254   3.068   2.092   0.656 -0.4618 -1.2319  0.9667
16796SOL     OW52255   2.714   6.787   2.009  0.1620 -0.3877 -0.0175
16796SOL    HW152256   2.628   6.754   2.036 -0.1890 -0.3613 -1.0616
16796SOL    HW252257   2.702   6.882   2.002  0.9313 -0.0823  2.1171
16797SOL     OW52258   3.202   2.446   8.731 -0.1934 -0.3217  0.3685
16797SOL    HW152259   3.148   2.512   8.775 -0.0222 -0.3545  0.6307
16797SOL    HW252260   3.287   2.489   8.718 -0.0902 -0.4800  0.5162
16798SOL     OW52261   0.563   6.826   7.052 -0.2261  0.3303 -0.0596
16798SOL    HW152262   0.635   6.886   7.030  0.6122  0.3792  2.4937
16798SOL    HW252263   0.485   6.882   7.050  0.2679  1.0600  0.2818
16799SOL     OW52264   8.347   1.461   6.005 -0.8619 -0.2392 -0.3773
16799SOL    HW152265   8.305   1.494   6.085  0.3412 -1.2599  0.7168
16799SOL    HW252266   8.312   1.373   5.994  0.4199 -0.8380  0.1600
16800SOL     OW52267   4.265   8.764   5.760  0.0202 -0.6317  0.9220
16800SOL    HW152268   4.247   8.847   5.714 -0.8899 -1.6685 -0.7065
16800SOL    HW252269   4.346   8.733   5.721 -0.2858 -1.0887  0.6419
16801SOL     OW52270   7.567   3.063   2.647 -0.0953 -0.0167 -0.2436
16801SOL    HW152271   7.617   2.995   2.694  0.6206  1.7396  1.7289
16801SOL    HW252272   7.626   3.138   2.646 -1.5938  1.1858 -0.5904
16802SOL     OW52273   8.674   3.838   6.126 -0.5249  0.1461 -0.4943
16802SOL    HW152274   8.691   3.871   6.038  1.8354 -1.4390 -0.7288
16802SOL    HW252275   8.761   3.822   6.163 -1.4764 -0.5471  1.6233
16803SOL     OW52276   8.558   5.475   4.710  0.0869  0.7254  0.2288
16803SOL    HW152277   8.582   5.444   4.623 -0.6818  1.9905 -0.4670
16803SOL    HW252278   8.500   5.406   4.745 -0.4114  0.6694 -0.6726
16804SOL     OW52279   8.830   5.396   2.988 -0.2128 -0.1244  0.1122
16804SOL    HW152280   8.746   5.442   2.980  1.0677  2.4824  0.3209
16804SOL    HW252281   8.876   5.415   2.906  1.4188  1.4038  1.3018
16805SOL     OW52282   6.501   0.512   7.663  0.3483  0.6263  0.4084
16805SOL    HW152283   6.573   0.560   7.705  0.5739  0.8697 -0.2534
16805SOL    HW252284   6.493   0.432   7.715 -0.4015  1.6044  1.8730
16806SOL     OW52285   4.461   2.604   0.620 -0.0175  0.3175  0.1071
16806SOL    HW152286   4.485   2.568   0.705  0.9734  1.0141  0.1299
16806SOL    HW252287   4.365   2.608   0.622 -0.0571 -0.5724  0.8052
16807SOL     OW52288   7.441   2.037   3.683  0.2208 -0.3585 -0.0422
16807SOL    HW152289   7.517   2.060   3.630  0.3844  1.2833  0.8488
16807SOL    HW252290   7.366   2.055   3.627  0.4150  0.6266  0.0007
16808SOL     OW52291   6.297   2.833   0.282 -0.1381 -0.4246  0.0389
16808SOL    HW152292   6.369   2.783   0.243  1.1525  1.0270  0.4269
16808SOL    HW252293   6.319   2.836   0.375 -0.6501  0.1054  0.1469
16809SOL     OW52294   1.131   7.519   5.491 -0.7140  0.1741  0.2878
16809SOL    HW152295   1.121   7.596   5.436  2.6661  0.9443  0.5002
16809SOL    HW252296   1.156   7.449   5.431  1.1950  0.5722  0.5493
16810SOL     OW52297   0.072   3.799   3.930 -0.6810  0.3163  0.1604
16810SOL    HW152298   0.149   3.854   3.916 -1.3981  1.5356  0.7651
16810SOL    HW252299   0.043   3.820   4.019 -0.6905 -1.4555  0.6070
16811SOL     OW52300   5.671   4.391   7.730 -0.1336  0.2354 -0.3786
16811SOL    HW152301   5.726   4.378   7.653 -1.5894 -0.8545 -1.2857
16811SOL    HW252302   5.654   4.485   7.733  2.3580  0.7457  0.3986
16812SOL     OW52303   0.958   0.695   6.645 -0.0061 -0.1786  0.5295
16812SOL    HW152304   0.911   0.735   6.718  0.4742 -0.2167  0.8659
16812SOL    HW252305   0.901   0.623   6.617 -0.8964  0.7510 -0.1121
16813SOL     OW52306   4.432   6.436   0.150 -0.0630 -0.0129  0.5267
16813SOL    HW152307   4.447   6.530   0.162 -0.7583  0.0060  1.3818
16813SOL    HW252308   4.363   6.430   0.085 -0.8328  0.1242  1.3099
16814SOL     OW52309   7.773   3.809   8.388 -0.1239  0.1402 -0.4103
16814SOL    HW152310   7.742   3.776   8.473  2.2681  1.1335  0.9689
16814SOL    HW252311   7.868   3.811   8.398  0.1479  1.2545 -2.7970
16815SOL     OW52312   8.009   1.833   1.750  0.0054 -0.1414  0.0917
16815SOL    HW152313   8.062   1.801   1.677 -0.2932 -0.9236  0.2017
16815SOL    HW252314   8.044   1.786   1.826  0.2021  0.5386  0.4286
16816SOL     OW52315   1.294   4.057   0.863 -0.2349 -0.2397  0.0015
16816SOL    HW152316   1.231   4.031   0.796 -1.1913  1.1535  0.3257
16816SOL    HW252317   1.328   4.141   0.834 -1.1651  0.7240  1.5442
16817SOL     OW52318   7.519   6.139   9.000 -0.0548  0.5523 -0.5467
16817SOL    HW152319   7.531   6.158   8.907  0.4520  0.5349 -0.4904
16817SOL    HW252320   7.588   6.076   9.020 -1.7070 -1.4421 -0.7414
16818SOL     OW52321   5.866   4.420   7.554  0.2534  0.0549  0.5468
16818SOL    HW152322   5.916   4.377   7.623  3.0804  0.1288 -1.3107
16818SOL    HW252323   5.867   4.513   7.578  0.7203  0.0101  0.7011
16819SOL     OW52324   0.272   1.944   2.524 -0.1398 -0.0929 -0.0325
16819SOL    HW152325   0.240   1.903   2.443  3.0310  0.4684 -1.7428
16819SOL    HW252326   0.290   1.870   2.582 -2.8681 -0.4909  0.4723
16820SOL     OW52327   4.191   3.058   1.663  0.1822  0.2599  0.1488
16820SOL    HW152328   4.239   3.060   1.746 -0.4797  0.6291  0.5364
16820SOL    HW252329   4.101   3.082   1.687 -0.2655 -0.6789 -0.5160
16821SOL     OW52330   5.926   8.840   8.612  0.2345 -0.2038  0.1653
16821SOL    HW152331   5.924   8.925   8.654 -0.6547  0.7485 -1.7022
16821SOL    HW252332   5.952   8.779   8.682  1.1404  1.5972  1.4688
16822SOL     OW52333   7.538   7.076   6.916 -0.3721 -0.1202  0.3237
16822SOL    HW152334   7.533   7.136   6.990  0.7577 -0.6245  0.8333
16822SOL    HW252335   7.632   7.067   6.899 -0.6069 -0.1563 -1.0561
16823SOL     OW52336   5.516   3.363   1.874 -0.3315  0.1631  0.7115
16823SOL    HW152337   5.587   3.383   1.813  0.6501  0.9183  2.0413
16823SOL    HW252338   5.437   3.369   1.821  0.5233  0.1943 -0.6144
16824SOL     OW52339   3.452   1.149   7.083  0.0481 -0.0635 -0.5674
16824SOL    HW152340   3.510   1.133   7.008 -1.1587 -0.4807 -1.4317
16824SOL    HW252341   3.441   1.064   7.124  1.3920  0.2936  0.6576
16825SOL     OW52342   6.433   1.037   4.838  0.4832  0.0474  0.3553
16825SOL    HW152343   6.505   1.100   4.839  0.3048  0.2890  2.7668
16825SOL    HW252344   6.456   0.972   4.904 -1.0558 -0.4166  0.4805
16826SOL     OW52345   4.521   2.353   7.512  0.3507 -0.0410 -0.4641
16826SOL    HW152346   4.608   2.314   7.524  0.0811 -0.3540  0.5442
16826SOL    HW252347   4.463   2.278   7.500  0.0624  0.1140 -0.0571
16827SOL     OW52348   3.849   0.217   1.340  0.4535  0.3723  0.1234
16827SOL    HW152349   3.928   0.207   1.393  0.0728 -0.2284  0.5964
16827SOL    HW252350   3.814   0.128   1.332  0.2706  0.5187 -0.7819
16828SOL     OW52351   7.336   6.031   2.720 -0.5265  0.0945 -0.0137
16828SOL    HW152352   7.276   5.957   2.716 -0.5070  0.0713  0.1202
16828SOL    HW252353   7.418   5.995   2.753 -1.1646  0.5647  2.2839
16829SOL     OW52354   0.675   1.416   8.786 -0.2336 -0.0389 -0.4648
16829SOL    HW152355   0.644   1.463   8.864  0.0122 -1.3578  0.4677
16829SOL    HW252356   0.658   1.324   8.806  0.9197 -0.4982 -1.4833
16830SOL     OW52357   8.420   4.833   1.661  0.3114 -0.1190 -0.0897
16830SOL    HW152358   8.397   4.802   1.749 -0.4409 -0.8058 -0.5157
16830SOL    HW252359   8.490   4.775   1.633 -0.7670 -1.1540 -0.6960
16831SOL     OW52360   2.372   7.685   2.865  0.1062 -0.1260 -0.2773
16831SOL    HW152361   2.456   7.691   2.910  0.0374  0.5684 -0.2266
16831SOL    HW252362   2.331   7.770   2.880  0.2558  0.2992 -1.9926
16832SOL     OW52363   3.688   6.829   5.073 -0.2725 -0.2607  0.2515
16832SOL    HW152364   3.641   6.750   5.103  0.3571 -0.7174  0.0479
16832SOL    HW252365   3.775   6.820   5.111 -0.2188  0.3855  0.2872
16833SOL     OW52366   0.308   3.189   1.194  0.6513  0.2572 -0.4990
16833SOL    HW152367   0.394   3.187   1.150  0.6442  0.8908 -0.5479
16833SOL    HW252368   0.318   3.130   1.268  1.7636  1.7683  0.6227
16834SOL     OW52369   6.768   6.827   4.926  0.0729 -0.0384  0.4270
16834SOL    HW152370   6.685   6.783   4.904 -0.9944  2.7567 -1.7042
16834SOL    HW252371   6.744   6.919   4.937  2.6227  0.5324  1.8636
16835SOL     OW52372   2.943   4.890   2.462 -0.0844  0.0458  0.0411
16835SOL    HW152373   2.902   4.954   2.520 -0.4601 -0.5136  0.4043
16835SOL    HW252374   3.017   4.937   2.423 -0.0879  0.5595  0.6335
16836SOL     OW52375   2.456   6.842   2.601  0.0355 -0.2187  0.0818
16836SOL    HW152376   2.470   6.761   2.551 -1.4505 -0.2733 -0.3126
16836SOL    HW252377   2.429   6.906   2.535 -0.2100  0.1989  0.5818
16837SOL     OW52378   4.653   4.420   1.224 -0.3157  0.1740 -0.3669
16837SOL    HW152379   4.587   4.407   1.292 -0.6941  0.1239 -0.7376
16837SOL    HW252380   4.635   4.351   1.160  0.5939 -0.3292 -0.0940
16838SOL     OW52381   2.228   4.139   2.318 -0.4995 -0.1816  0.3038
16838SOL    HW152382   2.250   4.188   2.239 -2.1725  0.0629 -0.0418
16838SOL    HW252383   2.243   4.201   2.390  1.1756 -0.4568  0.2248
16839SOL     OW52384   7.530   7.774   8.340 -0.1791 -0.3212  0.3247
16839SOL    HW152385   7.518   7.682   8.316  0.1945 -0.4364  0.5739
16839SOL    HW252386   7.533   7.820   8.256 -1.7580 -0.3498  0.2230
16840SOL     OW52387   7.897   8.486   0.427  0.4861  0.3691  0.0298
16840SOL    HW152388   7.990   8.464   0.431  0.7453  1.2003 -0.8576
16840SOL    HW252389   7.895   8.582   0.433 -0.2281  0.4265 -0.8511
16841SOL     OW52390   4.950   0.938   1.733 -0.0501  0.6689  0.1145
16841SOL    HW152391   4.906   0.864   1.693 -0.2472  0.8894 -0.0761
16841SOL    HW252392   5.015   0.966   1.669  1.0972 -0.3095  0.8119
16842SOL     OW52393   1.818   4.728   7.927  0.2366 -0.5113 -0.0007
16842SOL    HW152394   1.766   4.779   7.865 -0.4967 -2.2627 -0.9012
16842SOL    HW252395   1.906   4.726   7.890 -0.0523 -1.0135 -0.6912
16843SOL     OW52396   6.819   5.886   2.465 -0.4689 -0.1732  0.4733
16843SOL    HW152397   6.785   5.943   2.396 -1.2189 -0.1096  0.8846
16843SOL    HW252398   6.879   5.827   2.419 -1.2597 -0.3968 -0.3150
16844SOL     OW52399   7.574   7.960   3.370 -0.1365  0.1735 -0.1550
16844SOL    HW152400   7.558   8.050   3.396 -0.4423 -0.0678  0.5255
16844SOL    HW252401   7.591   7.914   3.453 -1.0272 -0.5994 -0.3832
16845SOL     OW52402   4.913   0.393   5.466 -0.5307 -0.5744  0.2578
16845SOL    HW152403   4.857   0.460   5.506 -0.0168 -0.3236  0.5627
16845SOL    HW252404   4.917   0.323   5.531 -0.3824 -0.5357  0.2898
16846SOL     OW52405   2.705   4.438   3.177 -0.3134 -0.1469 -0.1981
16846SOL    HW152406   2.780   4.414   3.231  0.7145  0.7293 -1.1721
16846SOL    HW252407   2.735   4.514   3.127 -1.8367  0.1818 -0.6738
16847SOL     OW52408   7.166   7.708   6.903 -0.4904  0.5376 -0.6357
16847SOL    HW152409   7.256   7.735   6.922  0.2262 -1.4557 -1.0203
16847SOL    HW252410   7.133   7.677   6.987  0.0070 -0.9133 -0.9495
16848SOL     OW52411   4.066   4.211   7.312 -0.0414 -0.5319 -0.4754
16848SOL    HW152412   4.090   4.143   7.375 -2.0167 -0.4173  0.4832
16848SOL    HW252413   4.085   4.294   7.356 -1.2747 -0.4540 -0.0330
16849SOL     OW52414   7.240   7.863   7.145 -0.7002 -0.3733  0.1607
16849SOL    HW152415   7.157   7.904   7.121  0.3870  1.6292 -0.4346
16849SOL    HW252416   7.278   7.922   7.210 -0.1225 -1.7278  1.1152
16850SOL     OW52417   0.721   8.899   7.273  0.3831 -0.5917  0.2304
16850SOL    HW152418   0.747   8.854   7.193 -0.4993  1.9042 -1.5650
16850SOL    HW252419   0.791   8.963   7.289 -0.3590  0.2033  0.3633
16851SOL     OW52420   2.336   7.499   7.730 -0.0255 -0.2273  0.1780
16851SOL    HW152421   2.328   7.586   7.691 -0.1919  0.0705  0.8760
16851SOL    HW252422   2.426   7.472   7.710  0.3726  0.5460  0.8621
16852SOL     OW52423   2.822   0.265   5.995 -0.2075 -0.0626  0.0817
16852SOL    HW152424   2.848   0.352   5.963 -0.7234 -0.6454 -2.0614
16852SOL    HW252425   2.734   0.278   6.031  0.9380  0.9069  2.8712
16853SOL     OW52426   0.246   1.320   1.031 -0.3207 -0.0368 -0.1781
16853SOL    HW152427   0.164   1.348   0.990 -1.8832 -2.5443  1.0272
16853SOL    HW252428   0.279   1.399   1.074 -0.5617  1.7397 -2.9587
16854SOL     OW52429   4.026   0.552   3.809  0.8180 -0.8148  0.4974
16854SOL    HW152430   4.010   0.643   3.835 -1.2331 -0.5958 -1.2146
16854SOL    HW252431   4.075   0.515   3.882 -0.6061  0.9453  2.5045
16855SOL     OW52432   8.890   4.078   4.853 -0.6012 -0.1998  0.4869
16855SOL    HW152433   8.812   4.100   4.905  0.2651  0.6462  1.4895
16855SOL    HW252434   8.897   4.147   4.788  0.3843  0.8720  1.6669
16856SOL     OW52435   7.016   3.131   8.275  0.0919 -0.0518 -0.3016
16856SOL    HW152436   6.943   3.070   8.278 -0.3301  0.3524 -1.6895
16856SOL    HW252437   6.990   3.197   8.211  0.9339  1.0808  0.4705
16857SOL     OW52438   7.511   5.324   5.554 -0.1890  0.3633  0.0529
16857SOL    HW152439   7.433   5.379   5.569 -0.4073  0.2131 -0.5124
16857SOL    HW252440   7.532   5.337   5.462 -1.0560 -1.5257 -0.4620
16858SOL     OW52441   4.186   2.663   4.475 -0.2135 -0.5432 -0.5969
16858SOL    HW152442   4.219   2.579   4.443 -0.7311 -0.7656 -0.5702
16858SOL    HW252443   4.210   2.726   4.407 -0.4625 -0.8439 -0.9679
16859SOL     OW52444   4.389   0.110   2.344  0.3022 -0.1147  0.5853
16859SOL    HW152445   4.327   0.148   2.406 -1.4883 -1.9193 -0.0072
16859SOL    HW252446   4.402   0.178   2.278 -0.6931  0.4500  0.9557
16860SOL     OW52447   5.227   3.142   5.133  0.0679 -0.6282 -0.3741
16860SOL    HW152448   5.245   3.051   5.157  0.8078 -0.1451  1.0054
16860SOL    HW252449   5.301   3.167   5.077 -1.5519 -1.6892 -3.2014
16861SOL     OW52450   7.661   3.073   3.720 -0.3977 -0.4114 -0.3433
16861SOL    HW152451   7.583   3.061   3.775 -0.0087  0.5777  0.4627
16861SOL    HW252452   7.677   3.167   3.722  0.1756 -0.4741 -1.4156
16862SOL     OW52453   1.152   3.514   7.350  0.3476  0.1810  0.0969
16862SOL    HW152454   1.077   3.502   7.291 -0.5574  2.5483  0.6305
16862SOL    HW252455   1.115   3.508   7.438  0.6893  1.6236  0.3691
16863SOL     OW52456   6.283   8.936   5.868  0.0983  0.5444 -0.3229
16863SOL    HW152457   6.255   8.991   5.794 -1.1580 -0.8559 -0.9543
16863SOL    HW252458   6.233   8.855   5.857  1.2463 -0.3963  1.0631
16864SOL     OW52459   1.735   8.783   6.982  0.6398  0.3785 -0.0153
16864SOL    HW152460   1.701   8.836   6.910  0.2796 -1.4888 -1.3222
16864SOL    HW252461   1.670   8.713   6.992  2.3801 -1.3550 -0.2627
16865SOL     OW52462   4.671   3.832   3.158  0.3127 -0.1549 -0.3489
16865SOL    HW152463   4.693   3.905   3.216  2.6561  0.5981 -2.0688
16865SOL    HW252464   4.636   3.873   3.079 -1.0399 -1.0717 -0.2569
16866SOL     OW52465   7.576   7.567   7.821 -0.1211 -0.5954 -0.1199
16866SOL    HW152466   7.576   7.648   7.770  0.3813 -0.1169  0.6304
16866SOL    HW252467   7.503   7.516   7.785 -0.4014  0.1572 -0.6413
16867SOL     OW52468   2.120   3.480   1.448  0.0171 -0.0070 -0.4703
16867SOL    HW152469   2.119   3.565   1.494 -0.6752 -0.5776  0.6217
16867SOL    HW252470   2.208   3.474   1.412  0.4024  0.7467  0.2808
16868SOL     OW52471   3.582   5.546   7.937 -0.4060  0.1203  0.2167
16868SOL    HW152472   3.523   5.480   7.973  2.7558 -2.5251  0.9942
16868SOL    HW252473   3.563   5.547   7.843 -1.2579 -1.1069  0.3570
16869SOL     OW52474   4.270   1.500   4.508 -0.0269  0.2164 -0.3300
16869SOL    HW152475   4.365   1.505   4.514 -0.1681  2.5315  1.7964
16869SOL    HW252476   4.250   1.406   4.518  2.0008 -0.3263 -0.9602
16870SOL     OW52477   3.221   0.956   4.502  0.0918  0.1801  0.0510
16870SOL    HW152478   3.136   0.971   4.461  0.6015  0.8988 -0.7677
16870SOL    HW252479   3.241   1.039   4.546 -0.5906 -0.6627  2.0991
16871SOL     OW52480   0.344   8.816   1.129 -0.4323  0.7379 -0.2542
16871SOL    HW152481   0.296   8.752   1.181 -0.5219  1.8598  1.0906
16871SOL    HW252482   0.278   8.882   1.105 -0.1835  0.7334 -0.9738
16872SOL     OW52483   4.699   8.594   7.830 -0.8129 -0.1660 -0.2439
16872SOL    HW152484   4.689   8.669   7.772 -0.6684  0.5777  0.6699
16872SOL    HW252485   4.791   8.596   7.857 -0.5648 -1.2368 -0.9501
16873SOL     OW52486   8.949   4.943   8.132  0.5925 -0.1702  0.3596
16873SOL    HW152487   8.994   5.012   8.083  0.4768  0.1820  0.7464
16873SOL    HW252488   8.977   4.956   8.223 -2.2843  1.7293  1.1069
16874SOL     OW52489   8.091   5.618   0.581  0.3944  0.2682  0.0190
16874SOL    HW152490   8.181   5.607   0.550  0.2423 -1.0479  0.0036
16874SOL    HW252491   8.055   5.529   0.584 -0.4420  0.6176  1.4320
16875SOL     OW52492   0.993   8.719   1.795  0.4891 -0.1957  0.4317
16875SOL    HW152493   0.918   8.745   1.849 -0.0601 -0.7330 -0.0700
16875SOL    HW252494   1.016   8.632   1.827  0.6846 -0.1705  0.3563
16876SOL     OW52495   8.409   3.591   5.500  0.1186 -0.0453  0.5696
16876SOL    HW152496   8.483   3.531   5.512 -1.0309 -1.6626 -0.0476
16876SOL    HW252497   8.395   3.630   5.586  1.5243  0.0903  0.7483
16877SOL     OW52498   0.105   3.159   3.694  0.0655 -0.1510  0.3187
16877SOL    HW152499   0.023   3.124   3.662  0.4930  0.4265 -1.4957
16877SOL    HW252500   0.133   3.222   3.627  0.5457  1.8507  2.2702
16878SOL     OW52501   5.198   4.186   2.422 -0.1322  0.3046 -0.0635
16878SOL    HW152502   5.253   4.120   2.464 -1.0748 -0.7425 -0.4253
16878SOL    HW252503   5.127   4.201   2.484 -0.2719  0.4947 -0.2685
16879SOL     OW52504   7.040   4.887   5.654  0.2415 -1.0278 -0.0078
16879SOL    HW152505   7.128   4.881   5.694 -0.4113  0.3700  1.8278
16879SOL    HW252506   7.045   4.965   5.598  0.1877 -0.9621  0.0780
16880SOL     OW52507   8.504   4.816   3.805  0.3268  0.0514  0.2535
16880SOL    HW152508   8.543   4.838   3.889  0.8661 -0.7333  0.2254
16880SOL    HW252509   8.509   4.896   3.754  0.1006  0.5013  0.9267
16881SOL     OW52510   1.850   1.244   0.759 -0.0459 -0.2703 -0.5352
16881SOL    HW152511   1.842   1.300   0.836  1.3074 -1.8574  0.8364
16881SOL    HW252512   1.762   1.242   0.721 -0.9876 -0.2232  1.5425
16882SOL     OW52513   6.727   5.642   0.417  0.0593  0.0658  0.5581
16882SOL    HW152514   6.760   5.731   0.430 -0.4468  0.5529 -1.1739
16882SOL    HW252515   6.639   5.654   0.381  0.9336 -0.9824 -2.2680
16883SOL     OW52516   3.132   2.671   3.204  0.1151 -0.0142 -0.0322
16883SOL    HW152517   3.147   2.620   3.125  0.6506 -0.1771  0.1671
16883SOL    HW252518   3.158   2.613   3.276 -0.6998  0.0034  0.2919
16884SOL     OW52519   8.832   4.482   3.031  0.0822 -0.1772 -0.4184
16884SOL    HW152520   8.878   4.471   3.114  0.2858 -2.4292 -0.7702
16884SOL    HW252521   8.798   4.571   3.034  1.6440  0.4241  1.2728
16885SOL     OW52522   3.881   3.014   1.114 -0.4028  0.3891 -0.2932
16885SOL    HW152523   3.884   2.936   1.058  1.1595  0.6135 -0.5660
16885SOL    HW252524   3.810   2.996   1.176 -0.7740 -0.7802 -1.0217
16886SOL     OW52525   8.234   2.721   8.841  0.4410 -0.0706 -0.3267
16886SOL    HW152526   8.294   2.650   8.818  1.1756  0.4163  0.0467
16886SOL    HW252527   8.289   2.799   8.847 -0.3779  0.5794 -0.9024
16887SOL     OW52528   7.466   8.120   6.039  0.0616 -0.3645  0.1279
16887SOL    HW152529   7.392   8.171   6.008 -0.7614 -1.4432  0.2458
16887SOL    HW252530   7.430   8.033   6.056  1.4667 -1.0734 -0.3477
16888SOL     OW52531   6.705   0.354   7.932  0.1817 -0.5178 -0.3598
16888SOL    HW152532   6.711   0.287   7.999 -0.8724 -1.2694 -0.9966
16888SOL    HW252533   6.651   0.315   7.863  0.4609  0.5745 -1.2307
16889SOL     OW52534   3.371   4.283   8.368 -0.6290 -0.1511 -0.3950
16889SOL    HW152535   3.317   4.312   8.442  0.0424 -1.1817  0.5333
16889SOL    HW252536   3.350   4.190   8.359 -0.6691 -0.0501 -1.5022
16890SOL     OW52537   2.613   7.553   0.995  0.0415  0.3628  0.5151
16890SOL    HW152538   2.681   7.600   0.947  0.5604 -0.4279  0.4672
16890SOL    HW252539   2.573   7.620   1.050  1.4101  0.6856  1.1689
16891SOL     OW52540   7.390   8.842   5.094 -0.2916  0.2041  0.0599
16891SOL    HW152541   7.429   8.920   5.133  1.6283 -1.5407  1.9094
16891SOL    HW252542   7.459   8.806   5.038 -1.2584 -0.0206 -1.0143
16892SOL     OW52543   5.441   4.434   2.090  0.1581  0.4178 -0.0558
16892SOL    HW152544   5.424   4.505   2.152 -1.5285 -1.1891  1.4139
16892SOL    HW252545   5.373   4.369   2.107  1.6411 -1.6034 -1.3059
16893SOL     OW52546   6.918   5.915   5.940 -0.0142  0.1741 -0.1542
16893SOL    HW152547   6.829   5.938   5.968 -0.0536  0.6478 -0.6512
16893SOL    HW252548   6.911   5.825   5.909  0.3032 -0.9181  2.6033
16894SOL     OW52549   2.966   7.850   7.111  0.3416 -0.0361  0.5749
16894SOL    HW152550   2.983   7.808   7.027 -3.4129 -0.5946 -0.0796
16894SOL    HW252551   3.042   7.905   7.126  3.0435 -3.0082 -1.1133
16895SOL     OW52552   0.823   4.718   2.980  0.0583 -0.0049 -0.3609
16895SOL    HW152553   0.831   4.813   2.974  0.5801 -0.0521 -0.4391
16895SOL    HW252554   0.762   4.704   3.053  0.0409  0.3890 -0.2980
16896SOL     OW52555   1.048   3.647   0.090 -0.0578  0.3822 -0.0483
16896SOL    HW152556   0.993   3.693   0.027 -0.3184  0.3820  0.1809
16896SOL    HW252557   1.028   3.554   0.077 -0.3386  0.4002  0.2464
16897SOL     OW52558   2.607   3.670   7.918 -0.5931  0.4040 -0.3306
16897SOL    HW152559   2.585   3.762   7.929  0.6755  0.7100 -0.1478
16897SOL    HW252560   2.686   3.670   7.863 -1.1237 -0.6295 -1.1334
16898SOL     OW52561   2.376   2.418   6.805 -0.2815  0.2410 -0.1455
16898SOL    HW152562   2.373   2.476   6.881 -2.3119  2.1759 -1.5666
16898SOL    HW252563   2.422   2.469   6.738 -0.6951 -0.4357 -0.9595
16899SOL     OW52564   0.268   4.725   5.989  0.0300  0.4130  0.3789
16899SOL    HW152565   0.278   4.818   5.968  0.0478  0.2202 -0.5220
16899SOL    HW252566   0.180   4.718   6.026  0.2882  0.8909  1.1032
16900SOL     OW52567   6.356   1.626   3.655 -0.2086 -0.0482 -0.4316
16900SOL    HW152568   6.406   1.589   3.728  1.3941 -0.4308 -1.6676
16900SOL    HW252569   6.412   1.612   3.579 -0.8054  2.4506 -1.3957
16901SOL     OW52570   8.805   4.942   5.794  0.0000 -0.5330  0.1314
16901SOL    HW152571   8.827   4.893   5.873 -0.0896 -0.6161  0.1050
16901SOL    HW252572   8.730   4.997   5.820  0.7539  0.3752  0.4620
16902SOL     OW52573   1.210   7.552   0.620 -0.1393 -0.2738 -0.0295
16902SOL    HW152574   1.124   7.513   0.606  0.4842 -1.5136 -0.4864
16902SOL    HW252575   1.263   7.523   0.546  1.3302 -1.4653  1.4028
16903SOL     OW52576   0.327   4.916   8.333  0.0200  0.0257 -0.0029
16903SOL    HW152577   0.288   5.001   8.314  0.2568  0.3511  0.9431
16903SOL    HW252578   0.262   4.853   8.300 -0.0529  0.5547 -0.9202
16904SOL     OW52579   6.189   4.841   2.055 -0.2102  0.2472  0.2046
16904SOL    HW152580   6.123   4.799   2.110  1.0191 -0.2689  1.3464
16904SOL    HW252581   6.155   4.833   1.966 -1.5637 -0.1974  0.7335
16905SOL     OW52582   0.736   5.744   6.058 -0.4961 -0.2164  0.4442
16905SOL    HW152583   0.660   5.749   6.000  0.0467  2.3391 -0.1747
16905SOL    HW252584   0.806   5.710   6.003 -0.1297  1.6533 -0.3172
16906SOL     OW52585   8.852   1.949   5.575  0.2003 -0.9255 -0.2450
16906SOL    HW152586   8.880   2.037   5.600 -0.6141 -0.7092 -0.0766
16906SOL    HW252587   8.759   1.945   5.599  0.4818 -2.2076  0.7555
16907SOL     OW52588   5.181   0.375   5.459  0.4421  0.2234  0.1837
16907SOL    HW152589   5.213   0.299   5.412  0.0699 -1.2042  2.1396
16907SOL    HW252590   5.086   0.362   5.463  0.3444  0.9289  0.3116
16908SOL     OW52591   3.122   4.317   0.733 -0.0850 -0.3644 -0.0163
16908SOL    HW152592   3.100   4.306   0.825 -1.4605 -0.9003 -0.3816
16908SOL    HW252593   3.072   4.249   0.688 -0.9917  1.1212 -1.3637
16909SOL     OW52594   3.571   0.378   8.059 -0.2784  0.2003  0.0956
16909SOL    HW152595   3.604   0.371   7.969 -1.3315 -2.5033 -0.1961
16909SOL    HW252596   3.648   0.394   8.112  0.9360 -1.6162 -1.0036
16910SOL     OW52597   3.656   0.285   2.566 -0.5303  0.6244  0.1974
16910SOL    HW152598   3.726   0.348   2.583 -1.1374  1.8435 -1.5697
16910SOL    HW252599   3.630   0.301   2.476 -1.5036 -1.4090  0.0466
16911SOL     OW52600   3.403   4.303   2.184  0.2679  0.1845  0.4062
16911SOL    HW152601   3.365   4.329   2.099 -0.3860 -0.1212  0.5941
16911SOL    HW252602   3.326   4.290   2.240  0.6686 -0.3852  0.8214
16912SOL     OW52603   6.372   3.905   1.597 -0.0112 -0.9932  0.2777
16912SOL    HW152604   6.347   3.815   1.575  0.9067 -0.9385 -1.1006
16912SOL    HW252605   6.454   3.919   1.550 -0.8793  1.0554 -0.7642
16913SOL     OW52606   8.327   2.360   2.578  0.0517 -0.0272 -0.4773
16913SOL    HW152607   8.422   2.355   2.569 -0.0519 -1.4245 -1.1267
16913SOL    HW252608   8.310   2.450   2.607  1.5518  0.2674 -0.4222
16914SOL     OW52609   4.649   5.910   7.765  0.4243 -0.5506 -0.7068
16914SOL    HW152610   4.578   5.885   7.706 -0.2073 -0.5123  0.0173
16914SOL    HW252611   4.664   5.833   7.820 -1.8286  0.6471  1.8311
16915SOL     OW52612   7.593   7.682   5.420 -0.2131 -0.1033 -0.0366
16915SOL    HW152613   7.508   7.726   5.427 -0.7457 -0.5827 -2.5712
16915SOL    HW252614   7.613   7.682   5.326  1.9036 -1.3012  0.3433
16916SOL     OW52615   4.649   2.673   7.117  0.7510  0.7944 -0.5222
16916SOL    HW152616   4.676   2.762   7.141  1.3025  0.8817 -1.4473
16916SOL    HW252617   4.574   2.686   7.058  0.1184  0.6065  0.2182
16917SOL     OW52618   8.190   3.043   7.817  0.4747 -0.1922 -1.1714
16917SOL    HW152619   8.100   3.060   7.790  0.0059  1.5702  1.1946
16917SOL    HW252620   8.244   3.087   7.751 -0.5639  2.4294 -0.3997
16918SOL     OW52621   3.152   6.509   5.620 -0.0319  0.1285 -0.0930
16918SOL    HW152622   3.241   6.473   5.618 -0.4787 -0.9940 -0.3010
16918SOL    HW252623   3.163   6.597   5.657  1.1246 -0.1057  0.1701
16919SOL     OW52624   8.325   0.383   4.024  0.3577 -0.1610  0.0848
16919SOL    HW152625   8.405   0.432   4.047 -0.0507  0.8093 -0.4857
16919SOL    HW252626   8.302   0.415   3.937 -1.9306  1.3434  1.1407
16920SOL     OW52627   4.238   6.710   1.607 -0.1506 -0.2989  0.6796
16920SOL    HW152628   4.309   6.648   1.621  0.2789 -0.0636 -0.3052
16920SOL    HW252629   4.274   6.794   1.635  0.0672 -0.1363 -0.0575
16921SOL     OW52630   2.558   3.997   8.989 -0.4564  0.2732 -0.3428
16921SOL    HW152631   2.600   4.067   9.038 -1.4070  0.3175  0.4388
16921SOL    HW252632   2.470   4.030   8.970 -1.2307 -1.0221  0.8041
16922SOL     OW52633   2.124   2.259   4.521 -0.2194  0.0034 -0.2013
16922SOL    HW152634   2.044   2.216   4.491 -1.4756  2.6001 -0.8385
16922SOL    HW252635   2.149   2.211   4.600 -3.0410 -0.2334  0.6661
16923SOL     OW52636   5.941   7.756   6.268  0.2771  0.4269 -0.2532
16923SOL    HW152637   5.909   7.845   6.285  0.6583  0.7754 -1.2371
16923SOL    HW252638   6.001   7.767   6.194  0.1555 -0.6863 -0.5266
16924SOL     OW52639   8.983   8.543   6.349 -0.2965 -0.0323  0.2751
16924SOL    HW152640   9.004   8.451   6.333  1.0799  0.2453  0.3899
16924SOL    HW252641   8.894   8.553   6.314 -0.8405 -1.6104  1.0731
16925SOL     OW52642   2.751   4.327   1.816 -0.0322 -0.1476  0.1553
16925SOL    HW152643   2.700   4.407   1.805 -0.2936 -0.5139 -1.4027
16925SOL    HW252644   2.754   4.315   1.911 -1.5903  0.6791  0.3531
16926SOL     OW52645   8.653   6.645   6.789  0.3053  0.0528  0.0479
16926SOL    HW152646   8.569   6.689   6.773 -0.3115 -0.1917  2.2749
16926SOL    HW252647   8.634   6.582   6.859  1.6330 -2.3416 -1.5999
16927SOL     OW52648   5.346   0.035   0.662 -0.0269 -0.1677  0.3626
16927SOL    HW152649   5.439   0.018   0.653  0.0513  0.2891  0.2939
16927SOL    HW252650   5.325   0.094   0.589 -0.1692  0.5053  0.9436
16928SOL     OW52651   6.650   8.284   2.357  1.0468  1.1477  0.3112
16928SOL    HW152652   6.708   8.328   2.296  1.9129  0.8561  0.9052
16928SOL    HW252653   6.698   8.283   2.440  0.4265  0.4176  0.6819
16929SOL     OW52654   5.829   2.240   6.937 -0.3691  0.4274  0.3589
16929SOL    HW152655   5.817   2.212   7.028 -1.6951  0.8530  0.3345
16929SOL    HW252656   5.900   2.185   6.904 -1.3250 -1.2764  1.0217
16930SOL     OW52657   6.262   5.701   4.576 -0.0732  0.3518 -0.4509
16930SOL    HW152658   6.342   5.668   4.619  0.2363 -1.3007 -2.1518
16930SOL    HW252659   6.203   5.626   4.575 -1.8936  1.6581  1.1485
16931SOL     OW52660   2.850   8.571   4.176 -1.0084 -0.2277 -0.1578
16931SOL    HW152661   2.831   8.655   4.217 -1.1849  0.3302 -1.3453
16931SOL    HW252662   2.919   8.590   4.112  0.2158 -1.3292  0.7528
16932SOL     OW52663   2.666   0.372   8.541 -0.2694 -0.8390 -0.0750
16932SOL    HW152664   2.610   0.321   8.483 -2.2498  0.4861  0.5521
16932SOL    HW252665   2.607   0.406   8.608  1.2416  0.8577  0.5056
16933SOL     OW52666   2.061   0.683   3.609 -0.0697 -0.4540 -0.0724
16933SOL    HW152667   2.119   0.717   3.541  0.5417 -0.8237  0.2599
16933SOL    HW252668   2.065   0.588   3.598  0.9749 -0.5865  1.2241
16934SOL     OW52669   3.283   8.514   3.074 -0.5684 -0.3533  0.3438
16934SOL    HW152670   3.264   8.434   3.025  0.0183 -0.6611  0.5984
16934SOL    HW252671   3.247   8.585   3.021  1.7204 -0.4818 -1.5110
16935SOL     OW52672   0.799   0.964   2.760  0.0017 -0.0267  0.3175
16935SOL    HW152673   0.802   0.981   2.666 -1.5084  1.3558  0.4847
16935SOL    HW252674   0.757   1.041   2.798 -2.1936 -1.8068  1.7741
16936SOL     OW52675   7.768   4.217   3.789  0.7237  0.0338  0.2955
16936SOL    HW152676   7.738   4.222   3.698  0.8500  1.4664  0.3108
16936SOL    HW252677   7.776   4.309   3.816  1.1174 -0.3770  1.6103
16937SOL     OW52678   7.253   4.950   1.636 -0.1141  0.1862  0.2366
16937SOL    HW152679   7.330   4.933   1.689  0.6361 -0.8430 -1.1080
16937SOL    HW252680   7.182   4.903   1.680  0.2073  0.4243  1.0149
16938SOL     OW52681   1.999   6.746   3.395  0.5692 -0.1353 -0.2037
16938SOL    HW152682   2.074   6.759   3.337  1.4756  0.1750  1.0084
16938SOL    HW252683   1.923   6.748   3.336  1.0228  4.2775 -1.0486
16939SOL     OW52684   2.704   0.894   2.031 -0.1699  0.5222  0.3324
16939SOL    HW152685   2.653   0.971   2.056  0.0895  0.4938  0.9756
16939SOL    HW252686   2.668   0.868   1.946 -0.8708  0.8095  0.5318
16940SOL     OW52687   2.962   2.767   5.041 -0.3284  0.3081 -0.9288
16940SOL    HW152688   2.902   2.771   4.967 -0.4609  0.2481 -0.8236
16940SOL    HW252689   2.990   2.676   5.045 -1.0079  0.1178 -0.3550
16941SOL     OW52690   2.806   3.163   5.227 -0.4191  0.1775 -0.4716
16941SOL    HW152691   2.829   3.169   5.320  0.2830  1.9029 -0.7084
16941SOL    HW252692   2.868   3.099   5.192  0.3753  0.6797 -0.0342
16942SOL     OW52693   4.979   2.188   4.041 -0.3053 -0.0688 -0.2050
16942SOL    HW152694   4.956   2.249   3.971  0.7987  0.8269  0.1630
16942SOL    HW252695   5.062   2.223   4.076 -0.9725 -0.3005  1.7363
16943SOL     OW52696   0.054   7.828   6.716 -0.1498  0.6774  0.6182
16943SOL    HW152697   0.105   7.753   6.746  1.2350  1.4292  0.2108
16943SOL    HW252698   0.107   7.868   6.647 -1.5502  1.1724 -0.2137
16944SOL     OW52699   0.059   2.558   6.744  0.7695  0.4512 -0.4651
16944SOL    HW152700   0.120   2.505   6.694  0.0679  1.5946 -2.6783
16944SOL    HW252701   0.111   2.634   6.772  0.5228  1.2604 -2.0648
16945SOL     OW52702   8.395   5.731   0.748 -0.0011  0.2042 -0.7124
16945SOL    HW152703   8.367   5.664   0.810  2.9468  0.3011  0.8602
16945SOL    HW252704   8.390   5.689   0.662 -1.0698 -0.9835 -0.0982
16946SOL     OW52705   0.369   2.621   6.996 -0.0070  0.4530 -0.1057
16946SOL    HW152706   0.331   2.697   7.040  0.4887  0.4860  0.2791
16946SOL    HW252707   0.419   2.576   7.064 -0.8461 -0.5996 -0.1620
16947SOL     OW52708   7.420   7.444   8.577  0.2457  0.0008  0.1835
16947SOL    HW152709   7.470   7.432   8.658  0.2296 -0.3271  0.1457
16947SOL    HW252710   7.484   7.437   8.507  0.0645 -0.9829  0.1074
16948SOL     OW52711   1.242   4.847   5.883  0.0590  0.1699  0.3818
16948SOL    HW152712   1.188   4.867   5.807 -0.5547  1.4479  1.1239
16948SOL    HW252713   1.295   4.925   5.896 -0.1731  0.1507  1.5317
16949SOL     OW52714   6.004   0.352   3.027 -0.2341 -0.5860  0.1311
16949SOL    HW152715   6.080   0.297   3.006  0.5209 -0.3930  2.1635
16949SOL    HW252716   5.929   0.293   3.020  0.2475 -1.1286 -0.5487
16950SOL     OW52717   4.665   3.138   1.831  0.5347  0.0207  0.4931
16950SOL    HW152718   4.722   3.215   1.831  0.7774 -0.1039  2.4249
16950SOL    HW252719   4.634   3.130   1.741  0.1758  2.6139  0.3329
16951SOL     OW52720   6.510   8.117   2.747  1.4571 -0.2057 -0.0386
16951SOL    HW152721   6.497   8.202   2.705 -0.2925  0.2385  1.2889
16951SOL    HW252722   6.497   8.054   2.676 -0.0213  0.5636 -0.5064
16952SOL     OW52723   4.253   2.248   5.920  0.2728  0.0854  0.7602
16952SOL    HW152724   4.179   2.192   5.896 -0.0011 -0.3591  2.5141
16952SOL    HW252725   4.325   2.188   5.933  0.4896  0.3488  0.7826
16953SOL     OW52726   1.894   2.499   7.541 -0.4389  0.9042  0.1243
16953SOL    HW152727   1.867   2.572   7.598  0.5017  1.8370 -0.5746
16953SOL    HW252728   1.990   2.503   7.542 -0.1578 -2.4183  2.6817
16954SOL     OW52729   7.772   3.086   6.876  0.1162  0.1495 -0.0395
16954SOL    HW152730   7.724   3.067   6.957  1.5801  0.0146  0.8365
16954SOL    HW252731   7.864   3.090   6.903  0.7646 -1.0085 -1.8971
16955SOL     OW52732   7.338   8.627   3.943 -0.3752  0.6661  0.0431
16955SOL    HW152733   7.294   8.587   4.018 -1.5250 -0.5538 -1.2163
16955SOL    HW252734   7.426   8.589   3.943 -0.1841  1.0738  1.0421
16956SOL     OW52735   8.985   8.502   7.254  0.6607  0.1286  0.7261
16956SOL    HW152736   9.043   8.557   7.201  1.8195  1.0689  2.8571
16956SOL    HW252737   9.043   8.456   7.314 -0.5211 -1.7383  0.5256
16957SOL     OW52738   5.520   2.477   7.546  0.3518 -0.0120  0.0462
16957SOL    HW152739   5.578   2.404   7.526 -1.0406 -0.8681 -1.0744
16957SOL    HW252740   5.498   2.515   7.461 -0.0398  0.8498  0.5103
16958SOL     OW52741   2.705   6.722   7.327 -0.3111 -0.2496  0.4194
16958SOL    HW152742   2.701   6.675   7.410 -1.8213 -0.3070  0.3427
16958SOL    HW252743   2.617   6.759   7.316 -0.0454  0.0242 -0.9922
16959SOL     OW52744   3.383   4.205   4.054 -0.2979 -0.4687 -0.3568
16959SOL    HW152745   3.373   4.112   4.033 -1.2423 -0.5857  0.5138
16959SOL    HW252746   3.376   4.250   3.970  0.2640 -1.1868 -0.7984
16960SOL     OW52747   6.051   4.037   6.044 -0.0136 -0.5163 -0.3371
16960SOL    HW152748   6.040   3.947   6.074 -1.3347 -0.0727  0.5899
16960SOL    HW252749   6.009   4.038   5.957  1.2671 -1.1130 -0.9846
16961SOL     OW52750   2.627   8.852   5.439  0.6105  0.5276  0.4748
16961SOL    HW152751   2.639   8.771   5.389 -1.8816 -0.1366  0.8301
16961SOL    HW252752   2.686   8.842   5.514  0.3161 -0.9974  0.5359
16962SOL     OW52753   2.511   7.432   2.737 -0.0158 -0.4993 -0.3531
16962SOL    HW152754   2.548   7.502   2.790 -1.1701  0.1849 -0.4080
16962SOL    HW252755   2.511   7.355   2.795  3.0196 -1.0083 -0.9031
16963SOL     OW52756   4.289   8.802   1.655 -0.1164  0.7736  0.0405
16963SOL    HW152757   4.214   8.846   1.696  0.6212  1.4284  0.7172
16963SOL    HW252758   4.250   8.743   1.591 -1.4151 -0.7798  2.0990
16964SOL     OW52759   4.413   8.360   2.504  0.2862  0.8319  0.1998
16964SOL    HW152760   4.377   8.297   2.442 -1.4514 -0.0912  2.0359
16964SOL    HW252761   4.492   8.393   2.461 -1.0641  0.6268 -2.6735
16965SOL     OW52762   3.749   7.629   2.489 -0.9798 -0.7254  0.4397
16965SOL    HW152763   3.841   7.654   2.500 -0.8741  0.6308 -2.5253
16965SOL    HW252764   3.744   7.541   2.527  1.3069 -0.4973  1.4611
16966SOL     OW52765   3.710   5.831   7.523 -0.1569 -0.2249 -0.0865
16966SOL    HW152766   3.743   5.882   7.450  0.9721 -1.4685 -0.4756
16966SOL    HW252767   3.718   5.889   7.599 -2.4207  1.5040 -1.0633
16967SOL     OW52768   2.763   4.303   5.527  0.2070 -0.4040 -1.0544
16967SOL    HW152769   2.842   4.354   5.548  0.3316 -0.4732 -1.3425
16967SOL    HW252770   2.762   4.300   5.431 -0.7509  0.5335 -1.0933
16968SOL     OW52771   7.058   0.863   8.453 -0.2687 -0.0671 -0.1310
16968SOL    HW152772   7.023   0.789   8.503  0.0007  0.1896  0.4320
16968SOL    HW252773   7.023   0.941   8.495 -1.2243  0.1290 -1.2201
16969SOL     OW52774   1.750   4.336   6.683 -0.1936  0.4568 -0.2270
16969SOL    HW152775   1.802   4.382   6.748  0.5335  0.7699 -1.0002
16969SOL    HW252776   1.815   4.302   6.621 -0.9563  2.3177 -2.1694
16970SOL     OW52777   8.946   3.826   0.009 -0.3484  0.1044  0.2726
16970SOL    HW152778   8.977   3.840   0.098  0.6296 -0.1418 -0.0159
16970SOL    HW252779   9.021   3.789  -0.038 -1.3043 -1.3147 -0.2529
16971SOL     OW52780   2.630   6.708   1.209 -0.0085 -0.1906 -0.1944
16971SOL    HW152781   2.588   6.764   1.144 -0.6709 -1.6734 -1.0660
16971SOL    HW252782   2.709   6.675   1.166 -1.5037 -2.8435 -1.1102
16972SOL     OW52783   5.188   8.208   4.375  0.0638  0.3041 -0.1653
16972SOL    HW152784   5.204   8.266   4.300  0.5262 -0.7836 -0.9465
16972SOL    HW252785   5.270   8.160   4.385 -0.8399 -1.4156 -0.6434
16973SOL     OW52786   7.335   7.157   7.679  0.0115 -0.5068  0.1878
16973SOL    HW152787   7.296   7.095   7.740  2.8567 -0.8436  1.8636
16973SOL    HW252788   7.429   7.140   7.684  0.5798  1.2095 -2.4237
16974SOL     OW52789   4.608   4.895   4.006  0.2811  0.7765  0.4220
16974SOL    HW152790   4.617   4.961   4.074 -0.2065 -0.6614  1.9570
16974SOL    HW252791   4.688   4.842   4.013  0.3610  0.7863 -0.3270
16975SOL     OW52792   1.980   0.812   0.165  0.1697 -0.6432 -1.0481
16975SOL    HW152793   1.887   0.808   0.142 -0.2805  0.6050  0.4356
16975SOL    HW252794   1.985   0.778   0.254  1.5618 -3.1961 -1.9744
16976SOL     OW52795   8.405   6.485   5.131  0.0667 -0.3635 -0.4164
16976SOL    HW152796   8.476   6.449   5.184 -0.6007 -0.7448  0.2379
16976SOL    HW252797   8.372   6.411   5.080 -0.5915 -0.4420  0.1151
16977SOL     OW52798   3.410   0.054   2.458 -0.5336 -0.0846 -0.0860
16977SOL    HW152799   3.375  -0.017   2.404 -1.3575 -0.1195  0.4798
16977SOL    HW252800   3.490   0.017   2.497 -0.1130 -0.1678 -1.0040
16978SOL     OW52801   4.935   2.293   8.791 -0.5268  0.0151 -0.1475
16978SOL    HW152802   4.865   2.345   8.831  1.4679  1.8948  1.0981
16978SOL    HW252803   4.966   2.237   8.862 -0.2315 -0.2236 -0.4633
16979SOL     OW52804   7.903   3.477   6.021  0.3725  0.0885 -0.1411
16979SOL    HW152805   7.878   3.414   6.089  0.8865 -0.3859 -0.3824
16979SOL    HW252806   7.943   3.549   6.070  0.0109  0.1182  0.1182
16980SOL     OW52807   5.709   0.288   4.005 -0.4580 -0.0582  0.4103
16980SOL    HW152808   5.792   0.263   3.963 -0.6749 -0.7843  0.4077
16980SOL    HW252809   5.735   0.312   4.094 -0.4698 -2.1805  1.0348
16981SOL     OW52810   2.624   7.172   4.702  0.2417 -0.2538 -0.1511
16981SOL    HW152811   2.706   7.133   4.731 -0.2479 -1.4394 -0.3262
16981SOL    HW252812   2.577   7.101   4.660 -2.1629 -0.4168  2.5118
16982SOL     OW52813   3.077   1.250   7.485 -0.2084 -0.0245  0.2815
16982SOL    HW152814   3.134   1.310   7.531  1.2103 -0.3616 -0.9579
16982SOL    HW252815   3.133   1.207   7.420 -1.9756  0.0989 -1.4538
16983SOL     OW52816   6.172   4.777   4.135  0.1903  0.3575 -0.4239
16983SOL    HW152817   6.196   4.866   4.157  0.8589  0.5131 -1.7040
16983SOL    HW252818   6.227   4.722   4.191  0.2834  0.7384 -0.1389
16984SOL     OW52819   5.579   5.746   0.510  0.3200  0.2915 -0.3663
16984SOL    HW152820   5.576   5.710   0.421 -0.8410  0.3081 -0.3475
16984SOL    HW252821   5.490   5.779   0.526  0.5851  0.5315  0.7027
16985SOL     OW52822   6.796   4.643   4.764 -0.1345 -0.0672 -0.5097
16985SOL    HW152823   6.872   4.700   4.769 -0.2208 -0.0582  1.7503
16985SOL    HW252824   6.732   4.683   4.824 -0.3828 -2.1999  0.7579
16986SOL     OW52825   7.598   5.432   2.790  0.3364  0.4916 -0.2242
16986SOL    HW152826   7.546   5.504   2.825  1.7905  2.4607 -1.8730
16986SOL    HW252827   7.655   5.407   2.862 -1.7592 -0.6749  1.1165
16987SOL     OW52828   1.651   2.199   5.435  0.4886  0.1145 -0.1079
16987SOL    HW152829   1.656   2.261   5.508 -0.7522  0.6134 -0.4263
16987SOL    HW252830   1.562   2.207   5.402 -0.1075 -2.6814  0.5574
16988SOL     OW52831   8.621   8.297   8.102  0.3030 -0.3422 -0.0509
16988SOL    HW152832   8.700   8.326   8.147 -0.2058 -0.4948  0.9859
16988SOL    HW252833   8.551   8.310   8.166 -0.5671  0.0876 -1.0419
16989SOL     OW52834   5.426   7.569   5.511 -0.0658  0.2218 -0.2307
16989SOL    HW152835   5.382   7.520   5.581 -1.7456  0.8823 -0.7803
16989SOL    HW252836   5.457   7.501   5.451  1.9026 -0.3947  1.3634
16990SOL     OW52837   1.768   0.190   7.556 -0.1242  0.1722 -0.3219
16990SOL    HW152838   1.694   0.223   7.504 -0.7021 -1.1343 -0.3592
16990SOL    HW252839   1.730   0.167   7.640 -0.0113 -1.5242 -0.6952
16991SOL     OW52840   7.521   3.284   8.792  0.8291  0.1360  0.0672
16991SOL    HW152841   7.485   3.315   8.709 -5.1240  0.6734  2.3659
16991SOL    HW252842   7.538   3.365   8.841 -0.4000 -0.1069  0.9409
16992SOL     OW52843   4.634   8.277   3.758 -0.1084 -0.0758  0.1653
16992SOL    HW152844   4.596   8.326   3.831  1.2598  1.4427 -0.0660
16992SOL    HW252845   4.724   8.260   3.786  0.2583  0.0288 -0.9255
16993SOL     OW52846   7.784   2.923   3.546 -0.0016 -0.2165 -0.2276
16993SOL    HW152847   7.739   2.971   3.615 -1.9912  0.6853 -2.0456
16993SOL    HW252848   7.785   2.832   3.577 -0.0340  0.2876  1.3390
16994SOL     OW52849   3.269   0.634   5.361 -0.4122 -0.0874 -0.1004
16994SOL    HW152850   3.194   0.692   5.348  0.2052  0.7722  0.1647
16994SOL    HW252851   3.274   0.622   5.456  0.0949  0.2678 -0.0818
16995SOL     OW52852   1.511   3.280   5.960 -0.0012 -0.1234  0.3731
16995SOL    HW152853   1.478   3.369   5.974  0.5351  0.3740 -1.3825
16995SOL    HW252854   1.432   3.226   5.958 -0.3484  0.3301  1.1955
16996SOL     OW52855   0.024   3.785   4.205  0.4689 -0.3971  0.3410
16996SOL    HW152856  -0.050   3.758   4.259  0.9454 -0.7616  0.8180
16996SOL    HW252857   0.085   3.712   4.209  0.4335 -0.5110 -0.8528
16997SOL     OW52858   0.165   5.576   4.072 -0.5485  0.6217 -0.2934
16997SOL    HW152859   0.228   5.518   4.029 -1.2868 -0.3196 -0.1351
16997SOL    HW252860   0.140   5.529   4.151 -0.5968  1.5105  0.2334
16998SOL     OW52861   3.435   8.324   1.408 -0.3487  0.6532  0.1698
16998SOL    HW152862   3.494   8.254   1.384 -2.0063 -0.3128 -1.3280
16998SOL    HW252863   3.479   8.404   1.379  0.1289 -0.0555 -1.1471
16999SOL     OW52864   8.230   7.715   8.628  0.5035 -0.1160 -0.0516
16999SOL    HW152865   8.205   7.800   8.592  2.1616 -0.3500 -1.9181
16999SOL    HW252866   8.324   7.721   8.642  0.4480 -1.2452  0.9877
17000SOL     OW52867   6.672   8.050   6.042  0.6096  0.2455  0.1317
17000SOL    HW152868   6.675   8.116   6.111 -0.3683  0.7049 -0.2479
17000SOL    HW252869   6.649   7.969   6.086  0.4628  0.4393  0.4102
17001SOL     OW52870   3.549   2.830   5.203  0.7752  0.0032  0.1377
17001SOL    HW152871   3.626   2.836   5.259  1.0854 -1.3632 -0.1101
17001SOL    HW252872   3.496   2.760   5.243 -0.6481  1.3024  0.6505
17002SOL     OW52873   5.346   0.747   3.888 -0.1476  0.2321 -0.1542
17002SOL    HW152874   5.294   0.698   3.825 -0.4079 -0.9579  0.9333
17002SOL    HW252875   5.303   0.832   3.894 -1.6363 -0.5167  0.2615
17003SOL     OW52876   4.005   8.078   4.335  0.5727 -0.3429 -0.5963
17003SOL    HW152877   4.089   8.122   4.342  0.0411  0.6174 -0.0247
17003SOL    HW252878   4.017   8.014   4.265  1.9718 -0.7080 -0.0628
17004SOL     OW52879   6.891   7.285   1.687 -0.3156  0.3428  0.4440
17004SOL    HW152880   6.936   7.203   1.667 -0.1648  0.0593  1.8001
17004SOL    HW252881   6.929   7.313   1.771 -0.4023  1.7709  0.0319
17005SOL     OW52882   6.452   8.764   8.084 -0.6985 -0.4738  0.1281
17005SOL    HW152883   6.469   8.681   8.129  1.1515 -0.3996 -0.3189
17005SOL    HW252884   6.422   8.738   7.997 -0.9541 -0.6664  0.2726
17006SOL     OW52885   7.793   5.195   4.760 -0.3779  0.4273 -0.3666
17006SOL    HW152886   7.847   5.261   4.804  0.6144  0.6983 -1.8956
17006SOL    HW252887   7.756   5.242   4.684 -0.1478 -0.5980 -1.1330
17007SOL     OW52888   2.779   4.883   0.104 -0.1536  0.2991  0.5065
17007SOL    HW152889   2.758   4.977   0.110  0.0972  0.3973 -0.0896
17007SOL    HW252890   2.835   4.866   0.180 -2.0364  0.1133  1.9342
17008SOL     OW52891   1.393   4.069   3.750 -0.0258  1.1078 -0.1118
17008SOL    HW152892   1.414   3.986   3.707  1.3879  1.3485  0.0770
17008SOL    HW252893   1.464   4.082   3.813 -0.9576  1.7998  0.8307
17009SOL     OW52894   4.679   1.036   1.901  0.1853 -0.7198  0.0342
17009SOL    HW152895   4.756   1.056   1.848  0.9250 -0.8691  1.0256
17009SOL    HW252896   4.606   1.038   1.839  1.0461 -1.1123 -1.0234
17010SOL     OW52897   3.716   3.694   7.735 -0.4095  0.1649 -0.1773
17010SOL    HW152898   3.798   3.726   7.774 -0.3273  0.7358 -0.7918
17010SOL    HW252899   3.675   3.641   7.804  0.0984  0.5208  0.4075
17011SOL     OW52900   5.415   7.284   4.142 -0.0967 -0.7432 -0.5513
17011SOL    HW152901   5.496   7.269   4.191 -1.3848 -0.0408  1.9749
17011SOL    HW252902   5.411   7.379   4.131 -0.2513 -0.8288 -1.2951
17012SOL     OW52903   5.265   7.633   1.585  0.1122 -0.1107  0.1795
17012SOL    HW152904   5.310   7.699   1.533  0.5373 -0.6209 -0.1054
17012SOL    HW252905   5.209   7.683   1.644 -0.0809  0.4785 -0.5011
17013SOL     OW52906   4.043   0.074   3.008  0.4075  0.1817  0.7459
17013SOL    HW152907   4.046  -0.020   2.988  0.2071 -0.1660  2.2275
17013SOL    HW252908   4.122   0.110   2.967  0.4929 -0.6278  0.1687
17014SOL     OW52909   6.379   4.009   7.589  0.8836  0.1902 -0.0204
17014SOL    HW152910   6.398   3.928   7.636  1.2743 -0.3103 -1.0123
17014SOL    HW252911   6.344   4.068   7.656  1.0022 -0.6469  0.7996
17015SOL     OW52912   7.986   5.989   0.036 -0.5700 -0.1851  0.2580
17015SOL    HW152913   8.046   5.958  -0.032 -1.2327  2.0720 -1.4706
17015SOL    HW252914   8.025   6.071   0.067 -1.7254  0.2574  0.5811
17016SOL     OW52915   5.868   5.141   5.207  0.1630  0.0045 -1.0020
17016SOL    HW152916   5.868   5.191   5.125  0.6637  0.8322 -0.5196
17016SOL    HW252917   5.915   5.060   5.186  1.7531  0.9152 -1.1467
17017SOL     OW52918   4.006   6.152   8.881  0.5946  0.0772 -0.1530
17017SOL    HW152919   4.077   6.152   8.944  1.0136  0.4053 -0.6153
17017SOL    HW252920   3.998   6.061   8.853  1.9649  0.2881 -1.3384
17018SOL     OW52921   2.561   5.970   2.011  0.0263  0.5029 -0.1501
17018SOL    HW152922   2.475   5.953   2.049 -0.2635  0.6386 -0.7304
17018SOL    HW252923   2.594   6.045   2.059  0.3334 -0.2762  0.8781
17019SOL     OW52924   8.348   5.789   5.099  0.0170 -0.2550  0.1407
17019SOL    HW152925   8.312   5.718   5.152  1.2070 -1.3897 -0.5225
17019SOL    HW252926   8.420   5.824   5.153 -0.3888  0.2844  0.3451
17020SOL     OW52927   5.489   4.438   6.017  0.1564 -0.1160 -0.1171
17020SOL    HW152928   5.542   4.516   5.999  0.4770 -0.3063 -0.0088
17020SOL    HW252929   5.480   4.396   5.931  1.2813 -0.7671  0.0584
17021SOL     OW52930   1.517   1.775   6.750  0.0026 -0.1745 -0.3240
17021SOL    HW152931   1.466   1.853   6.731 -0.4986 -0.4654 -0.1968
17021SOL    HW252932   1.570   1.798   6.827 -1.3325 -0.4759  0.7214
17022SOL     OW52933   5.165   2.486   8.898 -0.4517 -0.1460 -0.1626
17022SOL    HW152934   5.252   2.494   8.936 -0.4404 -0.2329 -0.1714
17022SOL    HW252935   5.143   2.394   8.907 -0.8289  0.0001  0.4656
17023SOL     OW52936   3.889   4.025   6.585 -0.0751 -0.2246  0.0872
17023SOL    HW152937   3.880   4.083   6.660  1.5306  0.7426 -0.4156
17023SOL    HW252938   3.927   3.945   6.621 -1.2700 -0.5798  0.6078
17024SOL     OW52939   4.597   5.158   3.014 -0.1163  0.0633 -0.2508
17024SOL    HW152940   4.585   5.235   3.068 -0.9114 -1.1981  1.4736
17024SOL    HW252941   4.689   5.133   3.027  0.0054  0.4225 -0.4200
17025SOL     OW52942   4.676   2.542   7.356  0.0100  0.7285 -0.3590
17025SOL    HW152943   4.666   2.554   7.262 -1.5620 -0.9040 -0.4623
17025SOL    HW252944   4.589   2.514   7.386  0.7600  0.1301  1.3942
17026SOL     OW52945   8.319   0.772   8.696  0.3686  0.2281 -0.6310
17026SOL    HW152946   8.352   0.711   8.629 -0.0509 -0.7387  0.0229
17026SOL    HW252947   8.344   0.732   8.779  1.1150  1.5576 -0.2022
17027SOL     OW52948   3.304   5.849   2.552  0.2543 -0.1444 -0.0913
17027SOL    HW152949   3.365   5.831   2.623  1.6963  0.0635 -1.2240
17027SOL    HW252950   3.300   5.767   2.503  1.9450  0.6433 -1.6730
17028SOL     OW52951   8.093   0.410   3.144 -0.3722  0.4321 -0.1026
17028SOL    HW152952   8.004   0.443   3.158 -0.0052  1.1148  0.6663
17028SOL    HW252953   8.080   0.330   3.094 -1.3566  1.0731 -0.9160
17029SOL     OW52954   2.077   2.270   6.124  0.0616 -0.6021  0.2374
17029SOL    HW152955   2.108   2.239   6.209  2.0257 -1.3091 -0.6792
17029SOL    HW252956   2.151   2.320   6.088 -0.4950 -0.7969 -1.2778
17030SOL     OW52957   4.071   6.259   0.955 -0.2573  0.0663 -0.4924
17030SOL    HW152958   3.980   6.260   0.925 -0.6712  1.1108  0.6972
17030SOL    HW252959   4.069   6.305   1.039  1.5443  1.0864 -0.9494
17031SOL     OW52960   4.910   8.692   2.749 -0.3083 -0.0656 -0.1784
17031SOL    HW152961   4.939   8.750   2.678  0.8808 -0.4404 -0.0229
17031SOL    HW252962   4.821   8.667   2.724  0.1270 -0.2891 -1.6324
17032SOL     OW52963   2.246   5.337   4.530 -0.5901  0.1539  0.1130
17032SOL    HW152964   2.162   5.302   4.501 -0.0659 -0.3982 -0.8268
17032SOL    HW252965   2.293   5.355   4.448  0.8168 -1.1182  0.5934
17033SOL     OW52966   2.961   5.652   7.776  0.4727 -0.6245 -0.1565
17033SOL    HW152967   2.925   5.710   7.709  1.4325  1.2208  0.8528
17033SOL    HW252968   3.056   5.667   7.771  0.4725  2.0480  3.6230
17034SOL     OW52969   8.197   4.115   8.424 -0.1989 -0.2154 -0.1809
17034SOL    HW152970   8.114   4.082   8.390 -0.3392 -0.3710  0.3060
17034SOL    HW252971   8.244   4.146   8.346 -1.5386  1.7728 -0.2857
17035SOL     OW52972   0.946   5.637   5.608 -0.0213 -0.0030 -0.3003
17035SOL    HW152973   0.901   5.720   5.623 -2.2081 -0.8843 -1.5439
17035SOL    HW252974   0.951   5.596   5.695 -2.7152 -0.3400 -0.2055
17036SOL     OW52975   1.701   5.546   6.298 -0.1457  0.2404 -0.3129
17036SOL    HW152976   1.783   5.571   6.257  0.5754  1.4239  1.6822
17036SOL    HW252977   1.671   5.626   6.342 -2.4706 -0.1085 -1.0973
17037SOL     OW52978   1.887   3.832   3.445  0.2566  0.5056 -0.2094
17037SOL    HW152979   1.932   3.784   3.514  1.6521 -0.7013 -1.8866
17037SOL    HW252980   1.795   3.834   3.473  0.6633 -0.6056  1.2830
17038SOL     OW52981   4.503   3.008   8.453 -0.0785  0.3923  0.0027
17038SOL    HW152982   4.449   2.943   8.497  0.3731 -0.3982 -0.5968
17038SOL    HW252983   4.445   3.084   8.444 -1.2850 -0.5871 -1.0302
17039SOL     OW52984   7.859   7.279   3.047 -0.2797  0.6423 -0.5502
17039SOL    HW152985   7.803   7.202   3.063 -0.0560  1.1581  4.0849
17039SOL    HW252986   7.940   7.242   3.011 -1.0797 -0.9729 -0.8051
17040SOL     OW52987   7.123   4.722   2.377 -0.3994  0.3114 -0.1341
17040SOL    HW152988   7.049   4.776   2.404 -0.8834 -0.3102 -0.1950
17040SOL    HW252989   7.125   4.730   2.282  0.8084  1.8536 -0.0289
17041SOL     OW52990   8.675   1.300   6.685 -0.3125 -0.4177  0.0441
17041SOL    HW152991   8.707   1.277   6.598  1.9412  0.7200  0.5125
17041SOL    HW252992   8.664   1.395   6.683  0.3161 -0.3068  1.1596
17042SOL     OW52993   7.723   0.978   3.033 -0.3184 -0.0254  0.3127
17042SOL    HW152994   7.776   0.898   3.028 -2.5867 -1.5345 -2.0666
17042SOL    HW252995   7.670   0.967   3.112  1.2464  0.4491  1.4729
17043SOL     OW52996   5.546   5.716   1.572 -0.2329 -0.5868 -0.1933
17043SOL    HW152997   5.507   5.658   1.506  0.4064 -0.8206 -0.3748
17043SOL    HW252998   5.640   5.710   1.556 -0.1504  0.4498 -0.1619
17044SOL     OW52999   7.940   2.920   4.507  0.4440 -0.3417  0.0469
17044SOL    HW153000   7.970   2.863   4.435  0.0232 -1.3525  0.6470
17044SOL    HW253001   8.016   2.974   4.527  1.0035 -0.9874 -0.2646
17045SOL     OW53002   4.959   7.465   5.238 -0.4597 -0.2280  0.2385
17045SOL    HW153003   4.866   7.444   5.223 -0.2994 -0.0747 -1.0292
17045SOL    HW253004   5.000   7.380   5.256 -0.4827 -0.5790 -1.2528
17046SOL     OW53005   3.127   1.330   8.066  0.0748 -0.0570  0.6568
17046SOL    HW153006   3.216   1.325   8.032 -0.5451 -0.3729 -1.0117
17046SOL    HW253007   3.087   1.404   8.020 -1.5719 -2.0368 -1.3134
17047SOL     OW53008   5.383   5.325   1.306  0.3112 -0.0246 -0.4731
17047SOL    HW153009   5.309   5.364   1.259 -0.2017 -2.0702 -1.5053
17047SOL    HW253010   5.440   5.291   1.237  2.3883  1.6749  0.3025
17048SOL     OW53011   1.004   6.171   0.911  0.3282  0.8236 -0.2477
17048SOL    HW153012   0.942   6.241   0.891 -1.3534 -1.1247 -2.6266
17048SOL    HW253013   1.066   6.172   0.838  1.7514  1.2827  0.9284
17049SOL     OW53014   2.804   0.173   7.838 -0.4428 -0.3033  0.0452
17049SOL    HW153015   2.863   0.218   7.898 -0.9120  0.6787 -0.2151
17049SOL    HW253016   2.744   0.241   7.807 -1.8754 -1.3139  0.4927
17050SOL     OW53017   0.094   2.624   6.462 -0.4497 -0.2294 -0.4823
17050SOL    HW153018   0.028   2.635   6.531  1.1869  0.7574  1.0313
17050SOL    HW253019   0.096   2.707   6.417 -0.6530 -0.4599 -0.9183
17051SOL     OW53020   7.073   5.969   6.706  0.2145 -0.1963 -0.2112
17051SOL    HW153021   7.066   5.887   6.755 -0.7436  0.7877  1.3726
17051SOL    HW253022   7.165   5.973   6.680  0.2398 -1.8548 -0.5191
17052SOL     OW53023   7.146   3.542   1.977 -0.7082 -0.4548  0.1070
17052SOL    HW153024   7.142   3.545   2.072  0.3097 -1.5448  0.2105
17052SOL    HW253025   7.213   3.606   1.954  1.1963 -2.2576  0.3689
17053SOL     OW53026   4.202   3.208   3.499 -0.0766  0.0703 -0.3702
17053SOL    HW153027   4.200   3.192   3.594  2.6170  0.5597 -0.1571
17053SOL    HW253028   4.146   3.140   3.462 -0.1075 -0.9770  1.4762
17054SOL     OW53029   3.155   4.740   0.386  0.2091 -0.2787  0.1701
17054SOL    HW153030   3.240   4.757   0.345 -0.5151 -0.5487 -1.5217
17054SOL    HW253031   3.169   4.757   0.479  2.1897 -0.6047 -0.0299
17055SOL     OW53032   2.306   0.479   3.498  0.4331  0.2489  0.5488
17055SOL    HW153033   2.392   0.480   3.539  0.7614  0.4341 -0.1171
17055SOL    HW253034   2.246   0.456   3.568  1.3363 -2.8947  0.4562
17056SOL     OW53035   8.207   1.567   4.028  0.5383  0.4315  0.1039
17056SOL    HW153036   8.265   1.597   3.958  1.3928 -1.2988  0.0321
17056SOL    HW253037   8.260   1.573   4.107  0.2297  0.4935  0.3080
17057SOL     OW53038   2.782   4.241   7.333 -0.1910  0.6371 -0.0096
17057SOL    HW153039   2.821   4.210   7.251  0.5492 -0.6413  0.7871
17057SOL    HW253040   2.848   4.298   7.371 -0.5977  1.3540 -0.3601
17058SOL     OW53041   0.026   7.110   5.480 -0.1262  0.2037  0.2044
17058SOL    HW153042  -0.010   7.171   5.415 -2.5325 -0.5989  0.6888
17058SOL    HW253043   0.028   7.161   5.561 -0.0931  0.2688  0.1629
17059SOL     OW53044   8.496   1.217   6.870  0.4636 -0.6921 -0.3535
17059SOL    HW153045   8.542   1.137   6.897  1.8602  0.1906 -0.0279
17059SOL    HW253046   8.546   1.249   6.796  1.9908  1.6606  1.5608
17060SOL     OW53047   4.286   7.726   2.872 -0.0080  0.1441 -0.6890
17060SOL    HW153048   4.276   7.631   2.862  0.0403  0.1376 -0.6741
17060SOL    HW253049   4.358   7.737   2.933 -0.8845  0.1728  0.3854
17061SOL     OW53050   8.544   1.116   1.047  0.0227  0.1277  0.1189
17061SOL    HW153051   8.510   1.114   0.958 -0.1370 -0.8484  0.2019
17061SOL    HW253052   8.552   1.210   1.067 -1.5428  0.3693 -0.2965
17062SOL     OW53053   0.114   0.530   1.073  0.0683  0.2576  0.2579
17062SOL    HW153054   0.041   0.591   1.060 -2.0608 -2.0308  0.7458
17062SOL    HW253055   0.143   0.508   0.984 -0.7260  0.1918  0.0087
17063SOL     OW53056   3.620   6.957   0.892  0.8030 -0.2264 -0.6078
17063SOL    HW153057   3.586   6.962   0.982  0.1783  2.6494 -0.9207
17063SOL    HW253058   3.707   6.998   0.897  0.0007  1.7013 -1.5853
17064SOL     OW53059   1.820   3.950   8.450 -0.3071  0.0279  0.5379
17064SOL    HW153060   1.913   3.969   8.460 -0.4567  0.7698  0.6160
17064SOL    HW253061   1.811   3.918   8.360 -0.0513  0.4519  0.3577
17065SOL     OW53062   1.227   3.025   1.525 -0.2102  0.1308 -0.0858
17065SOL    HW153063   1.301   2.966   1.509 -1.7992 -2.3411  1.1220
17065SOL    HW253064   1.173   3.018   1.446 -1.0257 -1.1057  0.5448
17066SOL     OW53065   5.223   5.693   4.871  0.2848 -0.0538 -0.1498
17066SOL    HW153066   5.193   5.675   4.960 -1.8813 -0.0389 -0.8283
17066SOL    HW253067   5.311   5.656   4.867 -1.0417 -3.6848  0.8085
17067SOL     OW53068   8.042   0.789   8.418 -0.0351  0.4918 -0.2573
17067SOL    HW153069   8.108   0.858   8.416  0.8891 -0.3383  0.0835
17067SOL    HW253070   7.976   0.819   8.481  0.1681  1.2144 -0.3903
17068SOL     OW53071   3.594   1.099   2.859  0.0202 -0.1193 -0.3357
17068SOL    HW153072   3.621   1.013   2.891 -0.3649 -0.7348 -1.6084
17068SOL    HW253073   3.537   1.133   2.928  0.8233 -0.5196  0.5511
17069SOL     OW53074   2.982   0.276   8.797 -0.2516 -0.2655  0.1586
17069SOL    HW153075   2.908   0.310   8.847  0.0792  0.5951  0.0758
17069SOL    HW253076   3.030   0.222   8.859 -0.5238 -0.2024  0.4288
17070SOL     OW53077   2.920   2.316   2.435  0.1488 -0.1389 -0.0064
17070SOL    HW153078   2.856   2.248   2.455  0.9889 -1.1805 -0.7300
17070SOL    HW253079   3.001   2.284   2.475  0.8659 -0.2316 -1.4885
17071SOL     OW53080   3.646   6.664   2.184 -0.1628  0.2791  0.2611
17071SOL    HW153081   3.723   6.622   2.146  1.5010  1.5741  2.0444
17071SOL    HW253082   3.679   6.746   2.220 -2.6244  1.4388  0.0529
17072SOL     OW53083   0.891   7.413   4.751  0.0973  0.2612  0.3341
17072SOL    HW153084   0.884   7.490   4.807  0.6325  0.2068  0.4841
17072SOL    HW253085   0.979   7.379   4.768  0.2201  0.1740 -0.4427
17073SOL     OW53086   5.632   7.543   7.863 -0.9889 -0.0715  0.5847
17073SOL    HW153087   5.714   7.569   7.903 -0.8718 -0.4075  0.5682
17073SOL    HW253088   5.565   7.597   7.906 -0.8711 -0.4625  1.2667
17074SOL     OW53089   6.643   0.484   4.467  0.0349 -0.1455 -0.1015
17074SOL    HW153090   6.737   0.480   4.484 -0.0610 -0.8132  0.3074
17074SOL    HW253091   6.617   0.393   4.456 -0.6508  0.0005  0.2849
17075SOL     OW53092   8.620   0.774   6.492  0.5072 -0.1516  0.2280
17075SOL    HW153093   8.599   0.830   6.567 -3.2564  1.0753 -1.5229
17075SOL    HW253094   8.582   0.689   6.515 -1.0402  0.3445 -0.3764
17076SOL     OW53095   5.850   3.262   3.578 -0.3994 -0.4626  0.1578
17076SOL    HW153096   5.760   3.294   3.578 -0.1108  0.3951  1.1144
17076SOL    HW253097   5.847   3.181   3.527 -1.5576 -0.0303 -0.4892
17077SOL     OW53098   2.563   4.425   6.720  0.6914  0.6108 -0.1406
17077SOL    HW153099   2.582   4.349   6.776  0.5109  0.7127  0.0578
17077SOL    HW253100   2.565   4.390   6.631  0.5633  0.3639 -0.0466
17078SOL     OW53101   1.380   4.442   4.425  0.5131  0.0252  0.1763
17078SOL    HW153102   1.414   4.527   4.398  3.6481 -1.2065 -0.2560
17078SOL    HW253103   1.382   4.445   4.521  0.1840  0.5787  0.1683
17079SOL     OW53104   6.966   0.631   0.722  0.2032 -0.1238 -0.1746
17079SOL    HW153105   6.968   0.580   0.804 -0.1344 -1.4951 -0.9915
17079SOL    HW253106   6.994   0.569   0.655 -1.6173  0.3295 -1.4261
17080SOL     OW53107   4.635   8.961   7.945 -0.4174 -0.1281 -0.4563
17080SOL    HW153108   4.672   8.875   7.963 -0.0741 -0.1579 -1.2507
17080SOL    HW253109   4.543   8.954   7.970 -0.4558 -0.8065 -0.7660
17081SOL     OW53110   0.798   4.735   0.377  0.5130  0.0807  0.1873
17081SOL    HW153111   0.870   4.735   0.440 -0.8905 -1.2918  1.9105
17081SOL    HW253112   0.786   4.643   0.354 -1.5034  0.1010  0.9861
17082SOL     OW53113   7.959   2.308   0.531 -0.1011 -0.2143  0.1189
17082SOL    HW153114   8.012   2.301   0.610 -1.0844 -0.9964  0.7393
17082SOL    HW253115   7.923   2.396   0.533  1.4305  0.4597 -0.5038
17083SOL     OW53116   7.600   3.386   7.615  0.6924  0.1308  0.0518
17083SOL    HW153117   7.544   3.309   7.623 -0.4158  1.0945  2.8708
17083SOL    HW253118   7.647   3.390   7.698  1.3583  2.0183 -0.3682
17084SOL     OW53119   3.363   0.231   6.285  0.7640 -0.0512 -0.3035
17084SOL    HW153120   3.376   0.318   6.248  2.5954  0.5363  1.5224
17084SOL    HW253121   3.450   0.192   6.285 -0.0983 -2.0743 -1.4557
17085SOL     OW53122   7.822   0.225   0.528  0.1811  0.5061  0.3386
17085SOL    HW153123   7.755   0.201   0.464 -0.0591 -0.9773  1.1045
17085SOL    HW253124   7.833   0.319   0.516 -1.3221  0.6188 -0.4773
17086SOL     OW53125   5.210   7.509   3.777 -0.5315  0.0590  0.1279
17086SOL    HW153126   5.295   7.552   3.776 -0.0140 -0.9429 -0.7369
17086SOL    HW253127   5.225   7.426   3.822 -1.2324  0.2046  0.6482
17087SOL     OW53128   7.276   6.675   5.619  0.1833  0.3467 -0.7868
17087SOL    HW153129   7.326   6.594   5.613 -1.7189 -0.9664  0.1142
17087SOL    HW253130   7.257   6.686   5.712 -0.6848  1.0994 -1.0293
17088SOL     OW53131   8.968   1.189   5.555 -0.2127  0.8383 -0.3429
17088SOL    HW153132   8.961   1.264   5.614  0.2938  1.5520 -1.1613
17088SOL    HW253133   8.878   1.175   5.524 -0.4525  0.5562  0.4791
17089SOL     OW53134   8.645   5.263   7.114  0.1166 -0.0287 -0.3453
17089SOL    HW153135   8.618   5.354   7.131 -0.5759 -0.1648 -0.6866
17089SOL    HW253136   8.712   5.246   7.181  0.6185  0.8916 -0.5907
17090SOL     OW53137   6.316   3.896   7.223  0.5697  0.4976  0.1602
17090SOL    HW153138   6.335   3.815   7.177  0.3028  0.5535 -0.0528
17090SOL    HW253139   6.241   3.876   7.279  0.1257  0.7483 -0.3318
17091SOL     OW53140   4.356   7.200   3.593  0.3771  0.1403 -0.3341
17091SOL    HW153141   4.340   7.291   3.566  0.3936  0.1307 -0.3773
17091SOL    HW253142   4.308   7.191   3.675  0.0881  0.0832 -0.5085
17092SOL     OW53143   2.236   3.733   7.212  0.5155 -0.6492  0.4422
17092SOL    HW153144   2.193   3.778   7.139  0.0443 -0.1097  1.0397
17092SOL    HW253145   2.249   3.801   7.277  0.1471 -1.3032  1.2090
17093SOL     OW53146   5.633   5.937   1.987 -0.4035  0.0321  0.3618
17093SOL    HW153147   5.714   5.892   1.963 -0.0795  0.8679 -0.1422
17093SOL    HW253148   5.648   5.967   2.076  0.5878  1.7867 -0.3485
17094SOL     OW53149   1.463   8.201   8.604  0.1640  0.2842  0.2301
17094SOL    HW153150   1.476   8.282   8.553 -0.6419 -0.7237 -1.6873
17094SOL    HW253151   1.452   8.133   8.538 -0.0727 -1.2684  1.8000
17095SOL     OW53152   4.618   7.948   5.204  0.3340  0.1289  0.4781
17095SOL    HW153153   4.711   7.927   5.213  0.2406  0.4513  2.5977
17095SOL    HW253154   4.612   7.992   5.119  1.8906 -0.9415 -0.2585
17096SOL     OW53155   7.024   4.761   7.085 -0.3282 -0.3061  0.0171
17096SOL    HW153156   7.008   4.829   7.019  1.2061 -1.2308 -1.3966
17096SOL    HW253157   6.974   4.686   7.054 -1.5196 -0.0488  1.2391
17097SOL     OW53158   7.247   7.315   5.550  0.6065 -0.5563 -0.2770
17097SOL    HW153159   7.216   7.380   5.612 -0.0646 -0.8782 -0.2686
17097SOL    HW253160   7.198   7.235   5.571  2.1036 -1.3619  0.3493
17098SOL     OW53161   5.929   1.720   3.569 -0.4965 -0.6391 -0.5939
17098SOL    HW153162   5.880   1.731   3.487 -0.6619 -0.4011 -0.4659
17098SOL    HW253163   5.936   1.625   3.580  0.8325 -0.6836 -1.6519
17099SOL     OW53164   1.665   6.029   7.496  0.1607  0.5312  0.6429
17099SOL    HW153165   1.589   6.076   7.530 -1.3439 -1.5274  0.3327
17099SOL    HW253166   1.628   5.948   7.459  2.5573 -0.7754  0.9254
17100SOL     OW53167   1.841   4.200   1.617 -0.2193 -0.7225  0.2873
17100SOL    HW153168   1.881   4.114   1.607  2.7709  0.3949  1.4918
17100SOL    HW253169   1.914   4.261   1.607 -1.8010  1.5511  1.7712
17101SOL     OW53170   1.413   7.009   0.283  0.5347 -0.0636  0.0243
17101SOL    HW153171   1.359   6.930   0.291 -0.8204  0.8952  0.8907
17101SOL    HW253172   1.502   6.976   0.273  0.1096 -1.7136  1.1785
17102SOL     OW53173   3.930   1.243   3.767 -0.4885 -0.4379 -0.0189
17102SOL    HW153174   4.022   1.251   3.790 -0.9149 -0.3601  1.7847
17102SOL    HW253175   3.910   1.323   3.719  0.1956 -0.1039  0.2531
17103SOL     OW53176   2.206   5.651   7.873  0.2233  0.2958  0.2327
17103SOL    HW153177   2.214   5.561   7.905  0.6618  0.5153  0.7425
17103SOL    HW253178   2.144   5.692   7.933 -0.2963  0.2226 -0.2465
17104SOL     OW53179   3.592   4.810   4.478 -0.2061 -0.3371  0.0827
17104SOL    HW153180   3.506   4.788   4.443 -0.1566 -0.6896  0.1841
17104SOL    HW253181   3.628   4.727   4.509  0.3347 -0.2611 -0.3238
17105SOL     OW53182   7.017   3.319   0.005  0.4076  0.0637 -0.2668
17105SOL    HW153183   7.017   3.224   0.014  0.9826  0.0792 -0.0201
17105SOL    HW253184   7.060   3.336  -0.079 -1.1834  0.0630 -1.1243
17106SOL     OW53185   0.974   8.902   5.296 -0.0941  0.6733  0.4862
17106SOL    HW153186   0.901   8.935   5.348 -1.5029  1.1495 -1.6634
17106SOL    HW253187   1.031   8.859   5.359 -2.2454  0.2557  2.2667
17107SOL     OW53188   2.289   7.488   1.563  0.0652 -0.1580 -0.6834
17107SOL    HW153189   2.301   7.581   1.547  0.7573 -0.2382 -0.6746
17107SOL    HW253190   2.228   7.459   1.496  1.5690 -0.1471 -2.1156
17108SOL     OW53191   2.359   7.800   7.063 -0.0075 -0.2922  0.1037
17108SOL    HW153192   2.292   7.864   7.090  0.0219  0.1636 -0.8653
17108SOL    HW253193   2.410   7.846   6.997 -1.2029 -1.9593 -2.0977
17109SOL     OW53194   6.044   5.112   8.087  0.7084  0.4015  0.7933
17109SOL    HW153195   5.950   5.105   8.105  0.2269  0.1014 -1.5509
17109SOL    HW253196   6.050   5.181   8.021  1.9961 -0.4325  0.0141
17110SOL     OW53197   5.117   0.022   8.527  0.0995  0.2588 -0.1590
17110SOL    HW153198   5.074  -0.063   8.536 -0.5560  0.2858 -2.2997
17110SOL    HW253199   5.208   0.005   8.551 -0.4436 -0.5395  1.4381
17111SOL     OW53200   6.366   2.562   8.192  0.1966  0.1150 -0.0797
17111SOL    HW153201   6.363   2.578   8.286  0.8833 -0.7741  0.1060
17111SOL    HW253202   6.382   2.468   8.184  1.6527  0.4060 -1.0504
17112SOL     OW53203   4.064   0.827   3.300  0.0942 -0.0437 -0.7248
17112SOL    HW153204   4.005   0.800   3.371  1.4113 -0.6939  0.1711
17112SOL    HW253205   4.122   0.752   3.287 -0.6255 -0.2708 -3.0986
17113SOL     OW53206   4.061   3.188   1.296  0.6398  0.1469 -0.4114
17113SOL    HW153207   3.995   3.151   1.354  1.5424 -1.4362 -0.3439
17113SOL    HW253208   4.076   3.120   1.231  0.4314  1.4707 -1.8906
17114SOL     OW53209   8.258   2.855   8.090  0.1014  0.3013  0.1303
17114SOL    HW153210   8.192   2.859   8.022 -0.6816 -1.9918  0.6825
17114SOL    HW253211   8.212   2.881   8.170  0.1829 -0.0886  0.3068
17115SOL     OW53212   2.206   8.249   8.306 -0.0466 -0.4282 -0.5272
17115SOL    HW153213   2.157   8.322   8.268 -0.3119 -0.0174  0.5833
17115SOL    HW253214   2.161   8.171   8.273 -0.4475 -0.0777 -0.8173
17116SOL     OW53215   6.825   6.530   1.915  0.2419  0.1451 -0.3460
17116SOL    HW153216   6.740   6.489   1.899 -0.6790  0.9780  1.8831
17116SOL    HW253217   6.827   6.605   1.856 -0.5353  0.0564 -0.4962
17117SOL     OW53218   7.001   2.520   1.465 -0.0958 -0.0376 -0.2652
17117SOL    HW153219   6.941   2.458   1.506 -1.7638  1.4090 -0.3929
17117SOL    HW253220   7.021   2.481   1.380  0.4899 -1.3142  0.4244
17118SOL     OW53221   3.268   3.347   0.356  0.4557  0.2609 -0.1223
17118SOL    HW153222   3.261   3.366   0.263  0.6229  1.5505  0.1032
17118SOL    HW253223   3.216   3.268   0.369 -1.2896  1.2136 -0.9702
17119SOL     OW53224   7.909   1.299   8.403  0.6149 -0.0973 -0.2425
17119SOL    HW153225   7.839   1.320   8.341 -0.4994 -1.7237  0.4064
17119SOL    HW253226   7.868   1.309   8.489  1.3996 -0.3899  0.1767
17120SOL     OW53227   0.461   0.416   0.031  0.3135 -0.4557 -0.2751
17120SOL    HW153228   0.388   0.356   0.015 -0.1267  0.3457 -1.4564
17120SOL    HW253229   0.464   0.426   0.126 -0.5464 -1.1971 -0.1610
17121SOL     OW53230   0.938   5.361   4.403  0.1981 -0.2416 -0.3028
17121SOL    HW153231   0.878   5.288   4.417  0.4960 -0.2194  1.2277
17121SOL    HW253232   1.020   5.332   4.442  0.3554  0.8583  0.2056
17122SOL     OW53233   6.950   2.342   0.002  0.0431  0.2910 -0.0643
17122SOL    HW153234   6.906   2.285  -0.061  1.2640 -0.4669 -0.2585
17122SOL    HW253235   7.043   2.330  -0.015  0.3546  1.5236  0.6344
17123SOL     OW53236   8.964   1.986   7.834 -0.7391  0.1045 -0.4641
17123SOL    HW153237   9.027   2.001   7.764  1.3581  1.1309  1.5274
17123SOL    HW253238   8.884   2.031   7.805  0.2370  0.9459 -1.9465
17124SOL     OW53239   3.818   4.192   6.802 -0.2286 -0.1863 -0.4687
17124SOL    HW153240   3.859   4.247   6.869  0.9732 -1.2613 -0.3063
17124SOL    HW253241   3.743   4.153   6.847  0.6257 -0.9833  0.3013
17125SOL     OW53242   2.316   7.046   8.029  0.5429 -0.9588  0.0147
17125SOL    HW153243   2.290   7.116   7.969 -0.0292 -1.9016 -0.8662
17125SOL    HW253244   2.247   7.044   8.095  0.6706 -0.5645  0.1655
17126SOL     OW53245   0.803   2.831   2.091  0.0134  0.0104 -0.0517
17126SOL    HW153246   0.889   2.792   2.075 -0.4296 -0.5383 -1.2723
17126SOL    HW253247   0.755   2.817   2.009 -0.5797  2.0612 -0.1263
17127SOL     OW53248   4.535   3.066   8.913 -0.2384  0.1275 -0.4505
17127SOL    HW153249   4.458   3.101   8.869 -0.8633 -1.0630 -0.3472
17127SOL    HW253250   4.596   3.045   8.842 -0.8261 -0.8179 -0.6843
17128SOL     OW53251   4.199   1.870   0.282 -0.3234 -0.1972  0.2005
17128SOL    HW153252   4.150   1.810   0.226 -0.3323 -0.4548  0.4775
17128SOL    HW253253   4.167   1.957   0.259  0.1740 -0.2350 -0.6858
17129SOL     OW53254   3.698   6.566   4.892  0.0880 -0.0017 -0.7846
17129SOL    HW153255   3.727   6.525   4.973 -1.6726  0.9034  0.3842
17129SOL    HW253256   3.762   6.636   4.877 -1.3191  2.0051  1.7613
17130SOL     OW53257   8.220   2.629   1.775  0.0734  0.2357  0.1894
17130SOL    HW153258   8.292   2.647   1.836 -0.4570  0.6662  0.6977
17130SOL    HW253259   8.228   2.536   1.756  0.0138  0.0135  1.2167
17131SOL     OW53260   3.541   3.041   6.895  0.1760 -0.0510 -0.1402
17131SOL    HW153261   3.464   3.063   6.844 -0.1011 -1.8955 -0.5744
17131SOL    HW253262   3.515   2.965   6.947  1.8146 -1.0330 -0.6721
17132SOL     OW53263   7.582   1.259   7.437  0.3090  0.0475 -0.0438
17132SOL    HW153264   7.528   1.328   7.476  0.3455 -0.2098  0.4756
17132SOL    HW253265   7.638   1.304   7.374  2.2467  0.9492  2.1916
17133SOL     OW53266   5.042   2.654   8.113  0.2934  0.3660 -0.1270
17133SOL    HW153267   5.019   2.580   8.169 -0.1763 -1.4655 -2.5254
17133SOL    HW253268   5.137   2.649   8.105  0.5016  1.3835  1.3918
17134SOL     OW53269   0.140   5.493   6.365 -0.4629  0.1747 -0.4374
17134SOL    HW153270   0.045   5.481   6.359 -0.5250 -1.5515  2.3750
17134SOL    HW253271   0.151   5.561   6.431  0.1285 -2.5549  2.5571
17135SOL     OW53272   0.447   5.016   7.043 -0.3365 -0.2883 -0.3521
17135SOL    HW153273   0.457   5.084   6.977 -0.2255 -0.1603 -0.2027
17135SOL    HW253274   0.407   4.943   6.996 -0.6697 -0.0378 -0.4584
17136SOL     OW53275   0.619   3.345   4.779 -0.5648 -0.5114  0.3046
17136SOL    HW153276   0.690   3.332   4.843  0.9578  1.1121 -0.9304
17136SOL    HW253277   0.602   3.258   4.744 -1.2221 -1.3919  2.6485
17137SOL     OW53278   0.219   0.024   6.385 -0.6390  0.5293 -0.6123
17137SOL    HW153279   0.159  -0.009   6.452 -1.5503  0.7537 -1.3085
17137SOL    HW253280   0.209  -0.037   6.311  0.9811 -0.2205 -0.2717
17138SOL     OW53281   1.358   7.172   6.156  0.2456 -0.3496 -0.3540
17138SOL    HW153282   1.417   7.217   6.217  0.0268  1.1873 -1.2132
17138SOL    HW253283   1.400   7.183   6.071 -1.0531  0.3844 -0.9228
17139SOL     OW53284   4.114   4.771   2.655 -0.7597 -0.1181 -0.1037
17139SOL    HW153285   4.176   4.706   2.686 -0.4998 -0.8717 -2.0387
17139SOL    HW253286   4.082   4.814   2.734  0.8666 -0.9387  1.0554
17140SOL     OW53287   5.311   0.561   4.679 -0.0196  0.1255 -0.4662
17140SOL    HW153288   5.348   0.641   4.717  0.9088  0.2230 -1.5429
17140SOL    HW253289   5.216   0.576   4.682  0.1266  1.1614 -0.4129
17141SOL     OW53290   8.133   1.943   8.547 -0.1503 -0.1019  0.3497
17141SOL    HW153291   8.182   1.999   8.486  0.8160  0.9861  2.0406
17141SOL    HW253292   8.089   1.880   8.491 -0.0124  1.3794 -1.5434
17142SOL     OW53293   8.291   0.209   1.199 -0.1895 -0.1108  0.8736
17142SOL    HW153294   8.384   0.211   1.223  0.1259  0.3888 -0.3171
17142SOL    HW253295   8.284   0.270   1.125 -1.0291 -1.7998 -0.5256
17143SOL     OW53296   8.795   5.083   1.758  0.4766 -0.4313  0.3579
17143SOL    HW153297   8.878   5.068   1.712  0.0890  1.2571 -0.9997
17143SOL    HW253298   8.728   5.076   1.690 -0.3577 -0.3089  1.1480
17144SOL     OW53299   8.311   3.688   0.854  0.2008  0.0026  0.2683
17144SOL    HW153300   8.257   3.749   0.905 -0.1829  0.3296 -0.5057
17144SOL    HW253301   8.270   3.603   0.868 -0.2526  0.1799  0.0536
17145SOL     OW53302   0.293   0.060   2.188  0.2969  0.1125 -0.0605
17145SOL    HW153303   0.382   0.049   2.224  1.4787  1.8465 -2.1920
17145SOL    HW253304   0.247   0.112   2.254  0.3374 -1.9349  1.7120
17146SOL     OW53305   6.944   2.266   5.185  0.5503  0.5820 -0.1665
17146SOL    HW153306   7.036   2.255   5.161  0.0709 -2.8305 -1.0926
17146SOL    HW253307   6.897   2.269   5.102 -0.2968  0.6127  0.2944
17147SOL     OW53308   0.043   7.836   1.417  0.2498 -0.5597  0.4942
17147SOL    HW153309  -0.023   7.838   1.487 -0.4025  0.9264 -0.1130
17147SOL    HW253310   0.044   7.926   1.383  2.3215 -0.6493  0.2095
17148SOL     OW53311   5.514   6.624   1.436  0.0562  0.3486 -0.0700
17148SOL    HW153312   5.532   6.676   1.358  0.0310  0.2948 -0.1122
17148SOL    HW253313   5.535   6.681   1.509 -2.8967  1.5865 -0.0206
17149SOL     OW53314   6.556   7.375   3.416 -0.0940  0.3826 -0.0265
17149SOL    HW153315   6.461   7.372   3.407 -0.1864  1.9186  0.1933
17149SOL    HW253316   6.583   7.283   3.417 -1.5612 -0.0715 -0.1564
17150SOL     OW53317   1.249   2.526   4.833 -0.4479  0.3684  0.2910
17150SOL    HW153318   1.248   2.430   4.825  1.4675  0.3367  0.0477
17150SOL    HW253319   1.342   2.550   4.830 -0.8541  2.2015  0.8887
17151SOL     OW53320   5.952   1.129   3.709  0.1102  0.1117 -0.6047
17151SOL    HW153321   5.956   1.043   3.750  0.3252  0.4691  0.1377
17151SOL    HW253322   6.009   1.122   3.632 -1.2163 -0.9105 -1.5426
17152SOL     OW53323   0.103   2.653   7.289 -0.9407  0.0081 -0.3276
17152SOL    HW153324   0.113   2.603   7.208  0.1191 -2.9059  1.4092
17152SOL    HW253325   0.018   2.626   7.324 -0.2032 -0.9402  0.8099
17153SOL     OW53326   0.838   3.600   3.298 -0.0876  0.1300  0.4768
17153SOL    HW153327   0.841   3.542   3.373  3.1149  1.0616  1.2223
17153SOL    HW253328   0.852   3.688   3.334 -1.2715  0.9795 -0.9627
17154SOL     OW53329   8.878   1.552   4.294 -0.2119  0.2815  0.1251
17154SOL    HW153330   8.956   1.504   4.323 -0.1971  0.1154 -0.1794
17154SOL    HW253331   8.858   1.514   4.208  0.3019  1.3840 -0.5112
17155SOL     OW53332   5.475   4.994   2.826 -0.0510  0.0616  0.3698
17155SOL    HW153333   5.442   4.991   2.736 -0.3819  0.4917  0.4786
17155SOL    HW253334   5.529   5.073   2.829  1.1918 -0.7339  0.1316
17156SOL     OW53335   6.057   4.530   3.587  0.5074  0.0586  0.6395
17156SOL    HW153336   6.033   4.560   3.499 -1.0070 -1.9640  0.2813
17156SOL    HW253337   6.016   4.593   3.646 -3.0278 -1.3537 -0.0597
17157SOL     OW53338   8.426   3.249   8.575 -0.2916  0.1017  0.5817
17157SOL    HW153339   8.393   3.338   8.568 -1.6335 -0.3434  0.8960
17157SOL    HW253340   8.420   3.215   8.485 -1.2070 -0.1334  0.7190
17158SOL     OW53341   3.456   3.948   3.244 -0.2163 -0.2720 -0.1790
17158SOL    HW153342   3.425   4.021   3.299 -1.7501 -1.6972  0.9366
17158SOL    HW253343   3.414   3.962   3.159 -0.6460  0.0541  0.0824
17159SOL     OW53344   2.446   7.733   8.005 -0.0935  0.2258 -0.4195
17159SOL    HW153345   2.492   7.689   8.077 -3.0268 -0.0887  1.4347
17159SOL    HW253346   2.425   7.820   8.040 -1.5758  0.0643 -0.8441
17160SOL     OW53347   8.569   2.730   5.636  0.1454 -0.3964 -0.7303
17160SOL    HW153348   8.647   2.725   5.692  0.2629  1.9851 -0.5744
17160SOL    HW253349   8.505   2.777   5.690 -0.3206  0.4298 -1.9782
17161SOL     OW53350   3.157   6.488   5.170  0.8288  0.1468  0.1781
17161SOL    HW153351   3.110   6.428   5.112  0.9203  0.7003 -0.4804
17161SOL    HW253352   3.138   6.455   5.258 -0.1238 -0.1218 -0.1099
17162SOL     OW53353   7.220   4.449   4.877 -0.0875 -0.3187  1.3225
17162SOL    HW153354   7.238   4.482   4.788 -0.1487 -1.7020  0.7803
17162SOL    HW253355   7.256   4.360   4.878 -2.4613 -1.3387  1.8017
17163SOL     OW53356   4.728   0.873   5.816  0.6008 -0.4941 -0.0087
17163SOL    HW153357   4.797   0.809   5.833  0.8426 -0.8911 -2.1480
17163SOL    HW253358   4.772   0.942   5.766 -0.1083  0.3223  0.4776
17164SOL     OW53359   6.978   6.726   2.773  0.1791  0.0210  0.2976
17164SOL    HW153360   6.945   6.729   2.862 -2.1182  0.7584 -0.5029
17164SOL    HW253361   7.031   6.647   2.769 -1.1140 -0.9799  1.8665
17165SOL     OW53362   3.279   2.796   3.009 -0.2443  0.4340  0.0585
17165SOL    HW153363   3.231   2.785   3.091  0.0204 -1.5245 -0.0001
17165SOL    HW253364   3.361   2.748   3.022  0.6341  1.6806 -0.6986
17166SOL     OW53365   7.806   5.334   7.538 -0.4397  0.6849 -0.6268
17166SOL    HW153366   7.901   5.346   7.534 -0.2024 -0.1206  1.2602
17166SOL    HW253367   7.787   5.327   7.632 -2.5600  2.1731 -0.8656
17167SOL     OW53368   2.114   6.719   7.478  0.3494  0.2776 -0.1994
17167SOL    HW153369   2.151   6.755   7.398  0.7429 -1.9604 -1.1137
17167SOL    HW253370   2.040   6.666   7.448 -0.4546  0.6322  1.0879
17168SOL     OW53371   7.104   4.853   0.538  0.3479 -0.0601 -0.0999
17168SOL    HW153372   7.050   4.817   0.467 -0.8830 -0.3058  0.9200
17168SOL    HW253373   7.189   4.810   0.528 -0.7654 -2.6098  0.4675
17169SOL     OW53374   7.513   6.502   2.447  0.3159  0.1579 -0.8334
17169SOL    HW153375   7.522   6.588   2.486 -0.5516 -0.2825  0.4162
17169SOL    HW253376   7.419   6.493   2.430  0.1666 -1.0966  0.4661
17170SOL     OW53377   5.369   2.527   4.719  0.0803 -0.1286 -0.0542
17170SOL    HW153378   5.373   2.527   4.815  0.5325 -0.4368 -0.0696
17170SOL    HW253379   5.433   2.592   4.692 -1.1210  1.0588 -0.1208
17171SOL     OW53380   3.356   2.437   5.048  0.2257 -0.3150  0.5958
17171SOL    HW153381   3.406   2.361   5.076  4.2537  1.6282 -0.5569
17171SOL    HW253382   3.391   2.460   4.962 -0.6461  2.8850  0.9328
17172SOL     OW53383   5.522   5.518   5.253 -0.5012 -0.3165  0.0721
17172SOL    HW153384   5.446   5.575   5.265 -0.3693 -0.2552  0.6616
17172SOL    HW253385   5.488   5.441   5.207 -0.3811  0.9141 -2.2525
17173SOL     OW53386   3.859   7.416   0.439  0.1399 -0.7092  0.0848
17173SOL    HW153387   3.775   7.372   0.427 -0.8925  1.1232  0.1789
17173SOL    HW253388   3.896   7.422   0.351 -1.7421  1.9544 -0.6525
17174SOL     OW53389   2.630   5.718   7.703 -0.1140  0.0575  0.1717
17174SOL    HW153390   2.692   5.760   7.644  0.1071 -1.7326 -0.9047
17174SOL    HW253391   2.557   5.691   7.647  0.3907 -2.2520  0.5350
17175SOL     OW53392   2.788   5.490   7.555 -0.5212 -0.6631 -0.1906
17175SOL    HW153393   2.751   5.548   7.622  1.4163  1.0618 -0.5403
17175SOL    HW253394   2.867   5.455   7.595 -1.3091 -2.6361 -0.2348
17176SOL     OW53395   5.502   2.403   7.813 -0.1719  0.0205 -0.3633
17176SOL    HW153396   5.433   2.341   7.834 -1.2133  0.7169 -1.6300
17176SOL    HW253397   5.496   2.415   7.719  1.5557  0.2646 -0.4736
17177SOL     OW53398   6.337   3.427   2.395 -0.1459  0.1045  0.0835
17177SOL    HW153399   6.425   3.417   2.361 -0.5325 -0.8448 -0.6653
17177SOL    HW253400   6.337   3.377   2.477 -0.4410 -1.2684 -0.7413
17178SOL     OW53401   1.087   2.603   3.173 -0.5114 -0.1711  0.7588
17178SOL    HW153402   1.169   2.581   3.131 -0.9250  0.5947 -0.4903
17178SOL    HW253403   1.111   2.626   3.263  0.5841 -0.2721  0.4958
17179SOL     OW53404   2.302   2.575   1.813  0.0480 -0.5615  0.6291
17179SOL    HW153405   2.300   2.580   1.908 -0.5243 -2.2122  0.7478
17179SOL    HW253406   2.394   2.556   1.792  0.3171  0.5261  0.7849
17180SOL     OW53407   2.354   1.483   0.417 -0.3450  0.0359  0.1863
17180SOL    HW153408   2.350   1.395   0.379 -0.0094  0.2112 -0.2670
17180SOL    HW253409   2.275   1.526   0.383 -0.0114  0.2141 -0.3891
17181SOL     OW53410   7.982   1.053   8.763  0.1838 -0.2766  0.1808
17181SOL    HW153411   8.050   1.120   8.774  0.3696 -0.4509  0.0878
17181SOL    HW253412   7.914   1.078   8.826  0.0834  0.2175 -0.1108
17182SOL     OW53413   5.128   2.785   7.288  0.1412  0.9333  0.2303
17182SOL    HW153414   5.100   2.766   7.198 -0.3954  0.1894  0.5417
17182SOL    HW253415   5.166   2.703   7.318  1.8904  1.6695  0.1198
17183SOL     OW53416   2.908   7.359   7.509  0.3658  0.2696 -0.1331
17183SOL    HW153417   3.003   7.367   7.509  0.3703  0.9899 -2.4625
17183SOL    HW253418   2.877   7.435   7.559  0.9898 -0.4895  1.4663
17184SOL     OW53419   5.428   0.406   1.477  0.1693 -0.3081  0.0434
17184SOL    HW153420   5.433   0.450   1.392  1.6174  0.9639  0.7540
17184SOL    HW253421   5.367   0.459   1.528  0.8340  0.0783  0.4422
17185SOL     OW53422   6.367   6.881   2.340  0.2058 -0.2334  0.4908
17185SOL    HW153423   6.451   6.839   2.361  1.2546  1.0478 -0.8416
17185SOL    HW253424   6.390   6.946   2.273 -1.8398  0.3027  0.2531
17186SOL     OW53425   6.022   3.719   4.802 -0.3239 -0.0053 -0.1568
17186SOL    HW153426   6.037   3.727   4.708  0.0593  0.8908 -0.0254
17186SOL    HW253427   5.928   3.734   4.812 -0.8201 -2.3410 -0.6140
17187SOL     OW53428   2.850   2.577   0.053 -0.6231  0.4089  0.0805
17187SOL    HW153429   2.781   2.545  -0.004 -0.1310 -1.2320  0.3584
17187SOL    HW253430   2.807   2.592   0.137 -0.9343  0.8542 -0.1552
17188SOL     OW53431   4.437   7.810   6.719  0.5694  0.9706  0.0331
17188SOL    HW153432   4.513   7.828   6.663  0.9190  2.2415  0.8739
17188SOL    HW253433   4.366   7.862   6.681 -0.2679 -1.1512 -1.4785
17189SOL     OW53434   1.373   1.062   2.178  0.1261  0.5025  0.7561
17189SOL    HW153435   1.447   1.085   2.234  1.1139 -1.1465  0.1991
17189SOL    HW253436   1.413   1.034   2.096 -1.2561  2.0519 -0.5152
17190SOL     OW53437   1.467   3.667   3.157 -0.1875 -0.3049  0.0718
17190SOL    HW153438   1.425   3.644   3.074 -0.0716  1.0765 -0.3914
17190SOL    HW253439   1.456   3.761   3.164  0.5135 -0.2923  1.2441
17191SOL     OW53440   8.109   1.845   7.652 -0.0935 -0.1878 -0.6707
17191SOL    HW153441   8.083   1.925   7.606  0.8420  0.3205 -0.3480
17191SOL    HW253442   8.188   1.816   7.606  0.6359  0.1156  0.3474
17192SOL     OW53443   7.280   2.171   2.373  0.5731  0.6023  0.3809
17192SOL    HW153444   7.241   2.254   2.347 -0.2242 -0.0235 -0.5352
17192SOL    HW253445   7.205   2.112   2.382  1.2305 -0.3977 -0.4731
17193SOL     OW53446   4.161   4.942   1.310 -0.0430  0.5560 -0.4142
17193SOL    HW153447   4.075   4.947   1.267 -0.1549 -0.8730 -0.3915
17193SOL    HW253448   4.145   4.977   1.398 -0.0741  2.3950 -1.1107
17194SOL     OW53449   1.208   2.898   5.524  0.2727 -0.5307 -0.2747
17194SOL    HW153450   1.268   2.924   5.454  1.1022 -0.6015  0.3908
17194SOL    HW253451   1.156   2.977   5.541  0.5412 -0.3054 -0.4944
17195SOL     OW53452   1.826   0.752   1.640 -0.0334  0.1082 -0.3271
17195SOL    HW153453   1.870   0.786   1.562  1.6592  1.0511  0.9883
17195SOL    HW253454   1.804   0.830   1.691 -0.0573 -0.5512  0.6978
17196SOL     OW53455   4.281   6.983   7.572 -0.2684  0.1902 -0.1000
17196SOL    HW153456   4.305   6.970   7.664 -1.4552 -1.0489  0.0713
17196SOL    HW253457   4.238   7.068   7.571  1.2465  0.9932  0.1529
17197SOL     OW53458   6.724   1.268   6.473  0.0118  0.0588  0.7645
17197SOL    HW153459   6.719   1.204   6.403 -1.3483  1.0328 -0.0675
17197SOL    HW253460   6.750   1.217   6.550 -0.1311 -1.3101 -0.0609
17198SOL     OW53461   7.717   1.596   1.343 -0.3211  0.3280 -0.0367
17198SOL    HW153462   7.716   1.664   1.412  1.3081 -0.5569  0.9111
17198SOL    HW253463   7.716   1.646   1.261 -1.4410  1.4313  0.5952
17199SOL     OW53464   4.786   5.423   7.101  0.5604  0.1426  0.5320
17199SOL    HW153465   4.876   5.447   7.126  0.3207 -0.2922  1.8857
17199SOL    HW253466   4.737   5.424   7.184 -0.6110  0.0466 -0.1407
17200SOL     OW53467   7.899   4.456   2.352  0.2307 -0.0161  0.0799
17200SOL    HW153468   7.883   4.397   2.425  0.5563 -0.5032 -0.2338
17200SOL    HW253469   7.859   4.539   2.378 -0.2642 -0.3869  0.5054
17201SOL     OW53470   7.515   7.412   2.537 -0.4490 -0.6912  0.4181
17201SOL    HW153471   7.547   7.344   2.479 -0.5648 -0.7283  0.3980
17201SOL    HW253472   7.470   7.474   2.479 -2.0194 -1.5554  0.6342
17202SOL     OW53473   4.469   0.445   7.846  0.4373  0.4152 -0.0975
17202SOL    HW153474   4.526   0.488   7.782  0.7747 -0.0536 -0.1177
17202SOL    HW253475   4.527   0.426   7.920  0.5613 -1.0001 -0.5403
17203SOL     OW53476   6.704   0.643   0.241 -0.0533  0.4025 -0.1065
17203SOL    HW153477   6.787   0.601   0.217  0.1570 -0.0081  1.2306
17203SOL    HW253478   6.697   0.718   0.182  0.1002 -0.8656 -1.8044
17204SOL     OW53479   8.809   0.996   7.745  0.1008 -0.4595  0.5406
17204SOL    HW153480   8.861   0.916   7.736 -0.5074 -1.0226  1.8032
17204SOL    HW253481   8.720   0.965   7.763  0.0492  0.4862  2.0885
17205SOL     OW53482   7.357   6.577   4.475 -0.6164 -0.2025 -0.6393
17205SOL    HW153483   7.266   6.557   4.495 -0.5121  0.1630  0.2590
17205SOL    HW253484   7.358   6.670   4.454 -0.1559  0.3612  1.5427
17206SOL     OW53485   1.808   6.601   1.717  1.0267 -0.0465  0.0130
17206SOL    HW153486   1.778   6.518   1.752 -1.6253  1.3396  1.2498
17206SOL    HW253487   1.796   6.593   1.622  1.2680 -1.1936  0.0671
17207SOL     OW53488   0.903   1.936   0.296  0.7189  0.3500 -0.1593
17207SOL    HW153489   0.967   1.924   0.366  1.3623  1.0623 -0.6239
17207SOL    HW253490   0.850   1.856   0.299 -0.5299  1.1389  2.4027
17208SOL     OW53491   2.734   0.935   0.323 -0.1166 -0.1293 -0.4033
17208SOL    HW153492   2.789   0.904   0.395 -1.6332 -0.3992  0.6839
17208SOL    HW253493   2.786   0.919   0.245  0.9390 -1.3357  0.4994
17209SOL     OW53494   7.760   1.641   8.268  0.0882 -0.3121  0.0046
17209SOL    HW153495   7.674   1.656   8.308  0.8512  0.5017  1.3821
17209SOL    HW253496   7.771   1.546   8.270 -1.1340 -0.5104 -1.0070
17210SOL     OW53497   4.662   2.579   7.963  0.0968  0.4177  0.4575
17210SOL    HW153498   4.686   2.640   7.894  1.0932  0.3677  0.7418
17210SOL    HW253499   4.736   2.519   7.969 -1.2047 -1.3307 -0.3634
17211SOL     OW53500   6.207   3.543   0.459 -0.1750  0.5381  0.2955
17211SOL    HW153501   6.152   3.468   0.482  0.3889 -0.1453 -0.5539
17211SOL    HW253502   6.293   3.506   0.442  1.0672  1.7580  3.1701
17212SOL     OW53503   2.880   8.217   8.350  0.2948  0.0892  0.4702
17212SOL    HW153504   2.799   8.221   8.400 -0.7630  0.1561 -1.1667
17212SOL    HW253505   2.853   8.234   8.260  1.7589 -2.3118 -0.4988
17213SOL     OW53506   3.091   4.515   8.159 -0.3872 -0.0493 -0.2971
17213SOL    HW153507   3.115   4.536   8.069 -0.4383 -1.5322 -0.6782
17213SOL    HW253508   3.088   4.600   8.203  0.2144  0.6496 -1.5417
17214SOL     OW53509   8.124   3.528   4.811 -0.3242  0.4879 -0.1689
17214SOL    HW153510   8.201   3.538   4.867  0.2155  0.4752 -0.8855
17214SOL    HW253511   8.055   3.578   4.855  0.0366  0.3379  0.5859
17215SOL     OW53512   5.228   5.404   2.333  0.5053 -0.0621  0.0922
17215SOL    HW153513   5.206   5.463   2.261 -0.8790  1.2576  1.5182
17215SOL    HW253514   5.194   5.447   2.411 -3.0198 -3.8497  1.0139
17216SOL     OW53515   7.033   1.241   0.873 -0.0532  0.0030  0.9335
17216SOL    HW153516   7.114   1.267   0.917 -0.7323  3.5639  0.3801
17216SOL    HW253517   6.977   1.319   0.877 -1.7102 -0.7794 -2.6506
17217SOL     OW53518   0.392   0.985   0.374  0.3964 -0.2043 -0.2959
17217SOL    HW153519   0.352   1.041   0.307 -0.1631 -0.5438 -0.2554
17217SOL    HW253520   0.355   1.016   0.456 -0.1098 -0.7918 -0.2985
17218SOL     OW53521   4.842   0.161   0.234 -0.1990 -0.0149  0.3699
17218SOL    HW153522   4.863   0.180   0.325 -1.0657  1.9355  0.2139
17218SOL    HW253523   4.760   0.113   0.237 -0.4873  0.4892  0.6068
17219SOL     OW53524   1.740   8.389   7.766 -0.5032 -0.6707 -0.3385
17219SOL    HW153525   1.662   8.440   7.748 -0.7252 -0.5979  0.7376
17219SOL    HW253526   1.708   8.300   7.783 -0.5546 -0.3355  1.5874
17220SOL     OW53527   2.228   7.409   0.102  0.2026  0.9185  0.0837
17220SOL    HW153528   2.169   7.338   0.078  0.3825  0.7915  0.0092
17220SOL    HW253529   2.256   7.387   0.190  1.1607  0.2721 -0.3592
17221SOL     OW53530   6.933   2.832   2.593 -0.0212 -0.3636  0.4294
17221SOL    HW153531   6.909   2.854   2.503  0.6858  1.9192  0.7493
17221SOL    HW253532   6.851   2.803   2.633 -0.5658 -0.3414 -0.6353
17222SOL     OW53533   7.850   4.191   0.035  0.4161  0.6102 -0.6325
17222SOL    HW153534   7.903   4.266   0.062 -1.8601  1.8858  0.6004
17222SOL    HW253535   7.779   4.230  -0.016 -0.5358 -0.7511 -0.3914
17223SOL     OW53536   6.558   7.549   0.255  0.3016 -0.1738  0.0559
17223SOL    HW153537   6.567   7.513   0.343 -0.6605  0.9858  0.6656
17223SOL    HW253538   6.647   7.548   0.219  0.3737 -2.8512  0.1062
17224SOL     OW53539   8.139   4.579   8.114  0.1231 -0.0194 -0.1768
17224SOL    HW153540   8.098   4.549   8.194 -0.0808  1.1399  0.1693
17224SOL    HW253541   8.225   4.612   8.142  0.2093  0.0262 -0.4908
17225SOL     OW53542   7.929   8.464   0.839 -0.0406  0.3160 -0.0267
17225SOL    HW153543   7.921   8.370   0.856 -0.4453  0.3225 -0.1692
17225SOL    HW253544   7.999   8.470   0.774 -1.6927 -0.1174 -1.9333
17226SOL     OW53545   8.364   4.706   6.852  0.3876 -0.0807  0.2152
17226SOL    HW153546   8.365   4.619   6.893 -2.0788  0.1992  1.0461
17226SOL    HW253547   8.456   4.732   6.848  0.9510 -1.2875  3.0860
17227SOL     OW53548   1.931   3.967   0.815 -0.2548  0.3118 -0.0516
17227SOL    HW153549   1.841   3.999   0.814  0.2097  1.6885  0.4863
17227SOL    HW253550   1.983   4.042   0.843  0.9327 -0.7848  0.7968
17228SOL     OW53551   0.196   6.279   2.166  0.6233 -0.3751  0.3057
17228SOL    HW153552   0.218   6.237   2.083  1.9181  0.8224  0.0219
17228SOL    HW253553   0.126   6.341   2.144 -0.7072 -1.7113  0.5781
17229SOL     OW53554   7.658   6.295   8.383  0.1335  0.0201 -0.3009
17229SOL    HW153555   7.674   6.268   8.292  4.1873  0.8568 -0.0206
17229SOL    HW253556   7.655   6.213   8.431  2.7382 -0.3944 -0.6881
17230SOL     OW53557   0.958   0.628   0.581 -0.3488  0.5169 -0.2627
17230SOL    HW153558   1.036   0.629   0.636  1.8589 -0.5437 -3.1300
17230SOL    HW253559   0.896   0.573   0.628  0.6664  1.1837  1.9823
17231SOL     OW53560   2.070   7.081   3.108 -0.0327 -0.4649  0.9587
17231SOL    HW153561   2.091   7.118   3.194 -2.5042  0.5122  1.2264
17231SOL    HW253562   1.990   7.126   3.082  0.5757 -0.8513 -1.8217
17232SOL     OW53563   4.012   2.581   4.661  0.2473 -0.1478 -0.4185
17232SOL    HW153564   3.922   2.603   4.637 -0.4496 -0.0726  1.9438
17232SOL    HW253565   4.065   2.611   4.587 -1.7292 -1.1534 -2.3528
17233SOL     OW53566   1.809   5.896   1.324 -0.5059 -0.1521 -0.2528
17233SOL    HW153567   1.794   5.866   1.414  0.5101 -1.8232 -0.5978
17233SOL    HW253568   1.819   5.991   1.332  2.4836 -0.4982  1.8659
17234SOL     OW53569   1.712   5.060   6.456  0.1676  0.0287  0.4866
17234SOL    HW153570   1.752   5.015   6.530 -0.6552  0.0066  0.9263
17234SOL    HW253571   1.769   5.136   6.441 -0.4798  0.9028  2.1474
17235SOL     OW53572   8.204   7.945   4.559  0.3519 -0.4810  0.1925
17235SOL    HW153573   8.156   8.027   4.572  0.8804  0.0629 -1.1071
17235SOL    HW253574   8.151   7.880   4.604 -0.6975  0.3893  0.2825
17236SOL     OW53575   6.393   2.511   1.509 -0.2126 -0.4607  0.5018
17236SOL    HW153576   6.467   2.564   1.541 -0.4391 -0.3939  0.9235
17236SOL    HW253577   6.427   2.422   1.510  0.8372 -0.1832 -2.0704
17237SOL     OW53578   2.363   3.976   6.528 -0.3465  0.2573  0.0357
17237SOL    HW153579   2.424   3.994   6.456 -0.3328  1.0063  0.2309
17237SOL    HW253580   2.416   3.987   6.607 -0.4239 -0.3260  0.1748
17238SOL     OW53581   2.374   5.490   3.121  0.5702  0.4623  0.5071
17238SOL    HW153582   2.455   5.525   3.157  0.7621 -0.1061  0.6300
17238SOL    HW253583   2.369   5.528   3.033  0.9483  0.5246  0.5102
17239SOL     OW53584   1.189   4.723   4.172  0.1500  0.2890  0.7536
17239SOL    HW153585   1.219   4.781   4.242 -1.3663 -0.2287  1.8753
17239SOL    HW253586   1.173   4.782   4.098  1.5769  0.8707  0.8749
17240SOL     OW53587   1.711   2.992   7.949 -0.0537 -0.0991 -0.7114
17240SOL    HW153588   1.624   2.969   7.980  1.3186 -1.1754  2.8604
17240SOL    HW253589   1.700   3.075   7.903 -2.7800  0.3656  0.5952
17241SOL     OW53590   4.336   1.133   5.359  0.4249  0.1765 -0.2752
17241SOL    HW153591   4.407   1.150   5.421 -0.2935 -2.1041  1.3445
17241SOL    HW253592   4.374   1.072   5.296  0.2892 -0.0371 -0.1548
17242SOL     OW53593   6.583   0.177   6.145  0.1701  0.5605 -0.7806
17242SOL    HW153594   6.556   0.269   6.147 -0.2177  0.4518 -0.9884
17242SOL    HW253595   6.537   0.140   6.070 -1.2884 -0.3070  0.4746
17243SOL     OW53596   4.056   3.575   8.386  0.2783  0.2417 -0.0241
17243SOL    HW153597   4.059   3.662   8.426  2.0644  0.2108 -0.0030
17243SOL    HW253598   4.148   3.548   8.381  0.2349  0.2447 -4.1892
17244SOL     OW53599   0.226   7.917   0.391  0.2904 -0.2429 -0.1486
17244SOL    HW153600   0.240   8.004   0.354  0.8430  0.1104  0.8335
17244SOL    HW253601   0.294   7.908   0.459 -0.2800 -1.0990  0.3448
17245SOL     OW53602   4.662   5.237   2.761 -0.1250  0.2656 -0.4083
17245SOL    HW153603   4.654   5.195   2.847  0.6093  0.5517 -0.1896
17245SOL    HW253604   4.703   5.171   2.706 -1.1337 -0.1245 -0.7036
17246SOL     OW53605   6.303   7.454   5.591 -0.0208  0.0385 -0.2635
17246SOL    HW153606   6.247   7.435   5.516  0.5589  0.9411 -0.9564
17246SOL    HW253607   6.265   7.533   5.629  0.0654 -0.0490  0.0036
17247SOL     OW53608   7.166   5.126   2.831 -0.1584  0.2640 -0.7034
17247SOL    HW153609   7.248   5.134   2.878 -0.2169 -0.2918 -0.4899
17247SOL    HW253610   7.104   5.180   2.880 -0.5063 -1.2202  0.5645
17248SOL     OW53611   0.056   2.519   7.660  0.1303  0.0264 -0.2865
17248SOL    HW153612   0.145   2.530   7.628  0.3732 -2.3959 -0.6002
17248SOL    HW253613   0.025   2.608   7.674  1.7464  1.0343 -2.4943
17249SOL     OW53614   1.657   6.876   1.036 -0.0945  0.2479  0.0399
17249SOL    HW153615   1.753   6.872   1.030 -0.1872 -2.7100 -1.3350
17249SOL    HW253616   1.637   6.848   1.125  0.3009  0.8993  0.3396
17250SOL     OW53617   5.745   7.823   0.155  0.1605  0.8963 -0.0415
17250SOL    HW153618   5.822   7.804   0.101 -0.2006  0.9809 -0.5950
17250SOL    HW253619   5.744   7.754   0.221  1.3162  1.4990  0.6273
17251SOL     OW53620   3.923   0.923   5.950  0.2357 -0.3864 -0.3826
17251SOL    HW153621   3.849   0.924   6.010 -0.0055  0.7732 -0.6726
17251SOL    HW253622   3.960   0.835   5.959 -1.0100 -0.8923 -0.0483
17252SOL     OW53623   7.616   7.814   3.012  0.1287 -0.4032 -0.0306
17252SOL    HW153624   7.694   7.857   3.047  1.1814 -0.4003 -2.2540
17252SOL    HW253625   7.628   7.721   3.034  0.3077 -0.2884  0.3766
17253SOL     OW53626   7.337   2.125   6.650 -0.5515  0.0606  0.0498
17253SOL    HW153627   7.369   2.205   6.693 -0.3551 -0.2254  0.4341
17253SOL    HW253628   7.327   2.150   6.558 -2.3434  1.1071  0.4773
17254SOL     OW53629   0.502   6.250   5.305 -0.0515  0.5565  0.3934
17254SOL    HW153630   0.470   6.301   5.379  1.8988  1.5523  0.6273
17254SOL    HW253631   0.460   6.290   5.229  2.1375  3.3187  0.4672
17255SOL     OW53632   3.043   8.811   8.864 -0.0405 -0.1088  0.6164
17255SOL    HW153633   3.001   8.805   8.950  0.3631 -0.3485  0.8005
17255SOL    HW253634   3.108   8.880   8.874 -0.0089 -0.1209  0.4974
17256SOL     OW53635   6.507   3.846   7.750 -0.3379  0.3357 -0.1774
17256SOL    HW153636   6.482   3.897   7.827 -1.2070  0.0141 -0.2344
17256SOL    HW253637   6.539   3.763   7.786  0.9321  0.8254 -0.0933
17257SOL     OW53638   6.076   3.591   8.875 -0.4971  0.8266  0.2820
17257SOL    HW153639   5.984   3.565   8.865 -0.7095  1.6999 -0.1871
17257SOL    HW253640   6.124   3.509   8.884 -0.7091 -0.0579 -4.2346
17258SOL     OW53641   4.653   1.261   4.087  0.4128 -0.7467  0.1428
17258SOL    HW153642   4.602   1.269   4.006 -0.7896  0.6499  0.9826
17258SOL    HW253643   4.609   1.193   4.137  0.5279 -0.8818  0.0600
17259SOL     OW53644   1.266   1.909   8.079  0.7150 -0.5046 -0.3025
17259SOL    HW153645   1.270   1.816   8.103  3.0857 -0.4193 -0.1173
17259SOL    HW253646   1.209   1.911   8.002 -1.1047 -1.7804  0.9446
17260SOL     OW53647   0.695   5.524   3.307 -0.3034 -0.3433 -0.1606
17260SOL    HW153648   0.788   5.547   3.308 -0.2411 -0.5935 -0.1273
17260SOL    HW253649   0.694   5.431   3.284 -0.4327 -0.8247  1.6421
17261SOL     OW53650   1.410   4.554   4.003  0.2406  0.2645 -0.2859
17261SOL    HW153651   1.505   4.557   4.002  0.2408  0.2252 -0.9210
17261SOL    HW253652   1.385   4.588   4.089  0.8388 -0.2600  0.0976
17262SOL     OW53653   3.273   6.320   5.973 -0.2990 -0.1325 -0.2308
17262SOL    HW153654   3.277   6.276   6.058 -0.0716  0.5777  0.1417
17262SOL    HW253655   3.311   6.258   5.912 -0.0454 -0.4811  0.2700
17263SOL     OW53656   7.047   3.235   2.273  0.0740 -0.1143  0.1972
17263SOL    HW153657   7.060   3.194   2.188 -1.1034  0.7645 -0.4372
17263SOL    HW253658   6.973   3.188   2.311 -0.1822  0.2914  0.2044
17264SOL     OW53659   4.913   3.678   0.395  0.3321 -0.0370  0.4938
17264SOL    HW153660   4.891   3.688   0.302 -2.5677  0.9505  1.1703
17264SOL    HW253661   4.981   3.743   0.411 -0.2711  0.9063 -0.6347
17265SOL     OW53662   8.497   3.807   1.816  0.2652  0.8104  0.7290
17265SOL    HW153663   8.475   3.898   1.838 -0.4406  0.6925  0.5561
17265SOL    HW253664   8.412   3.763   1.812  0.3893  0.6451 -1.3900
17266SOL     OW53665   5.557   3.129   7.082 -0.1695 -0.5439  0.3449
17266SOL    HW153666   5.629   3.066   7.077  0.6516  0.4121 -0.1367
17266SOL    HW253667   5.510   3.105   7.162  1.7711 -0.0660  1.6913
17267SOL     OW53668   2.254   8.441   7.131  0.2973 -0.0183 -0.3913
17267SOL    HW153669   2.246   8.361   7.183  1.4340 -1.0117 -1.6729
17267SOL    HW253670   2.247   8.512   7.195 -1.7762 -1.0872  0.6485
17268SOL     OW53671   8.499   6.737   6.049  0.1686  0.2445 -0.9764
17268SOL    HW153672   8.547   6.695   5.978  2.8121  1.2099  0.1310
17268SOL    HW253673   8.455   6.812   6.008  1.3071  0.5415 -1.6952
17269SOL     OW53674   3.784   5.761   4.492 -0.4694  0.6699  0.0792
17269SOL    HW153675   3.841   5.686   4.475  0.6999  1.2912  1.0952
17269SOL    HW253676   3.804   5.823   4.422  0.1108  0.8813  0.4257
17270SOL     OW53677   2.443   7.496   5.967  0.1288 -0.4691  0.5579
17270SOL    HW153678   2.514   7.548   6.006  1.0976  0.3492 -2.0458
17270SOL    HW253679   2.385   7.562   5.928  1.3639 -1.1366 -2.7909
17271SOL     OW53680   2.311   8.688   7.687  0.1211 -0.2549 -0.5360
17271SOL    HW153681   2.226   8.729   7.670  0.3164 -0.1592 -1.2905
17271SOL    HW253682   2.367   8.761   7.712 -0.0722 -0.3502  0.2280
17272SOL     OW53683   0.734   8.177   5.749 -0.4110  0.1362 -0.0819
17272SOL    HW153684   0.781   8.181   5.832 -1.2322  1.6056  0.3509
17272SOL    HW253685   0.642   8.193   5.772 -0.4781  1.9626 -1.3723
17273SOL     OW53686   4.561   7.975   3.850  0.0682  0.2325 -0.1306
17273SOL    HW153687   4.600   8.051   3.807  0.1652 -0.4342 -1.2615
17273SOL    HW253688   4.510   7.932   3.782  1.1520 -1.4997  0.0669
17274SOL     OW53689   2.482   0.271   3.095 -0.2221 -0.5943  0.8019
17274SOL    HW153690   2.469   0.193   3.148  0.3308 -1.7103 -0.6491
17274SOL    HW253691   2.546   0.245   3.029  0.7553  1.3891  0.8921
17275SOL     OW53692   4.460   5.336   2.581 -0.4002 -0.3831 -0.3493
17275SOL    HW153693   4.475   5.273   2.651 -0.5872  1.2531  1.2298
17275SOL    HW253694   4.538   5.330   2.526  0.1991 -0.9968  0.5449
17276SOL     OW53695   1.751   5.807   1.950  0.2762 -0.0473  0.1986
17276SOL    HW153696   1.759   5.712   1.947  3.0542  0.0577  1.4146
17276SOL    HW253697   1.671   5.826   1.901 -0.8971 -3.0520  0.7329
17277SOL     OW53698   0.305   5.352   6.173 -0.6373 -0.0919 -0.1708
17277SOL    HW153699   0.249   5.394   6.238  0.4681  0.5933  0.3563
17277SOL    HW253700   0.348   5.281   6.221  0.1635  0.4029 -0.1297
17278SOL     OW53701   8.326   0.630   6.877 -0.5285  0.0036 -0.1483
17278SOL    HW153702   8.349   0.538   6.890 -1.8210 -0.3698 -0.3461
17278SOL    HW253703   8.241   0.627   6.832 -1.6593  1.2859  1.7639
17279SOL     OW53704   5.327   4.430   2.798 -0.4475  0.3837  0.2682
17279SOL    HW153705   5.410   4.385   2.783 -0.4450  0.2090  0.7966
17279SOL    HW253706   5.307   4.472   2.714  0.7414  1.3791  0.4582
17280SOL     OW53707   5.989   0.582   6.085  0.0680  0.2042  0.2110
17280SOL    HW153708   5.939   0.547   6.011 -1.4234  1.4140  0.5951
17280SOL    HW253709   6.074   0.603   6.048 -0.4579  0.2410 -1.0312
17281SOL     OW53710   4.225   0.058   3.359  0.1132  0.5560 -0.4428
17281SOL    HW153711   4.212  -0.035   3.374  1.8038  0.4460  0.5673
17281SOL    HW253712   4.137   0.096   3.369 -0.6846 -0.9392 -1.2957
17282SOL     OW53713   5.797   7.202   5.244  0.3854  0.1940 -0.2287
17282SOL    HW153714   5.889   7.182   5.226 -0.0689 -0.2226 -2.4061
17282SOL    HW253715   5.750   7.123   5.218 -0.7597  1.2447 -1.4988
17283SOL     OW53716   7.084   6.772   2.149  0.7698 -0.5931  0.2808
17283SOL    HW153717   7.109   6.691   2.105  1.2358 -0.1375 -0.3003
17283SOL    HW253718   7.001   6.796   2.108  0.9682 -0.4193 -0.0197
17284SOL     OW53719   4.620   8.753   7.242  0.1144  0.2655  0.1262
17284SOL    HW153720   4.527   8.749   7.218 -0.0333  0.0496  0.7293
17284SOL    HW253721   4.657   8.673   7.205 -0.0193  0.1614  0.2160
17285SOL     OW53722   7.424   5.658   2.901 -0.2481  0.1257  0.2520
17285SOL    HW153723   7.482   5.707   2.958 -0.7350  0.7881  0.1803
17285SOL    HW253724   7.349   5.636   2.955 -1.2310  1.7207 -0.4082
17286SOL     OW53725   4.996   8.416   4.391 -0.1449  0.0625 -0.2813
17286SOL    HW153726   4.974   8.500   4.350  0.8163  0.5906  0.2292
17286SOL    HW253727   5.043   8.441   4.471  0.7198 -0.9537 -0.4498
17287SOL     OW53728   0.702   4.007   4.602 -0.7331 -0.1936  0.0517
17287SOL    HW153729   0.712   3.919   4.636 -0.0504 -0.1094  0.0765
17287SOL    HW253730   0.640   4.049   4.662  1.3635  0.3512  2.0012
17288SOL     OW53731   2.946   0.292   0.779 -0.9760  0.1078  0.1321
17288SOL    HW153732   2.994   0.237   0.718  1.0915  0.0809  1.6822
17288SOL    HW253733   2.913   0.231   0.846 -0.9267  0.4378  0.4639
17289SOL     OW53734   5.417   6.230   1.703  0.1169  0.1892 -0.6671
17289SOL    HW153735   5.411   6.182   1.620  0.0560  0.4505 -0.8147
17289SOL    HW253736   5.507   6.217   1.731 -0.4753 -2.0345  0.5226
17290SOL     OW53737   2.711   5.080   1.037 -0.0065 -0.3822 -0.1717
17290SOL    HW153738   2.783   5.142   1.027  0.9329 -1.4680 -0.2630
17290SOL    HW253739   2.753   4.995   1.048 -1.2763 -1.0574 -0.3301
17291SOL     OW53740   3.751   6.413   3.166 -0.3054  0.7729  0.2054
17291SOL    HW153741   3.738   6.326   3.205  0.5931  0.1910 -0.7491
17291SOL    HW253742   3.780   6.467   3.240 -1.6014  0.4728  0.9680
17292SOL     OW53743   0.389   0.740   2.763  0.1195 -0.3355 -0.0861
17292SOL    HW153744   0.475   0.702   2.746  1.5200  2.5377 -0.0392
17292SOL    HW253745   0.360   0.774   2.678 -1.7965 -2.6316 -0.4575
17293SOL     OW53746   0.012   1.761   7.609 -0.0589  0.5012 -0.4446
17293SOL    HW153747  -0.011   1.845   7.570  1.4575  1.6179  0.9519
17293SOL    HW253748   0.004   1.698   7.537 -2.6003  1.5390 -1.1851
17294SOL     OW53749   8.950   6.565   0.861  0.2755  0.3314  0.0319
17294SOL    HW153750   9.002   6.563   0.781 -0.1133 -0.5294 -0.2174
17294SOL    HW253751   8.946   6.657   0.885 -0.7965  0.8103 -1.7402
17295SOL     OW53752   8.562   6.584   7.271  0.0423  0.4952  0.5181
17295SOL    HW153753   8.650   6.555   7.296  0.4049 -1.6031 -2.5717
17295SOL    HW253754   8.504   6.545   7.337  1.1721 -1.4652  0.4455
17296SOL     OW53755   0.124   2.207   1.281  0.2120  0.2944 -0.2084
17296SOL    HW153756   0.210   2.216   1.321 -0.6112  2.9279  1.1455
17296SOL    HW253757   0.122   2.273   1.211 -0.5642 -0.0396 -0.5192
17297SOL     OW53758   6.801   8.179   7.186 -0.3810 -0.5957 -0.0584
17297SOL    HW153759   6.788   8.250   7.123 -2.5242 -1.6755 -0.9193
17297SOL    HW253760   6.730   8.189   7.249  0.6234 -0.6791  1.1450
17298SOL     OW53761   4.079   0.148   7.652 -0.2380 -0.3943  0.5241
17298SOL    HW153762   4.019   0.223   7.645 -1.8954 -1.6433  0.5528
17298SOL    HW253763   4.159   0.185   7.688 -1.6847  1.0506  2.5132
17299SOL     OW53764   8.251   5.842   2.531 -0.3025  0.2528 -0.3256
17299SOL    HW153765   8.233   5.765   2.585 -1.9612  0.4728 -0.5362
17299SOL    HW253766   8.291   5.904   2.592  1.0524 -0.7291 -0.1523
17300SOL     OW53767   3.755   1.437   0.260 -0.0808  0.3356 -0.2056
17300SOL    HW153768   3.703   1.496   0.314  0.1294  0.2845  0.0558
17300SOL    HW253769   3.846   1.463   0.277  0.1048 -1.0223  1.0577
17301SOL     OW53770   3.386   8.996   6.949  0.3800 -0.1703 -0.0366
17301SOL    HW153771   3.421   9.010   7.037 -1.8382 -0.1087  0.9116
17301SOL    HW253772   3.367   8.902   6.945 -0.5495  0.0039 -0.0113
17302SOL     OW53773   5.851   3.488   2.926  0.0324  0.2201  0.1856
17302SOL    HW153774   5.803   3.422   2.876  2.2865 -2.5505  1.3522
17302SOL    HW253775   5.832   3.467   3.017  0.1926  1.7302  0.5855
17303SOL     OW53776   4.350   0.430   3.789  0.4885 -0.1185 -0.4798
17303SOL    HW153777   4.289   0.403   3.721 -0.3274 -0.4678  0.3782
17303SOL    HW253778   4.343   0.525   3.791  0.3591 -0.1223 -0.7402
17304SOL     OW53779   0.737   0.122   0.194  0.4201  0.2188 -0.1830
17304SOL    HW153780   0.734   0.148   0.102 -0.1073  1.7177  0.2282
17304SOL    HW253781   0.665   0.060   0.204  0.0362  0.5880 -0.6292
17305SOL     OW53782   1.738   5.881   7.836 -0.6344  0.2852  0.2588
17305SOL    HW153783   1.678   5.934   7.889 -1.1276 -0.2343  0.2454
17305SOL    HW253784   1.680   5.821   7.789 -0.1891  0.6460 -0.7642
17306SOL     OW53785   6.759   5.172   5.374 -0.2874 -0.0495  0.2782
17306SOL    HW153786   6.671   5.136   5.362 -0.0591 -0.9823  1.2194
17306SOL    HW253787   6.758   5.207   5.463  0.0217  0.7683 -0.0301
17307SOL     OW53788   7.416   6.955   0.421 -0.1485 -0.2024  0.2748
17307SOL    HW153789   7.382   6.993   0.340  1.4877 -1.2412 -0.9683
17307SOL    HW253790   7.444   7.030   0.473  1.9194  0.4176 -1.6033
17308SOL     OW53791   5.986   6.769   1.124 -0.1686 -0.0158  0.1007
17308SOL    HW153792   5.951   6.743   1.039 -0.1204  0.9367 -0.2124
17308SOL    HW253793   6.074   6.800   1.106  0.1837 -0.6644  0.6341
17309SOL     OW53794   6.939   8.914   3.904 -0.4515  0.0613  0.3070
17309SOL    HW153795   6.916   8.829   3.941 -1.1795 -0.4109 -1.1589
17309SOL    HW253796   6.972   8.894   3.816 -0.1000  1.2482  0.1496
17310SOL     OW53797   3.766   3.144   7.719 -0.3556  0.2317 -0.4475
17310SOL    HW153798   3.700   3.108   7.779 -0.6611  0.5854 -0.5741
17310SOL    HW253799   3.725   3.140   7.633 -0.4833  1.1140 -0.4296
17311SOL     OW53800   1.945   1.058   1.225 -0.1896 -0.1532  0.5738
17311SOL    HW153801   1.853   1.031   1.227 -0.0675 -0.6627 -0.3762
17311SOL    HW253802   1.965   1.070   1.132  0.3940  1.0547  0.8283
17312SOL     OW53803   7.606   3.324   1.547 -0.0979 -0.0819 -0.0091
17312SOL    HW153804   7.628   3.402   1.598 -1.3386 -0.8710  1.8547
17312SOL    HW253805   7.668   3.325   1.474  1.6382  1.2460  1.3793
17313SOL     OW53806   0.667   3.038   3.051 -0.4825  0.5401  0.0367
17313SOL    HW153807   0.682   3.081   2.967  0.8140  0.2706  0.1098
17313SOL    HW253808   0.586   2.989   3.038 -0.1704  0.2976 -1.1447
17314SOL     OW53809   8.443   2.979   6.248 -0.3138 -0.3212 -0.9642
17314SOL    HW153810   8.431   2.884   6.253  0.7825 -0.4022  0.9014
17314SOL    HW253811   8.537   2.992   6.255 -0.5039  0.9372 -0.4485
17315SOL     OW53812   5.306   4.464   4.696  0.8837 -0.4971 -0.0132
17315SOL    HW153813   5.338   4.454   4.606  0.0204  1.4451 -0.5859
17315SOL    HW253814   5.213   4.442   4.691  0.1447  2.2236 -0.2822
17316SOL     OW53815   3.044   0.066   6.907  0.1617 -0.6115 -0.3455
17316SOL    HW153816   2.955   0.046   6.881 -0.9235  0.6307  2.0504
17316SOL    HW253817   3.063   0.004   6.978 -0.4068  1.5969  1.9018
17317SOL     OW53818   3.345   1.618   3.086  0.0193 -0.5664  0.6767
17317SOL    HW153819   3.400   1.544   3.059  0.1796  0.3562 -1.7233
17317SOL    HW253820   3.258   1.597   3.051 -0.4500 -0.5796  1.8095
17318SOL     OW53821   4.599   6.087   0.113 -0.3223  0.3333  0.6150
17318SOL    HW153822   4.623   6.150   0.182 -1.4815 -1.0365  2.3573
17318SOL    HW253823   4.526   6.128   0.068 -0.2120  0.8062  0.8513
17319SOL     OW53824   0.094   8.411   5.968  0.6427  0.2362  0.1017
17319SOL    HW153825   0.139   8.405   5.883 -0.6435 -1.2812 -0.5090
17319SOL    HW253826   0.135   8.343   6.021  0.4698  0.2371  0.2343
17320SOL     OW53827   6.210   0.212   2.908 -0.0152  0.6599 -0.1115
17320SOL    HW153828   6.220   0.121   2.938 -1.7392  0.8845  1.3312
17320SOL    HW253829   6.299   0.245   2.901  0.5838 -0.5384  1.3669
17321SOL     OW53830   3.780   4.465   4.830 -0.5924  0.2843  0.1026
17321SOL    HW153831   3.872   4.445   4.846 -0.6355 -0.8780 -1.0196
17321SOL    HW253832   3.775   4.561   4.836  0.8614  0.4301 -0.6656
17322SOL     OW53833   3.600   4.451   1.837 -0.2933  0.1603 -0.2415
17322SOL    HW153834   3.551   4.410   1.908  0.1668 -0.9482 -0.5592
17322SOL    HW253835   3.640   4.379   1.789  1.1070  1.0068 -0.3984
17323SOL     OW53836   6.497   7.160   3.698 -0.3137  0.1748 -0.2955
17323SOL    HW153837   6.529   7.134   3.611  0.1125  0.5153 -0.2461
17323SOL    HW253838   6.573   7.147   3.756 -0.4861  0.2993 -0.0418
17324SOL     OW53839   4.984   1.898   4.447  0.2536  0.9584  0.9251
17324SOL    HW153840   4.958   1.888   4.355 -2.8953  0.3773  1.7832
17324SOL    HW253841   4.998   1.992   4.457 -1.2333  1.2857  0.2580
17325SOL     OW53842   5.015   1.289   4.970 -0.0075  0.3151  0.5415
17325SOL    HW153843   4.985   1.351   4.904  2.2055 -0.1807 -1.0387
17325SOL    HW253844   5.036   1.210   4.921  2.5846  0.2345  1.6425
17326SOL     OW53845   6.080   7.538   4.207 -0.0180  0.1716  0.4176
17326SOL    HW153846   5.991   7.511   4.227  0.7604 -1.7830  1.4736
17326SOL    HW253847   6.126   7.536   4.291  1.1320  0.7665 -0.1631
17327SOL     OW53848   1.581   6.868   3.064  0.5152 -0.4487 -0.0041
17327SOL    HW153849   1.663   6.822   3.043  1.2819  0.9767 -0.3135
17327SOL    HW253850   1.598   6.958   3.038 -0.3961  0.3370  1.9295
17328SOL     OW53851   5.306   1.041   7.600  0.8184 -0.3259  0.6016
17328SOL    HW153852   5.223   1.062   7.557  0.3115 -0.1216  1.6494
17328SOL    HW253853   5.350   0.982   7.539  0.5611  0.7173 -0.6485
17329SOL     OW53854   1.357   2.390   7.425  0.2649  0.2667 -0.1581
17329SOL    HW153855   1.266   2.416   7.410  0.3743  1.4523  1.0035
17329SOL    HW253856   1.406   2.472   7.418  0.5601  0.6975  4.2554
17330SOL     OW53857   3.841   5.836   8.432  0.4017  0.0682  0.2147
17330SOL    HW153858   3.900   5.797   8.367  1.4756  0.6940  0.7849
17330SOL    HW253859   3.753   5.816   8.400  0.8993  0.4824 -1.5206
17331SOL     OW53860   3.519   1.508   5.794 -0.3397 -0.2341  0.3507
17331SOL    HW153861   3.446   1.458   5.830  0.6680 -1.0180  1.3880
17331SOL    HW253862   3.555   1.555   5.870 -0.3229  0.8809 -0.3236
17332SOL     OW53863   6.031   4.714   3.893 -0.0697  0.2455  0.3583
17332SOL    HW153864   6.072   4.721   3.979  0.8752  1.5896 -0.1781
17332SOL    HW253865   5.987   4.629   3.895 -1.4094  0.9011  2.7232
17333SOL     OW53866   0.771   6.039   6.481  0.4097 -0.4537 -0.1304
17333SOL    HW153867   0.681   6.038   6.512  0.3694  0.0356 -0.2243
17333SOL    HW253868   0.767   6.082   6.396  1.0101  1.5068  0.7830
17334SOL     OW53869   5.720   8.175   3.460  0.2482  0.3508  0.3330
17334SOL    HW153870   5.672   8.102   3.420 -0.7503  0.4582  1.2806
17334SOL    HW253871   5.719   8.156   3.554  0.8383  1.0967  0.5030
17335SOL     OW53872   6.384   5.828   5.791  0.2208  0.2697 -0.1304
17335SOL    HW153873   6.319   5.843   5.723 -0.1250  2.6786  0.6301
17335SOL    HW253874   6.346   5.760   5.847 -0.7197  0.2289 -0.8113
17336SOL     OW53875   2.582   1.373   1.131 -0.1330  1.0004  0.1035
17336SOL    HW153876   2.625   1.378   1.216  0.5350  1.6205 -0.2627
17336SOL    HW253877   2.547   1.461   1.116 -0.7353  0.7485 -0.0160
17337SOL     OW53878   7.419   6.683   5.963 -0.1361  0.2113  0.3599
17337SOL    HW153879   7.396   6.744   6.033  0.2337 -1.7602  2.3179
17337SOL    HW253880   7.497   6.638   5.994  0.0667 -0.7212 -1.3423
17338SOL     OW53881   0.988   6.512   4.049 -0.2577  0.0602  0.1103
17338SOL    HW153882   0.914   6.573   4.057 -0.9180 -0.6197 -0.5889
17338SOL    HW253883   0.966   6.459   3.972  0.7279 -0.4781  0.1918
17339SOL     OW53884   0.693   0.955   3.999  0.4269  0.1864 -0.5543
17339SOL    HW153885   0.777   0.953   4.045 -0.4682 -1.1147  1.1398
17339SOL    HW253886   0.675   1.049   3.988  2.6777  0.5157 -2.1669
17340SOL     OW53887   1.161   1.621   0.370 -0.1768  0.4220  0.2046
17340SOL    HW153888   1.157   1.643   0.277  0.2373  1.1311  0.3535
17340SOL    HW253889   1.163   1.705   0.415  1.6000  0.1147  0.7762
17341SOL     OW53890   4.322   6.751   2.933  0.0097 -0.6194  0.7621
17341SOL    HW153891   4.244   6.701   2.907 -0.6648  0.4541  0.6626
17341SOL    HW253892   4.388   6.684   2.952 -0.5038 -1.5236 -0.4689
17342SOL     OW53893   5.614   3.370   2.516  0.2711  0.3242 -0.2371
17342SOL    HW153894   5.562   3.450   2.501 -1.2802 -0.3231  1.3939
17342SOL    HW253895   5.556   3.299   2.489  0.0926 -0.4504  2.0314
17343SOL     OW53896   7.147   6.808   0.452 -0.5721  0.4323 -0.2908
17343SOL    HW153897   7.236   6.801   0.487 -1.0999 -1.2246  0.8698
17343SOL    HW253898   7.157   6.790   0.358  0.3523  0.6577 -0.2519
17344SOL     OW53899   6.686   3.651   1.939 -0.6610 -0.2731 -0.6414
17344SOL    HW153900   6.651   3.653   2.028  0.4672  0.5600 -0.2013
17344SOL    HW253901   6.636   3.717   1.892 -1.4595 -0.9159 -0.7203
17345SOL     OW53902   1.551   7.096   2.161  0.0822  0.2016 -0.0238
17345SOL    HW153903   1.640   7.064   2.153 -0.1194 -1.1535  2.2618
17345SOL    HW253904   1.497   7.029   2.118  0.0607  0.2382 -0.0535
17346SOL     OW53905   3.613   8.196   6.874  0.0558  0.4116  0.4270
17346SOL    HW153906   3.647   8.200   6.963 -0.5707  2.3652  0.6289
17346SOL    HW253907   3.631   8.283   6.838 -0.6664  0.0010 -0.9886
17347SOL     OW53908   0.730   2.155   0.695  0.0704 -0.6808  0.1412
17347SOL    HW153909   0.776   2.202   0.626  0.2008  0.1453  0.7656
17347SOL    HW253910   0.775   2.071   0.701 -0.2129 -0.9332 -1.0534
17348SOL     OW53911   3.072   3.593   4.196  0.2349  0.1088  0.5214
17348SOL    HW153912   2.977   3.590   4.197  0.2064 -1.0871 -1.2638
17348SOL    HW253913   3.097   3.563   4.109  2.2594  0.0349  1.0590
17349SOL     OW53914   3.500   2.565   7.566 -0.5600  0.4786 -0.5894
17349SOL    HW153915   3.450   2.502   7.618  1.0741 -0.6388 -0.3224
17349SOL    HW253916   3.535   2.513   7.494  1.6472  0.8277  0.1788
17350SOL     OW53917   5.692   2.527   0.288 -0.2329 -0.3734 -0.4173
17350SOL    HW153918   5.679   2.435   0.312 -1.3392  0.1435  1.1515
17350SOL    HW253919   5.730   2.524   0.201 -0.2868 -2.3205 -0.4192
17351SOL     OW53920   2.502   5.554   4.681 -0.0772  0.1633 -0.2376
17351SOL    HW153921   2.581   5.600   4.652  0.3730 -1.1185 -1.1531
17351SOL    HW253922   2.430   5.601   4.640 -0.4172  4.3382  4.2566
17352SOL     OW53923   3.117   8.789   5.433 -0.3475  0.5591  0.5336
17352SOL    HW153924   3.145   8.746   5.352 -0.8069  0.3516  0.4816
17352SOL    HW253925   3.059   8.859   5.404 -0.6370  0.3863  0.6873
17353SOL     OW53926   7.797   8.363   6.150  0.2494  0.6847  0.1642
17353SOL    HW153927   7.823   8.273   6.129 -0.2145  0.5331  0.2176
17353SOL    HW253928   7.749   8.355   6.232  1.1868  1.1389  0.7770
17354SOL     OW53929   1.221   2.692   6.193  0.7553  0.0189 -0.0668
17354SOL    HW153930   1.199   2.734   6.110  0.2254  1.1888  0.6477
17354SOL    HW253931   1.143   2.640   6.214  1.0814 -0.6736 -0.5310
17355SOL     OW53932   3.792   3.510   8.497 -0.3387  0.4417  0.5649
17355SOL    HW153933   3.862   3.561   8.457  0.1338  0.6663  1.6519
17355SOL    HW253934   3.836   3.451   8.558 -0.7504 -2.1301 -1.4505
17356SOL     OW53935   8.376   3.177   8.295 -1.1253 -0.6031 -0.6070
17356SOL    HW153936   8.414   3.262   8.271  0.6236 -0.7794  1.2467
17356SOL    HW253937   8.345   3.141   8.213 -1.1501  1.4650 -1.5765
17357SOL     OW53938   1.025   4.407   5.515  0.2444 -0.0394 -0.0424
17357SOL    HW153939   1.050   4.405   5.607  0.5942 -1.4477 -0.1411
17357SOL    HW253940   1.060   4.489   5.482  1.1413 -0.0675  0.7983
17358SOL     OW53941   7.408   2.091   2.098 -0.6970  0.3068 -0.8007
17358SOL    HW153942   7.400   2.067   2.190 -0.5620  0.0692 -0.8509
17358SOL    HW253943   7.379   2.014   2.050  0.5090 -0.0525 -0.9703
17359SOL     OW53944   3.201   3.361   2.739  0.3357 -0.0816  0.0776
17359SOL    HW153945   3.203   3.443   2.788 -0.5407 -0.8994  1.5614
17359SOL    HW253946   3.126   3.370   2.679 -2.0281 -1.0370  2.6689
17360SOL     OW53947   4.228   3.778   4.061 -0.0585 -0.4997 -0.3065
17360SOL    HW153948   4.292   3.830   4.011  0.8046 -0.2463  1.0215
17360SOL    HW253949   4.153   3.837   4.071  1.3303  1.0464  2.1593
17361SOL     OW53950   0.716   3.148   2.527 -0.0098  0.0706  0.1786
17361SOL    HW153951   0.788   3.199   2.491  0.0987 -0.9056 -1.0621
17361SOL    HW253952   0.637   3.187   2.490 -0.1930  1.4118  1.8755
17362SOL     OW53953   8.508   2.637   4.341  0.1999  0.3254  0.3331
17362SOL    HW153954   8.458   2.609   4.417  1.1157  0.3331  0.9518
17362SOL    HW253955   8.556   2.559   4.312 -1.0487  0.0084 -0.9835
17363SOL     OW53956   2.482   3.756   8.526  0.2471  0.7287 -0.3170
17363SOL    HW153957   2.422   3.684   8.508 -0.6069  1.7753 -1.8849
17363SOL    HW253958   2.454   3.790   8.611 -1.2858  1.0694 -0.9320
17364SOL     OW53959   5.637   7.522   1.314  0.4188 -0.6838 -0.6266
17364SOL    HW153960   5.688   7.565   1.383  0.2220  0.7499 -1.3375
17364SOL    HW253961   5.598   7.446   1.358 -0.5209  0.7376  1.1238
17365SOL     OW53962   2.698   5.086   3.622 -0.0438 -0.4247  0.1045
17365SOL    HW153963   2.666   4.997   3.607  0.6092 -0.5260 -0.8057
17365SOL    HW253964   2.623   5.142   3.602 -0.0218 -0.7077 -0.8022
17366SOL     OW53965   3.443   7.266   0.138 -0.2387  0.5402 -0.2827
17366SOL    HW153966   3.378   7.249   0.070 -0.8750  0.9132  0.2301
17366SOL    HW253967   3.396   7.256   0.221 -0.6108  4.3354  0.1117
17367SOL     OW53968   1.834   1.523   6.887  0.0093  0.4024 -0.6756
17367SOL    HW153969   1.752   1.543   6.843 -1.4925 -1.3335  1.1441
17367SOL    HW253970   1.839   1.585   6.959  1.2943  1.7194 -1.8376
17368SOL     OW53971   5.138   1.980   2.922  0.3714  0.0191 -0.5687
17368SOL    HW153972   5.190   1.903   2.899 -0.7184 -0.8104 -0.3456
17368SOL    HW253973   5.048   1.947   2.927  0.1722  0.7446  2.0997
17369SOL     OW53974   1.432   6.676   6.837  0.3699 -0.6546  1.3575
17369SOL    HW153975   1.417   6.585   6.865  4.3565 -0.7378  3.8564
17369SOL    HW253976   1.524   6.679   6.814 -0.1262  2.3887 -0.7576
17370SOL     OW53977   8.029   6.960   4.199 -0.0868  0.3058  0.1295
17370SOL    HW153978   7.950   6.969   4.253 -0.4330 -0.6721 -0.1966
17370SOL    HW253979   8.012   7.015   4.122 -0.0622  0.8124  0.4786
17371SOL     OW53980   5.317   7.064   6.899  0.5685 -0.3563  0.0834
17371SOL    HW153981   5.404   7.088   6.868  0.4502  0.2044  0.1742
17371SOL    HW253982   5.326   6.973   6.927  1.6435  0.2515  1.9329
17372SOL     OW53983   2.908   0.855   6.926 -0.0211  0.1278  0.4728
17372SOL    HW153984   2.816   0.841   6.902  0.4288 -1.0332 -0.6656
17372SOL    HW253985   2.958   0.811   6.857  1.3772 -0.5324  1.8441
17373SOL     OW53986   7.478   8.932   4.302 -0.1187  0.3033  0.3998
17373SOL    HW153987   7.559   8.949   4.253 -0.5278  0.3616 -0.2677
17373SOL    HW253988   7.408   8.964   4.245 -0.7639 -1.5057  0.0998
17374SOL     OW53989   3.821   7.866   3.767  0.2476  0.2835 -0.3916
17374SOL    HW153990   3.784   7.955   3.763  0.1942  0.2352 -1.0304
17374SOL    HW253991   3.912   7.880   3.793  0.7814  0.6893 -2.3237
17375SOL     OW53992   6.326   6.049   7.607  0.0705 -0.0709  0.3845
17375SOL    HW153993   6.391   6.104   7.651 -0.5778 -1.4121  3.1636
17375SOL    HW253994   6.368   5.964   7.598 -0.1113 -0.0431 -0.9403
17376SOL     OW53995   3.630   5.693   1.593 -0.9087 -0.3363  0.4449
17376SOL    HW153996   3.687   5.623   1.563 -0.8402  0.4383 -1.3469
17376SOL    HW253997   3.569   5.650   1.653 -0.5490 -1.8258 -0.2177
17377SOL     OW53998   1.593   7.221   6.604 -0.1355  0.1860  0.0800
17377SOL    HW153999   1.571   7.240   6.695 -3.3452  0.7584 -0.6975
17377SOL    HW254000   1.681   7.257   6.593  0.2255  0.4028  2.8218
17378SOL     OW54001   7.303   1.590   0.926 -0.0531  0.3831 -0.3086
17378SOL    HW154002   7.243   1.616   0.997 -0.2669  0.7409 -0.6202
17378SOL    HW254003   7.372   1.656   0.928 -0.4822  0.8612 -0.9562
17379SOL     OW54004   3.635   2.256   3.081  0.0165 -0.1021  0.6250
17379SOL    HW154005   3.564   2.192   3.086 -0.2159  0.1311  0.3895
17379SOL    HW254006   3.609   2.314   3.009 -1.2627  1.9966  2.6452
17380SOL     OW54007   7.416   7.557   2.315 -0.7179 -0.4009  0.3167
17380SOL    HW154008   7.421   7.615   2.239 -1.0481  0.1004  0.6733
17380SOL    HW254009   7.349   7.596   2.371  0.3213 -0.1235  1.4047
17381SOL     OW54010   6.829   8.967   1.953 -0.0538  0.3237  0.0859
17381SOL    HW154011   6.905   8.987   2.006  0.3664 -0.1181 -0.3397
17381SOL    HW254012   6.840   9.020   1.874  0.6241 -0.9125 -0.6674
17382SOL     OW54013   5.891   7.900   4.058 -0.3237  0.0665  0.2832
17382SOL    HW154014   5.805   7.913   4.019  0.4536  1.5722 -1.0480
17382SOL    HW254015   5.949   7.958   4.008  1.2093  0.1428  2.0374
17383SOL     OW54016   7.946   0.250   5.550 -0.6813 -0.1641  0.1321
17383SOL    HW154017   7.873   0.294   5.594 -1.2797 -0.1460 -0.8420
17383SOL    HW254018   7.972   0.309   5.480 -1.2654 -1.1696 -0.9709
17384SOL     OW54019   8.625   6.079   0.395  0.2488  0.2919  0.2541
17384SOL    HW154020   8.578   6.028   0.329  1.8836 -0.9927  0.0253
17384SOL    HW254021   8.565   6.081   0.470 -0.8761  0.2048 -0.6085
17385SOL     OW54022   2.612   1.561   3.694  0.0762 -0.1129  0.0034
17385SOL    HW154023   2.579   1.474   3.718 -0.2512 -0.5570 -1.8734
17385SOL    HW254024   2.651   1.548   3.607 -2.7383  2.2145 -1.7786
17386SOL     OW54025   8.583   5.982   8.273 -0.4819 -0.1328 -0.2102
17386SOL    HW154026   8.621   6.066   8.246  0.2080 -0.6173 -0.7850
17386SOL    HW254027   8.490   6.001   8.285 -0.8821  0.1350 -3.0290
17387SOL     OW54028   1.037   4.622   2.237 -0.7439  0.2407 -0.1672
17387SOL    HW154029   1.049   4.686   2.167 -1.0665  1.7913  1.1189
17387SOL    HW254030   1.033   4.675   2.317 -0.4988 -1.4470  1.0173
17388SOL     OW54031   3.822   6.067   1.555 -0.0914 -0.8448 -0.3397
17388SOL    HW154032   3.733   6.033   1.556 -0.0632 -1.0120 -1.4962
17388SOL    HW254033   3.829   6.112   1.471  0.3874  0.6400  0.4546
17389SOL     OW54034   7.765   4.247   5.979  0.4210 -0.3210  0.7020
17389SOL    HW154035   7.817   4.189   5.924  1.6567  2.9909 -1.9765
17389SOL    HW254036   7.675   4.216   5.968  0.8726 -0.9751 -1.6274
17390SOL     OW54037   4.685   0.609   1.151  0.8831  0.3339  0.1155
17390SOL    HW154038   4.661   0.550   1.223  0.0182  2.0434  1.2998
17390SOL    HW254039   4.740   0.555   1.094  3.0002 -0.6618  2.8639
17391SOL     OW54040   8.923   1.908   6.547  0.2101 -0.5022  0.1276
17391SOL    HW154041   8.924   1.888   6.640  1.5927  0.6153  0.3819
17391SOL    HW254042   8.868   1.985   6.539  1.4995  0.4748  0.2991
17392SOL     OW54043   6.691   8.746   7.710 -0.1228 -0.2347  0.2510
17392SOL    HW154044   6.627   8.676   7.697 -1.9630  1.2722  0.6987
17392SOL    HW254045   6.709   8.779   7.622 -0.5708 -0.1827  0.1760
17393SOL     OW54046   6.938   7.777   8.096 -0.2387  0.1167 -0.0092
17393SOL    HW154047   6.913   7.724   8.020 -0.2760  1.2393 -0.8087
17393SOL    HW254048   6.933   7.717   8.170 -0.8752 -0.8329 -0.7967
17394SOL     OW54049   0.471   6.390   7.321  0.5068  0.5043  0.1531
17394SOL    HW154050   0.506   6.371   7.234  0.5274 -0.7318  0.4146
17394SOL    HW254051   0.378   6.369   7.314  0.4789  0.5501  0.4011
17395SOL     OW54052   2.859   8.930   7.928 -0.2990  0.3373 -0.0375
17395SOL    HW154053   2.839   9.011   7.880 -0.0076  0.4044 -0.0457
17395SOL    HW254054   2.921   8.884   7.872 -0.2185  0.2575  0.1161
17396SOL     OW54055   7.257   5.362   4.281  0.0424 -0.3932  0.3985
17396SOL    HW154056   7.312   5.351   4.204  1.6299 -0.0998  1.4428
17396SOL    HW254057   7.208   5.280   4.287 -0.2842 -0.3264 -1.0346
17397SOL     OW54058   4.937   7.082   4.996  0.0963  0.1535 -0.0961
17397SOL    HW154059   4.853   7.043   4.973  0.0111  1.1886 -1.6758
17397SOL    HW254060   4.918   7.131   5.077  0.2555 -3.0334  2.0691
17398SOL     OW54061   7.320   6.624   1.628 -0.3627 -0.1608  0.2916
17398SOL    HW154062   7.350   6.630   1.718  1.8189 -0.3819 -0.3702
17398SOL    HW254063   7.294   6.713   1.605  2.1781  0.6158  0.1762
17399SOL     OW54064   8.593   8.768   8.052  0.0130  0.0059 -0.5177
17399SOL    HW154065   8.614   8.678   8.026  0.2374  0.4898 -2.1531
17399SOL    HW254066   8.591   8.816   7.969  0.5130  1.6382  0.3801
17400SOL     OW54067   8.980   7.623   1.976  0.5075  0.6208 -0.3625
17400SOL    HW154068   8.961   7.540   2.020  0.1612  0.6911 -0.3781
17400SOL    HW254069   8.898   7.646   1.933  0.3241  1.4495  0.4165
17401SOL     OW54070   1.060   3.620   1.133  0.1774 -0.4154 -0.0361
17401SOL    HW154071   1.060   3.532   1.169  1.9594 -0.1187  0.8240
17401SOL    HW254072   1.115   3.671   1.193 -0.3483  1.1525 -0.8040
17402SOL     OW54073   5.829   5.625   0.045  0.1995 -0.5472 -0.3262
17402SOL    HW154074   5.865   5.536   0.037  0.3609 -0.5312  0.1991
17402SOL    HW254075   5.844   5.664  -0.041  0.4485 -0.9117 -0.4533
17403SOL     OW54076   2.190   3.342   2.217 -0.3352 -0.2446  0.2426
17403SOL    HW154077   2.146   3.397   2.152 -1.0305 -1.3531 -0.2788
17403SOL    HW254078   2.265   3.306   2.171 -0.1705 -0.1265  0.4192
17404SOL     OW54079   5.994   8.683   8.807  0.1862  0.8853  0.2415
17404SOL    HW154080   6.039   8.718   8.884  0.9894  0.2745  0.0689
17404SOL    HW254081   6.050   8.610   8.778 -1.0554 -0.0823  0.1771
17405SOL     OW54082   2.957   0.365   3.456 -0.1014  0.0731 -0.0486
17405SOL    HW154083   3.007   0.414   3.392 -1.1179  0.5147 -0.5186
17405SOL    HW254084   3.016   0.358   3.532  0.3824  1.2442 -0.2965
17406SOL     OW54085   1.609   5.380   1.253  0.3773 -0.0770  0.5993
17406SOL    HW154086   1.515   5.358   1.255  0.1889  0.0476 -2.2646
17406SOL    HW254087   1.617   5.457   1.308 -0.6141 -1.7410  3.2985
17407SOL     OW54088   3.226   4.718   1.887 -0.0558  0.0933 -0.8702
17407SOL    HW154089   3.310   4.694   1.847  1.0822  2.2883  0.0474
17407SOL    HW254090   3.188   4.783   1.828 -0.8726 -0.4862 -1.0014
17408SOL     OW54091   2.712   3.884   2.960  0.4522 -0.2021  0.4158
17408SOL    HW154092   2.716   3.848   2.872  0.5582 -0.0248  0.3473
17408SOL    HW254093   2.790   3.849   3.004  0.7946  0.2964  0.2132
17409SOL     OW54094   1.330   3.502   8.458  0.0972 -0.3268 -0.1662
17409SOL    HW154095   1.359   3.415   8.485  0.3827 -0.0767  0.3290
17409SOL    HW254096   1.410   3.552   8.446 -0.0670 -0.1261 -0.4440
17410SOL     OW54097   5.212   3.554   5.621 -0.7292  0.0137  0.1342
17410SOL    HW154098   5.289   3.525   5.572  0.2808  0.7285  1.2536
17410SOL    HW254099   5.181   3.474   5.665 -0.0894 -0.1061  0.3807
17411SOL     OW54100   6.351   0.998   7.849  0.2325  0.1414  0.3004
17411SOL    HW154101   6.324   0.934   7.783  1.2922  1.0731 -1.0622
17411SOL    HW254102   6.346   1.083   7.805 -0.6385  0.9784  1.9247
17412SOL     OW54103   2.517   0.470   0.582  0.5728  0.1154 -0.3403
17412SOL    HW154104   2.503   0.559   0.615  0.3086  0.7997 -2.1853
17412SOL    HW254105   2.579   0.431   0.644  0.1056  1.3065  0.9323
17413SOL     OW54106   3.510   0.168   0.968  0.0949 -0.2455 -0.5158
17413SOL    HW154107   3.549   0.112   0.902  0.7845  0.0244 -0.3489
17413SOL    HW254108   3.440   0.115   1.006  0.2410 -0.7088 -0.8800
17414SOL     OW54109   5.661   4.643   7.366  0.5205 -0.4716 -0.0856
17414SOL    HW154110   5.713   4.610   7.293  1.0720 -0.5639  0.3422
17414SOL    HW254111   5.706   4.722   7.394 -1.4161  1.4018 -1.8454
17415SOL     OW54112   8.856   0.007   8.461 -0.0781 -0.3598 -0.8400
17415SOL    HW154113   8.951   0.023   8.466 -0.0065 -1.0250  0.3766
17415SOL    HW254114   8.825   0.029   8.549 -1.0288 -0.3668 -1.1692
17416SOL     OW54115   1.081   1.182   8.605 -0.8418 -0.0100  0.2120
17416SOL    HW154116   1.068   1.262   8.657 -2.5553 -1.2079  1.7669
17416SOL    HW254117   1.067   1.210   8.514 -0.0309  1.6971  0.5721
17417SOL     OW54118   0.903   7.130   1.870 -0.3608 -0.2933 -0.4496
17417SOL    HW154119   0.994   7.123   1.841  0.0823 -3.0065  1.2093
17417SOL    HW254120   0.899   7.214   1.915  1.9983 -0.9877  1.2866
17418SOL     OW54121   2.054   1.740   1.959 -0.6441  0.2940 -0.7974
17418SOL    HW154122   2.107   1.663   1.939 -3.1993 -1.3777 -1.5806
17418SOL    HW254123   1.999   1.752   1.882 -1.1143  2.2600 -0.2206
17419SOL     OW54124   7.128   4.388   2.173 -0.9136  0.3504 -0.4341
17419SOL    HW154125   7.199   4.367   2.234 -3.1168 -0.7562  1.9604
17419SOL    HW254126   7.149   4.476   2.142  0.5085  0.8721  1.7509
17420SOL     OW54127   0.129   1.842   5.285  0.0034  0.1207 -1.1458
17420SOL    HW154128   0.138   1.747   5.292  1.2418  0.2167 -1.1079
17420SOL    HW254129   0.057   1.856   5.224 -0.1778 -0.8383 -1.1603
17421SOL     OW54130   1.728   7.311   5.705  0.1206 -0.6584  0.1509
17421SOL    HW154131   1.698   7.235   5.756  0.6632 -1.0132 -0.0389
17421SOL    HW254132   1.824   7.303   5.706  0.1413 -0.7871 -1.0864
17422SOL     OW54133   5.931   6.011   6.318  0.5335 -0.3258 -0.2143
17422SOL    HW154134   5.918   5.928   6.363 -0.5143 -0.2681 -0.3927
17422SOL    HW254135   5.943   6.075   6.387  2.5883 -0.7857 -0.0771
17423SOL     OW54136   2.548   2.438   0.889 -0.0400 -0.2542  0.1636
17423SOL    HW154137   2.571   2.360   0.839  0.0979  0.7514 -1.4030
17423SOL    HW254138   2.567   2.511   0.830 -3.2493  0.8646  0.3484
17424SOL     OW54139   3.678   5.821   1.345 -0.1721 -0.0511 -0.1311
17424SOL    HW154140   3.673   5.754   1.276  3.5248  0.7906 -1.4081
17424SOL    HW254141   3.692   5.771   1.425  2.8897 -0.9525 -1.1108
17425SOL     OW54142   8.806   2.316   3.334 -0.0432  0.4208  0.4333
17425SOL    HW154143   8.795   2.283   3.246  0.3867 -0.5703  0.7389
17425SOL    HW254144   8.742   2.387   3.342 -0.6438 -0.0219 -0.3911
17426SOL     OW54145   1.228   6.270   5.797  0.1869 -0.0008 -0.1154
17426SOL    HW154146   1.196   6.181   5.789 -2.8742  1.0546 -0.9100
17426SOL    HW254147   1.212   6.293   5.889  0.1348  0.0062 -0.1259
17427SOL     OW54148   6.293   1.456   3.339  0.4811  0.4733  0.5166
17427SOL    HW154149   6.327   1.375   3.378  0.2507  0.3736  0.5162
17427SOL    HW254150   6.202   1.460   3.369  0.8230  1.3316  1.4576
17428SOL     OW54151   2.069   2.587   8.796 -0.5036  0.0974 -0.0913
17428SOL    HW154152   2.094   2.495   8.790  0.0404  0.2398 -0.0749
17428SOL    HW254153   2.023   2.594   8.879 -1.9086 -0.4658 -0.8014
17429SOL     OW54154   3.242   0.490   5.619 -0.0431  0.9216 -0.2385
17429SOL    HW154155   3.199   0.526   5.697  3.7286 -0.9516  3.0364
17429SOL    HW254156   3.186   0.417   5.592 -1.9459  2.2177 -0.0196
17430SOL     OW54157   6.103   2.504   7.434 -0.1363 -0.5182  0.4343
17430SOL    HW154158   6.069   2.516   7.523 -0.7994 -0.8273  0.2303
17430SOL    HW254159   6.079   2.414   7.411  2.1329 -1.2860  0.8217
17431SOL     OW54160   5.787   4.429   4.650  0.0637  0.3275  0.5043
17431SOL    HW154161   5.719   4.434   4.718  0.8599  1.1567  1.2769
17431SOL    HW254162   5.753   4.365   4.587 -1.5755  0.9554  0.6860
17432SOL     OW54163   5.672   6.183   4.763 -0.3218  0.3569  0.3111
17432SOL    HW154164   5.700   6.270   4.791 -1.6912  1.5012 -1.6203
17432SOL    HW254165   5.753   6.137   4.742  0.4335  1.0795  1.5197
17433SOL     OW54166   0.560   8.709   5.112  0.0183 -0.2039 -0.3601
17433SOL    HW154167   0.639   8.756   5.136 -0.3056 -0.2420  0.8101
17433SOL    HW254168   0.591   8.637   5.056  1.0715 -1.3532  1.5792
17434SOL     OW54169   2.039   5.198   3.661 -0.5515 -0.2172 -0.0545
17434SOL    HW154170   1.997   5.117   3.632 -3.1934  1.2722 -0.7091
17434SOL    HW254171   1.977   5.267   3.638  2.0087  2.1471 -0.4267
17435SOL     OW54172   1.154   6.244   1.548  0.0601 -0.3690 -0.7307
17435SOL    HW154173   1.241   6.252   1.588 -1.3516  1.8822  2.3197
17435SOL    HW254174   1.138   6.330   1.509 -0.7664 -0.7974 -1.3488
17436SOL     OW54175   4.523   3.550   4.491 -0.8083 -0.1304  0.0084
17436SOL    HW154176   4.607   3.517   4.458  0.4828  2.6118  0.2005
17436SOL    HW254177   4.471   3.567   4.413  0.7711  2.6939 -0.5968
17437SOL     OW54178   3.395   3.612   1.236  0.5926  0.1866 -0.2276
17437SOL    HW154179   3.468   3.654   1.189 -0.0698 -0.7100 -2.1876
17437SOL    HW254180   3.437   3.568   1.310  2.2724 -1.1271 -1.8411
17438SOL     OW54181   0.389   3.768   1.465  0.0323 -0.2830  0.4123
17438SOL    HW154182   0.361   3.826   1.536  0.1213 -0.2912  0.4545
17438SOL    HW254183   0.473   3.804   1.436 -1.3548  1.5507 -1.7303
17439SOL     OW54184   0.763   4.372   8.948  0.3483  0.0243 -0.5313
17439SOL    HW154185   0.741   4.456   8.987  0.9558 -0.3109  0.5894
17439SOL    HW254186   0.713   4.369   8.866 -2.5576 -0.0646  1.1032
17440SOL     OW54187   0.349   6.358   5.508 -0.4092  0.0016  0.3445
17440SOL    HW154188   0.290   6.424   5.470 -0.9495 -2.1324 -2.9842
17440SOL    HW254189   0.290   6.296   5.550 -0.1086  0.2311  1.1244
17441SOL     OW54190   1.576   8.454   5.470 -0.3993 -0.0516 -0.0433
17441SOL    HW154191   1.512   8.414   5.530 -0.1618 -0.8389 -0.3027
17441SOL    HW254192   1.630   8.381   5.441 -0.9993  0.1763 -1.8373
17442SOL     OW54193   0.497   6.374   0.501  0.0299  0.7489  0.2809
17442SOL    HW154194   0.459   6.423   0.573 -0.8664 -0.1378  0.4375
17442SOL    HW254195   0.426   6.318   0.469  0.9079 -0.2078 -0.0886
17443SOL     OW54196   5.224   7.532   2.140 -0.0156 -0.2950 -0.0584
17443SOL    HW154197   5.235   7.535   2.045 -0.6367 -0.3669 -0.1415
17443SOL    HW254198   5.210   7.623   2.165 -2.0464 -0.4708 -0.3443
17444SOL     OW54199   6.201   0.161   3.302  0.0917 -0.1255 -0.4394
17444SOL    HW154200   6.263   0.232   3.316 -0.9953  0.4661  1.9058
17444SOL    HW254201   6.255   0.083   3.291  1.2669  0.8096 -1.5802
17445SOL     OW54202   7.599   2.009   7.771  0.2856  0.4012  0.0642
17445SOL    HW154203   7.670   1.987   7.832  0.2699  2.3534  0.8653
17445SOL    HW254204   7.535   2.056   7.825 -1.6953 -1.3213 -0.6165
17446SOL     OW54205   3.834   4.596   0.298  0.0235 -0.4070  0.0204
17446SOL    HW154206   3.873   4.523   0.346  0.4979  0.1727  0.5326
17446SOL    HW254207   3.875   4.591   0.211  1.8891  0.6587  0.7835
17447SOL     OW54208   8.305   0.343   0.959  0.3418 -0.1497  0.1098
17447SOL    HW154209   8.378   0.400   0.933 -0.2107  0.2668 -0.5465
17447SOL    HW254210   8.258   0.325   0.878 -0.5731 -0.0102  0.5920
17448SOL     OW54211   4.465   4.032   4.040  0.2065  0.3508 -0.1304
17448SOL    HW154212   4.466   4.101   3.974  1.8858 -0.4801 -1.0484
17448SOL    HW254213   4.453   3.952   3.990 -2.2131 -0.0469  0.9659
17449SOL     OW54214   1.738   0.242   8.893 -0.2473 -0.3563 -0.5569
17449SOL    HW154215   1.668   0.307   8.882 -0.5835 -0.4776  0.6642
17449SOL    HW254216   1.762   0.249   8.986  2.3367  0.6596 -1.2178
17450SOL     OW54217   7.959   5.634   0.014 -0.4677 -0.3654  0.7484
17450SOL    HW154218   7.936   5.588  -0.067  0.9619  0.8438 -0.4078
17450SOL    HW254219   7.875   5.647   0.058 -1.1410 -2.2445  0.1531
17451SOL     OW54220   4.987   8.915   1.200  0.0471 -0.5174 -0.4624
17451SOL    HW154221   4.949   8.841   1.248 -2.6471  0.6751 -0.5525
17451SOL    HW254222   4.970   8.894   1.108  1.8020 -1.0382 -0.6977
17452SOL     OW54223   4.710   6.002   2.466  0.1633  0.0202  0.0475
17452SOL    HW154224   4.661   5.920   2.476  1.9505 -1.1965 -0.4631
17452SOL    HW254225   4.644   6.070   2.464 -1.4728 -1.5008 -0.3983
17453SOL     OW54226   1.751   8.120   7.258 -0.0176 -0.0138 -0.0661
17453SOL    HW154227   1.738   8.049   7.195  0.9462  0.5326 -0.9168
17453SOL    HW254228   1.811   8.084   7.323 -0.3526 -0.3077  0.0851
17454SOL     OW54229   8.337   2.157   5.038 -0.4326  0.0216 -0.1811
17454SOL    HW154230   8.430   2.136   5.033  0.0688  1.6878  1.1558
17454SOL    HW254231   8.300   2.121   4.958  0.8859 -2.7953  0.3476
17455SOL     OW54232   0.148   8.997   1.670 -0.4549  0.1436 -0.2126
17455SOL    HW154233   0.122   8.988   1.578  0.1899  1.7599 -0.5858
17455SOL    HW254234   0.194   8.916   1.689 -2.4639 -1.1824 -0.6296
17456SOL     OW54235   3.770   3.008   8.470  0.1432 -0.0003  0.2891
17456SOL    HW154236   3.780   3.092   8.424  1.5512 -0.8850 -1.0897
17456SOL    HW254237   3.783   3.030   8.562 -0.6953  1.4756  0.0954
17457SOL     OW54238   8.936   0.241   4.334  0.1564 -0.5034  0.1375
17457SOL    HW154239   8.841   0.254   4.345  0.0124 -1.4678  0.0946
17457SOL    HW254240   8.972   0.329   4.340 -0.6359 -0.2290  1.2563
17458SOL     OW54241   8.763   2.427   2.803 -0.1215 -0.1874 -0.0676
17458SOL    HW154242   8.856   2.428   2.780  0.3836  1.8779  1.7402
17458SOL    HW254243   8.757   2.483   2.881 -2.8448 -0.4871  0.0251
17459SOL     OW54244   3.213   3.429   1.225 -0.8092  0.0101  0.3841
17459SOL    HW154245   3.269   3.506   1.215 -1.5651  0.3880 -1.4229
17459SOL    HW254246   3.163   3.446   1.305 -0.8929  1.3692  0.0653
17460SOL     OW54247   4.230   0.091   5.810  0.5262 -0.3450 -0.1976
17460SOL    HW154248   4.140   0.102   5.839  0.5604  2.5055 -0.8099
17460SOL    HW254249   4.224   0.089   5.714  1.1523  1.3828 -0.3125
17461SOL     OW54250   8.601   2.281   6.797  0.1002 -0.3553 -0.0568
17461SOL    HW154251   8.597   2.241   6.884 -0.9657  0.6234  0.3692
17461SOL    HW254252   8.678   2.338   6.801 -0.1669 -0.0154  0.3936
17462SOL     OW54253   1.696   3.104   1.429  0.0288  0.0783 -0.5955
17462SOL    HW154254   1.751   3.179   1.406 -1.5119  1.7195  0.7624
17462SOL    HW254255   1.630   3.140   1.489 -1.3479 -2.1863 -0.6339
17463SOL     OW54256   3.112   6.773   8.678  0.2601  0.2386 -0.0720
17463SOL    HW154257   3.039   6.735   8.726  0.3937 -0.0241 -0.0756
17463SOL    HW254258   3.074   6.848   8.632  0.3942  1.2722  1.4348
17464SOL     OW54259   3.616   7.417   3.855  0.5185 -0.2664  0.3682
17464SOL    HW154260   3.549   7.375   3.909 -1.1408  0.8341 -0.7475
17464SOL    HW254261   3.680   7.450   3.918 -0.5846 -0.3358  1.5639
17465SOL     OW54262   5.033   2.599   4.005 -0.9059  0.3723 -0.2676
17465SOL    HW154263   5.023   2.612   3.911  0.2148  2.3662 -0.1575
17465SOL    HW254264   5.064   2.509   4.014 -1.2330  0.0900 -1.7709
17466SOL     OW54265   1.175   8.211   5.453  0.8079 -0.6109 -0.0851
17466SOL    HW154266   1.106   8.145   5.460  0.3061 -0.1621 -0.6039
17466SOL    HW254267   1.256   8.163   5.463  0.5369 -1.6270 -2.1590
17467SOL     OW54268   8.521   2.285   0.676 -0.4627 -0.3827  0.0002
17467SOL    HW154269   8.451   2.338   0.638 -0.2212 -1.1818 -1.6377
17467SOL    HW254270   8.527   2.315   0.767 -2.9731 -0.3222  0.2246
17468SOL     OW54271   5.669   2.079   3.130  0.4709  0.0951  0.0815
17468SOL    HW154272   5.741   2.016   3.140 -1.0135 -1.8422 -0.8791
17468SOL    HW254273   5.612   2.041   3.063  0.0419  3.0255 -1.4158
17469SOL     OW54274   4.610   7.275   0.529 -0.3189 -0.7525 -1.0726
17469SOL    HW154275   4.562   7.200   0.565  0.4623 -0.2931  1.0636
17469SOL    HW254276   4.701   7.261   0.557  0.2757 -0.1123 -2.5644
17470SOL     OW54277   3.468   3.313   7.991 -0.3878 -0.3825  0.5715
17470SOL    HW154278   3.481   3.221   7.969  0.2171 -0.3632  0.8473
17470SOL    HW254279   3.441   3.354   7.908  2.0027 -0.2715 -0.2115
17471SOL     OW54280   5.136   8.884   0.679 -0.2390 -0.0816  0.1206
17471SOL    HW154281   5.196   8.957   0.662 -0.9631  0.4218 -0.3109
17471SOL    HW254282   5.180   8.832   0.746  2.3119 -1.6247 -2.5043
17472SOL     OW54283   7.936   5.858   0.557  0.1903 -0.1036  0.2134
17472SOL    HW154284   7.946   5.769   0.592  0.3111 -0.4543 -0.6774
17472SOL    HW254285   7.997   5.861   0.484 -0.3837  0.4530 -0.2523
17473SOL     OW54286   8.596   7.570   2.809 -0.2025  0.4965  0.5566
17473SOL    HW154287   8.541   7.640   2.844 -0.1840 -0.1317  1.8917
17473SOL    HW254288   8.533   7.507   2.773 -0.3021  0.4136  0.8706
17474SOL     OW54289   4.470   3.245   3.425  0.2637 -0.0175 -0.2768
17474SOL    HW154290   4.466   3.158   3.386 -1.8393  0.1233 -0.4655
17474SOL    HW254291   4.380   3.263   3.454 -0.1386  3.3079 -2.9802
17475SOL     OW54292   5.980   4.931   5.048 -0.3828  0.3505  0.5845
17475SOL    HW154293   5.973   4.836   5.054 -2.0069  0.3520 -0.5814
17475SOL    HW254294   5.983   4.950   4.954 -0.1541  1.4523  0.7982
17476SOL     OW54295   3.288   8.184   4.787  0.4942 -0.1871 -0.3085
17476SOL    HW154296   3.270   8.129   4.863 -1.1356  1.0538  0.2617
17476SOL    HW254297   3.375   8.221   4.804  0.3917 -0.3672  0.6895
17477SOL     OW54298   2.846   1.322   5.015  0.1825  0.3291  0.1130
17477SOL    HW154299   2.813   1.393   5.070 -1.0782  0.9008 -1.3312
17477SOL    HW254300   2.915   1.363   4.962  0.7369  0.0092  0.5743
17478SOL     OW54301   3.000   3.246   7.805 -0.2778 -0.6370 -0.2344
17478SOL    HW154302   3.070   3.181   7.814  0.5515  0.1510 -0.9209
17478SOL    HW254303   2.937   3.222   7.873 -0.5712 -2.8842 -1.2045
17479SOL     OW54304   8.251   3.809   4.071 -0.8192 -0.4100 -0.2019
17479SOL    HW154305   8.268   3.826   4.164 -2.0321 -1.5882  0.2642
17479SOL    HW254306   8.266   3.715   4.061 -1.0911 -0.3616 -1.1152
17480SOL     OW54307   2.391   7.602   6.654 -0.1861 -0.1826 -0.4971
17480SOL    HW154308   2.369   7.680   6.603  0.1236 -0.7379 -1.5075
17480SOL    HW254309   2.455   7.633   6.718  1.4775  0.0396 -2.1670
17481SOL     OW54310   1.150   4.174   6.528  0.4019 -0.8041  0.5015
17481SOL    HW154311   1.096   4.156   6.451 -0.8410 -0.4538  1.2653
17481SOL    HW254312   1.119   4.112   6.594  2.4447 -2.1107  0.3226
17482SOL     OW54313   7.079   5.718   6.277 -0.4138 -0.0771  0.7173
17482SOL    HW154314   7.148   5.698   6.340  0.4071 -1.2873 -0.4959
17482SOL    HW254315   7.028   5.637   6.271 -0.1988 -0.1434 -0.4903
17483SOL     OW54316   8.339   4.490   1.581  0.3246  0.3381  1.1294
17483SOL    HW154317   8.431   4.485   1.604  0.6683 -0.6519 -0.3757
17483SOL    HW254318   8.302   4.406   1.607  0.4638 -0.3388 -0.7384
17484SOL     OW54319   3.084   3.187   6.938 -0.6995 -0.4227 -0.0100
17484SOL    HW154320   3.018   3.207   7.005 -0.1692 -1.5257  0.8809
17484SOL    HW254321   3.032   3.165   6.861 -1.3215  1.0027 -0.0324
17485SOL     OW54322   0.648   0.346   1.239 -0.5163  0.0600  0.3101
17485SOL    HW154323   0.667   0.321   1.149 -0.5343 -0.8402  0.5461
17485SOL    HW254324   0.561   0.385   1.235 -0.0282  1.1532 -0.2443
17486SOL     OW54325   8.568   1.968   6.362  0.3468  0.4058  0.4814
17486SOL    HW154326   8.544   1.876   6.365 -1.2878  0.7890 -0.0735
17486SOL    HW254327   8.603   1.987   6.449 -0.1530 -0.5058  0.8889
17487SOL     OW54328   1.384   2.137   4.159 -0.2006  0.0569 -0.3793
17487SOL    HW154329   1.368   2.148   4.252 -0.1999 -1.2675 -0.1973
17487SOL    HW254330   1.434   2.214   4.133 -0.4285  0.5644  0.6522
17488SOL     OW54331   5.702   6.495   4.284  0.0688 -0.4445 -0.5597
17488SOL    HW154332   5.645   6.504   4.360  1.0816 -0.5319  0.2391
17488SOL    HW254333   5.782   6.543   4.307  0.9277 -1.6069 -0.9944
17489SOL     OW54334   2.853   1.145   5.199 -0.1272  0.3472 -0.0219
17489SOL    HW154335   2.791   1.159   5.270 -1.0023 -0.5460 -0.5889
17489SOL    HW254336   2.832   1.212   5.134  0.5532  1.0467  0.4559
17490SOL     OW54337   7.807   0.908   8.135 -0.2967  0.2167  0.2364
17490SOL    HW154338   7.811   0.961   8.215  1.2870 -0.5228  0.6801
17490SOL    HW254339   7.807   0.818   8.166  1.5635 -0.1176 -0.5778
17491SOL     OW54340   2.324   7.730   5.911  0.0167 -0.3666  0.6810
17491SOL    HW154341   2.368   7.803   5.955 -1.2586  0.1370  1.1803
17491SOL    HW254342   2.367   7.723   5.826  0.3172  0.8177  0.7204
17492SOL     OW54343   5.193   7.700   6.295  0.6148 -0.1961 -0.3940
17492SOL    HW154344   5.241   7.726   6.374 -0.6952  1.2961 -0.0276
17492SOL    HW254345   5.102   7.697   6.323  0.4525 -3.4559 -0.9352
17493SOL     OW54346   2.236   5.446   0.164 -0.2933 -0.6270  0.1110
17493SOL    HW154347   2.299   5.500   0.117  1.0015 -1.4469  0.8646
17493SOL    HW254348   2.206   5.382   0.099 -1.1722  0.4094 -0.5380
17494SOL     OW54349   8.486   1.025   8.175 -0.0288  0.3149 -0.3767
17494SOL    HW154350   8.455   0.965   8.244 -0.7590  0.4499 -0.5827
17494SOL    HW254351   8.499   1.108   8.220 -0.0049  0.2689 -0.2980
17495SOL     OW54352   6.243   3.151   6.910 -0.2163  0.2761  0.0170
17495SOL    HW154353   6.313   3.091   6.884 -2.1811 -1.8686 -0.6684
17495SOL    HW254354   6.282   3.206   6.978  1.7539 -1.6606  0.5553
17496SOL     OW54355   1.363   2.065   3.525 -0.1490 -0.3313 -0.6158
17496SOL    HW154356   1.455   2.078   3.504  0.4316 -1.8028  0.8091
17496SOL    HW254357   1.358   2.076   3.619 -1.3463 -0.7362 -0.6158
17497SOL     OW54358   8.612   6.499   6.446 -0.0413  0.3507 -0.0235
17497SOL    HW154359   8.670   6.571   6.473  0.2447  0.4807 -0.9440
17497SOL    HW254360   8.564   6.534   6.371  0.7886 -0.7131 -1.0946
17498SOL     OW54361   7.085   5.100   7.201 -0.1203  0.2484  0.1277
17498SOL    HW154362   7.169   5.142   7.222  0.6838 -1.6461  0.9037
17498SOL    HW254363   7.108   5.012   7.172 -1.8148 -0.0948 -0.2847
17499SOL     OW54364   3.554   8.509   7.263  0.1227 -0.4096 -0.0008
17499SOL    HW154365   3.462   8.483   7.258  0.1839 -1.0354  1.6032
17499SOL    HW254366   3.599   8.451   7.202 -0.4886 -0.3009 -0.5731
17500SOL     OW54367   4.337   5.509   2.433  0.0401 -0.6681  0.1679
17500SOL    HW154368   4.385   5.439   2.477  1.3564  0.3973  0.4894
17500SOL    HW254369   4.300   5.561   2.504  0.6359  0.0174 -0.0155
17501SOL     OW54370   2.258   6.026   0.351 -0.2944 -0.3947  0.1711
17501SOL    HW154371   2.320   6.026   0.279 -0.8407  1.4705 -0.3418
17501SOL    HW254372   2.212   5.942   0.343 -0.4304 -0.1789 -1.7229
17502SOL     OW54373   8.247   5.149   8.600 -0.0558  0.1237  0.6993
17502SOL    HW154374   8.155   5.152   8.624 -0.4250  1.2463 -0.7224
17502SOL    HW254375   8.279   5.238   8.616  0.9391 -0.3692  1.6534
17503SOL     OW54376   7.037   0.009   3.116  0.0908 -0.5136 -0.0801
17503SOL    HW154377   7.079   0.073   3.058  0.1235 -1.8285 -1.5920
17503SOL    HW254378   6.954   0.049   3.140 -0.0488 -0.0267 -1.2922
17504SOL     OW54379   5.553   6.858   6.775 -0.2654 -0.0881  0.0675
17504SOL    HW154380   5.465   6.841   6.742 -1.0028  0.8887  1.4308
17504SOL    HW254381   5.570   6.949   6.753  1.5587 -0.9536 -2.5920
17505SOL     OW54382   4.242   4.039   5.257 -0.2900  0.3577 -0.3695
17505SOL    HW154383   4.310   4.031   5.191 -1.0400 -0.6849 -1.0510
17505SOL    HW254384   4.160   4.030   5.208 -0.9738  2.2900  0.3123
17506SOL     OW54385   7.744   1.424   4.364  0.1235 -0.1659 -0.2712
17506SOL    HW154386   7.784   1.348   4.405 -1.0646  0.2357  1.7919
17506SOL    HW254387   7.663   1.438   4.414 -0.3169  1.6742 -1.4145
17507SOL     OW54388   7.530   6.198   8.079  0.9404  0.2747  0.2003
17507SOL    HW154389   7.614   6.170   8.043 -0.2168  0.9543 -3.4337
17507SOL    HW254390   7.473   6.206   8.003 -2.1013  1.0422  2.3864
17508SOL     OW54391   0.637   6.099   4.282 -0.0876  0.5288  0.0710
17508SOL    HW154392   0.639   6.024   4.342  1.1685  1.3963  1.1657
17508SOL    HW254393   0.563   6.081   4.224  0.5998 -1.8865 -0.1617
17509SOL     OW54394   4.124   0.308   5.428  0.5527 -0.6937  0.5426
17509SOL    HW154395   4.049   0.288   5.372  1.1586 -1.7860  0.0939
17509SOL    HW254396   4.094   0.382   5.482 -0.1902  0.1244 -0.9239
17510SOL     OW54397   0.586   1.014   5.338  0.4159  0.5588  0.9765
17510SOL    HW154398   0.523   1.001   5.409 -0.0193 -1.8410  0.2492
17510SOL    HW254399   0.564   0.947   5.274  2.2144  1.2165 -0.4292
17511SOL     OW54400   7.532   7.366   1.275 -0.4604 -0.1866 -0.2367
17511SOL    HW154401   7.520   7.461   1.282 -1.5649 -0.3157 -0.2278
17511SOL    HW254402   7.619   7.350   1.312 -0.0456  0.8770 -0.7188
17512SOL     OW54403   3.006   2.363   6.869 -1.0204  0.2255  0.2015
17512SOL    HW154404   3.084   2.398   6.912 -1.1297  0.7723 -0.0382
17512SOL    HW254405   2.935   2.418   6.901 -0.9916  1.1766 -1.3054
17513SOL     OW54406   6.768   6.224   2.993  0.1476 -0.6693 -0.3529
17513SOL    HW154407   6.758   6.308   2.948  1.2782  0.2952  1.0897
17513SOL    HW254408   6.829   6.174   2.939 -1.1543 -0.9271 -1.6500
17514SOL     OW54409   7.616   5.690   6.205  0.1094  0.0589 -0.6756
17514SOL    HW154410   7.701   5.662   6.170  0.0076  2.5917 -3.3720
17514SOL    HW254411   7.553   5.632   6.165  0.3710 -0.0131 -0.9897
17515SOL     OW54412   6.335   5.601   6.083  0.7842 -0.1962  0.4104
17515SOL    HW154413   6.416   5.650   6.093  1.8441 -1.5641 -0.9509
17515SOL    HW254414   6.363   5.512   6.064 -1.0569 -0.8629  0.6256
17516SOL     OW54415   5.818   0.166   2.936 -0.3385  0.3854  0.3135
17516SOL    HW154416   5.755   0.176   3.008 -1.5594 -0.3293 -0.6131
17516SOL    HW254417   5.764   0.146   2.860  1.0261 -0.1082 -0.5551
17517SOL     OW54418   8.882   2.398   4.442  0.0982  0.9316 -0.0173
17517SOL    HW154419   8.824   2.473   4.459  0.6608  1.2106  0.7175
17517SOL    HW254420   8.919   2.416   4.355 -1.6417  0.2584 -0.9578
17518SOL     OW54421   4.550   5.921   3.894  0.0015 -0.1823 -0.3077
17518SOL    HW154422   4.502   5.994   3.855  0.4300  0.1696 -0.1901
17518SOL    HW254423   4.574   5.952   3.981  0.8766 -0.1537 -0.5482
17519SOL     OW54424   7.022   0.582   8.275  0.2868 -0.4728 -0.2295
17519SOL    HW154425   7.031   0.659   8.219  1.2101 -0.8661 -0.6459
17519SOL    HW254426   6.937   0.544   8.252  0.1441  0.0229 -0.5239
17520SOL     OW54427   6.022   4.371   5.195  0.5188  0.0693 -0.6296
17520SOL    HW154428   6.017   4.319   5.115  0.1393 -0.4332 -0.2862
17520SOL    HW254429   6.002   4.309   5.265 -0.0098  0.6920 -0.2201
17521SOL     OW54430   7.282   8.467   4.161 -0.2554 -0.3121  0.6975
17521SOL    HW154431   7.239   8.471   4.246 -0.3205 -2.1402  0.7866
17521SOL    HW254432   7.307   8.375   4.150  0.2304 -0.0236 -1.0263
17522SOL     OW54433   4.935   3.180   0.066  0.3490 -0.0848 -0.2860
17522SOL    HW154434   4.959   3.107   0.008  0.5267  0.7506 -1.3082
17522SOL    HW254435   4.847   3.157   0.097  0.8232 -1.2382  0.2736
17523SOL     OW54436   5.945   4.164   1.663  0.9004  0.0892 -0.0192
17523SOL    HW154437   5.937   4.255   1.635 -0.8199 -0.1473 -0.4206
17523SOL    HW254438   5.957   4.169   1.757 -0.6152  0.7360  0.1775
17524SOL     OW54439   5.541   0.376   7.827  0.8050  0.3456  0.3541
17524SOL    HW154440   5.456   0.417   7.839  0.7455  0.4255 -0.3072
17524SOL    HW254441   5.605   0.443   7.853  0.6813  0.4849  0.2958
17525SOL     OW54442   8.288   2.901   1.193 -0.5881 -0.0681 -0.2613
17525SOL    HW154443   8.263   2.981   1.239  0.9733  0.9861 -1.1288
17525SOL    HW254444   8.325   2.844   1.261  1.5866  1.4144 -0.0928
17526SOL     OW54445   6.459   1.382   1.401  0.1855  0.2712  0.0149
17526SOL    HW154446   6.374   1.362   1.363  0.3222  1.2698 -0.8787
17526SOL    HW254447   6.478   1.308   1.459 -0.5704 -0.7281 -0.9735
17527SOL     OW54448   6.995   4.973   4.096  0.0741  0.1151 -0.6021
17527SOL    HW154449   7.005   5.007   4.007 -1.8531 -0.4296 -1.0788
17527SOL    HW254450   6.992   4.878   4.085  0.9355 -0.0180  0.1983
17528SOL     OW54451   8.403   8.874   5.956  0.3155  0.3540 -0.0064
17528SOL    HW154452   8.404   8.794   5.903  0.4426  1.4634 -1.7863
17528SOL    HW254453   8.440   8.847   6.040  1.3365 -1.2398 -0.8896
17529SOL     OW54454   8.237   0.194   7.405  0.9476 -0.0094  0.0253
17529SOL    HW154455   8.162   0.140   7.430  0.9767 -0.1331 -0.1552
17529SOL    HW254456   8.199   0.263   7.351  0.9298  0.0715  0.1395
17530SOL     OW54457   7.620   6.978   0.732 -0.2807 -0.2313  0.4478
17530SOL    HW154458   7.701   6.930   0.714 -0.2233  0.1026 -0.2508
17530SOL    HW254459   7.636   7.021   0.815  1.9279  3.1514 -1.4734
17531SOL     OW54460   8.596   3.561   5.710 -0.4194  0.1119  0.5389
17531SOL    HW154461   8.670   3.502   5.724 -2.0223 -2.1644  0.0977
17531SOL    HW254462   8.552   3.564   5.796 -2.7487 -3.0229 -0.3323
17532SOL     OW54463   2.663   5.985   6.271  0.1017  1.1053  0.0769
17532SOL    HW154464   2.691   5.996   6.180 -2.3167 -2.2294 -1.2629
17532SOL    HW254465   2.615   6.065   6.291  0.0740  1.6122 -1.8225
17533SOL     OW54466   6.759   8.947   3.698  0.2540  0.2060 -0.0748
17533SOL    HW154467   6.768   8.852   3.690  0.1466  0.0246  1.6402
17533SOL    HW254468   6.772   8.965   3.791  2.0567  2.0875 -0.6036
17534SOL     OW54469   0.527   2.284   3.391  0.0970  0.5335  0.2583
17534SOL    HW154470   0.561   2.226   3.459 -0.5672 -3.1534 -2.2838
17534SOL    HW254471   0.435   2.297   3.416 -0.2812 -1.2086 -0.1044
17535SOL     OW54472   8.691   8.135   8.806  0.4948  0.5869 -0.2850
17535SOL    HW154473   8.596   8.126   8.796  0.6486  0.2331 -1.6099
17535SOL    HW254474   8.724   8.143   8.717  1.6128  1.9331  0.2019
17536SOL     OW54475   3.319   7.163   6.967 -0.4037 -0.2077 -0.1347
17536SOL    HW154476   3.282   7.075   6.971  0.9635 -0.7684  2.4001
17536SOL    HW254477   3.312   7.196   7.056  1.5077  1.1813 -0.4436
17537SOL     OW54478   7.571   1.577   3.839  0.2070  0.2738 -0.1883
17537SOL    HW154479   7.584   1.666   3.806  1.6385  0.3533  0.5066
17537SOL    HW254480   7.551   1.525   3.762 -1.2322  1.2890 -0.5273
17538SOL     OW54481   1.031   7.870   8.330 -0.3826  0.4276  0.7035
17538SOL    HW154482   1.008   7.963   8.328  0.5639  0.6581 -0.7318
17538SOL    HW254483   0.990   7.833   8.252 -0.5232 -0.3211  1.1143
17539SOL     OW54484   5.570   6.934   1.238  0.4725  0.4906 -0.0834
17539SOL    HW154485   5.644   6.990   1.216  0.6792 -0.0381 -0.7509
17539SOL    HW254486   5.531   6.911   1.154 -0.0759  0.2608  0.2296
17540SOL     OW54487   0.673   3.720   5.337 -0.0796  0.3929 -0.3453
17540SOL    HW154488   0.746   3.778   5.314  0.9917  0.5447  2.9111
17540SOL    HW254489   0.597   3.777   5.340  0.2367  0.8515 -0.8612
17541SOL     OW54490   1.556   2.387   6.272 -0.9503 -0.7745  0.1946
17541SOL    HW154491   1.633   2.342   6.308 -2.0850 -2.0754  1.0781
17541SOL    HW254492   1.568   2.479   6.297  0.4835 -0.8823 -0.0094
17542SOL     OW54493   2.956   7.116   6.899 -0.4958 -0.2056  0.8605
17542SOL    HW154494   3.021   7.167   6.948  1.2021  1.0062 -2.3807
17542SOL    HW254495   2.872   7.154   6.926  0.5719  2.9176  0.2292
17543SOL     OW54496   8.267   5.217   0.040  0.4576  0.0588  0.2924
17543SOL    HW154497   8.228   5.160   0.107  0.3444 -0.5737 -0.2994
17543SOL    HW254498   8.344   5.169   0.010 -0.5826 -0.6307 -1.4292
17544SOL     OW54499   4.185   1.017   3.857  0.5167 -0.3514  0.4234
17544SOL    HW154500   4.158   1.081   3.922  1.7742  0.1719  0.4574
17544SOL    HW254501   4.214   0.941   3.908  0.6751 -0.2789  0.4406
17545SOL     OW54502   2.165   2.493   7.556  0.5887  0.3384  0.5571
17545SOL    HW154503   2.226   2.514   7.626  1.2873 -0.7696  0.3057
17545SOL    HW254504   2.214   2.434   7.498 -0.6174 -0.3304  0.1821
17546SOL     OW54505   2.848   0.546   6.628  0.2639  0.2900 -0.2375
17546SOL    HW154506   2.813   0.505   6.549 -0.0322 -0.1866  0.1339
17546SOL    HW254507   2.808   0.633   6.629 -2.1029 -0.7100  0.8999
17547SOL     OW54508   4.464   7.721   5.458 -0.1895  1.0605 -0.2173
17547SOL    HW154509   4.543   7.774   5.451 -0.4900  1.4516 -0.7004
17547SOL    HW254510   4.437   7.704   5.367 -0.5316  0.7349 -0.0611
17548SOL     OW54511   8.435   3.999   4.004 -0.1584  0.0475 -0.1199
17548SOL    HW154512   8.365   3.936   4.023  0.2099 -0.8342 -1.5211
17548SOL    HW254513   8.516   3.950   4.020  0.1359  0.3339 -0.7007
17549SOL     OW54514   3.000   5.649   8.954 -0.6154  0.0555  0.5633
17549SOL    HW154515   2.990   5.613   8.866  1.1178  0.0814  0.3223
17549SOL    HW254516   3.026   5.575   9.008  2.8674  0.7417  0.0824
17550SOL     OW54517   2.350   2.409   8.017 -0.4578 -0.1917 -0.6739
17550SOL    HW154518   2.433   2.455   8.026 -0.3544 -0.6612  1.3319
17550SOL    HW254519   2.374   2.317   8.006 -0.6046 -0.8028  2.9840
17551SOL     OW54520   2.519   0.329   7.091 -0.6508  0.3059 -0.1540
17551SOL    HW154521   2.597   0.384   7.094  1.5172 -2.4539 -1.2365
17551SOL    HW254522   2.458   0.377   7.035  1.3575  1.3769 -1.5619
17552SOL     OW54523   0.402   8.701   6.059  0.2790 -0.3632 -0.2432
17552SOL    HW154524   0.412   8.759   6.134 -0.8144 -1.2628  0.6423
17552SOL    HW254525   0.425   8.754   5.983 -0.9696  1.3358  0.5095
17553SOL     OW54526   1.074   1.610   4.751  0.2371 -0.2701 -0.2814
17553SOL    HW154527   1.062   1.529   4.700 -2.7745 -0.0901 -0.0584
17553SOL    HW254528   1.020   1.675   4.705  1.3481  1.2077  0.4320
17554SOL     OW54529   2.770   0.412   8.937  0.0712  0.4801  0.1241
17554SOL    HW154530   2.759   0.498   8.978 -3.6955 -1.1578  3.1818
17554SOL    HW254531   2.705   0.410   8.867  1.2254  0.5824 -0.9831
17555SOL     OW54532   3.641   5.004   0.452 -0.0202 -0.1218  0.2667
17555SOL    HW154533   3.642   4.995   0.357  0.2353 -0.1097  0.2679
17555SOL    HW254534   3.711   4.945   0.482 -0.6085 -0.7136  0.4952
17556SOL     OW54535   1.081   4.062   1.915  0.7130  0.3107  0.0879
17556SOL    HW154536   1.167   4.071   1.874  0.3546  1.2113 -0.4975
17556SOL    HW254537   1.076   4.134   1.978  1.0755 -0.7930  1.4145
17557SOL     OW54538   8.216   0.208   1.776 -0.5624 -0.2486 -0.2834
17557SOL    HW154539   8.211   0.285   1.833  0.5217  1.0306 -1.8368
17557SOL    HW254540   8.134   0.161   1.792 -0.6972  0.5394  1.6208
17558SOL     OW54541   3.942   3.164   4.213 -0.5133  0.5605  0.1372
17558SOL    HW154542   3.900   3.248   4.197 -2.7280 -0.6263 -0.6328
17558SOL    HW254543   3.968   3.167   4.305 -2.3369  1.3389  0.6612
17559SOL     OW54544   7.560   0.554   6.171 -0.6489 -0.2568  0.2288
17559SOL    HW154545   7.622   0.588   6.236  0.7047 -0.9861 -0.6357
17559SOL    HW254546   7.516   0.632   6.136 -0.9275  0.1941  1.5193
17560SOL     OW54547   3.041   3.586   6.288  0.2856 -0.1089  0.1971
17560SOL    HW154548   3.048   3.491   6.289 -1.8132 -0.3399  2.8007
17560SOL    HW254549   3.094   3.614   6.362  0.6190  0.7544 -0.3530
17561SOL     OW54550   5.430   7.186   6.582 -0.1894 -0.2162 -0.0954
17561SOL    HW154551   5.496   7.168   6.515 -1.5064  0.1076 -1.5329
17561SOL    HW254552   5.473   7.163   6.665  0.8987 -2.3525 -1.1587
17562SOL     OW54553   2.680   8.630   5.631 -0.0771  0.1661 -0.2381
17562SOL    HW154554   2.641   8.615   5.545 -1.4027 -0.0813  0.3806
17562SOL    HW254555   2.605   8.648   5.689  0.7147 -0.4256  1.0194
17563SOL     OW54556   0.528   3.963   8.139 -0.5796 -0.1599 -0.4138
17563SOL    HW154557   0.548   4.054   8.159  0.9262 -0.5291 -0.1722
17563SOL    HW254558   0.433   3.956   8.150 -1.0692  1.8920 -2.5022
17564SOL     OW54559   7.412   4.356   4.240  0.3907 -0.2274 -0.2356
17564SOL    HW154560   7.435   4.437   4.194 -1.2384 -0.0878 -0.8434
17564SOL    HW254561   7.323   4.336   4.212  1.1165 -2.8650 -1.0059
17565SOL     OW54562   8.750   2.059   0.524 -0.0182  0.5272  0.3734
17565SOL    HW154563   8.788   1.975   0.498  1.0561  1.4085 -1.0238
17565SOL    HW254564   8.777   2.120   0.455 -0.5537  2.0806  1.4905
17566SOL     OW54565   2.864   1.345   2.429 -0.6522 -0.4536 -0.0304
17566SOL    HW154566   2.865   1.253   2.402  0.4551 -0.7720  1.0404
17566SOL    HW254567   2.772   1.370   2.424 -0.8837 -1.4219 -0.9734
17567SOL     OW54568   6.859   8.233   8.312 -0.2701  0.5835  0.3233
17567SOL    HW154569   6.913   8.284   8.372  1.3279  0.6017 -1.0801
17567SOL    HW254570   6.859   8.145   8.350  1.7999  0.2803 -0.2677
17568SOL     OW54571   6.200   8.954   3.659 -0.3035 -0.1764 -0.1515
17568SOL    HW154572   6.203   9.040   3.700 -1.4250 -1.2909  2.5529
17568SOL    HW254573   6.289   8.920   3.666 -0.7510 -1.0103  3.2528
17569SOL     OW54574   3.050   5.089   6.435 -0.1738  0.0334 -0.1739
17569SOL    HW154575   3.025   5.009   6.483 -1.1766 -0.6540 -1.7534
17569SOL    HW254576   3.024   5.160   6.494 -1.3537 -0.7802  0.3472
17570SOL     OW54577   2.700   4.202   2.070 -0.0182 -0.1733  0.0987
17570SOL    HW154578   2.765   4.170   2.133  1.3550 -1.2155 -1.7729
17570SOL    HW254579   2.646   4.263   2.121  1.9176  0.1316  1.9308
17571SOL     OW54580   3.342   4.475   4.660  0.2584 -0.4919 -0.3844
17571SOL    HW154581   3.385   4.520   4.587  0.8055 -2.2047 -1.1652
17571SOL    HW254582   3.282   4.541   4.696 -0.0403  0.4192 -2.3868
17572SOL     OW54583   8.309   8.603   5.831  0.3790  0.2492  0.0001
17572SOL    HW154584   8.238   8.560   5.784 -1.3068  0.7889  1.9082
17572SOL    HW254585   8.322   8.550   5.910  1.2189  0.8656  0.2890
17573SOL     OW54586   8.999   2.853   1.680 -0.2194 -0.1712  0.0001
17573SOL    HW154587   9.050   2.913   1.734 -1.1629 -0.1567  0.9149
17573SOL    HW254588   8.991   2.774   1.734  0.6769 -0.9855 -1.0262
17574SOL     OW54589   0.820   3.127   3.814  0.4352  0.3840 -0.0466
17574SOL    HW154590   0.878   3.181   3.868 -0.9407  1.0952  0.7543
17574SOL    HW254591   0.759   3.189   3.774 -0.7457 -0.4926  0.3458
17575SOL     OW54592   0.156   3.114   6.409  0.0405  0.6051  0.1067
17575SOL    HW154593   0.094   3.041   6.406 -1.9508  2.1313  1.6776
17575SOL    HW254594   0.147   3.150   6.497  1.3071  2.4954 -0.4710
17576SOL     OW54595   3.868   1.854   3.156 -0.1050 -0.5747 -0.1991
17576SOL    HW154596   3.892   1.762   3.172  2.8053  0.1874  0.5009
17576SOL    HW254597   3.829   1.884   3.238 -1.3861 -1.2294 -0.5429
17577SOL     OW54598   3.604   3.003   6.269 -0.5792 -0.1959  0.0527
17577SOL    HW154599   3.673   2.980   6.207 -2.0492 -1.7777 -1.0693
17577SOL    HW254600   3.602   2.931   6.332 -0.2574  0.5633  0.9643
17578SOL     OW54601   4.419   1.469   2.286 -0.0301  0.3141 -0.2113
17578SOL    HW154602   4.333   1.431   2.301  0.5278 -1.0950 -0.3213
17578SOL    HW254603   4.460   1.410   2.222  0.6424  1.5261 -0.9336
17579SOL     OW54604   8.176   4.098   1.333  0.0374 -0.2015  0.4399
17579SOL    HW154605   8.156   4.178   1.381 -1.5031 -0.4071  0.1748
17579SOL    HW254606   8.233   4.049   1.392  1.5849  1.3633  0.3337
17580SOL     OW54607   4.223   8.376   8.329 -0.3353  0.1205  0.3733
17580SOL    HW154608   4.291   8.423   8.281 -0.5033  0.0188  0.0322
17580SOL    HW254609   4.146   8.433   8.325 -1.3236 -1.2215 -2.2198
17581SOL     OW54610   5.970   4.259   2.594  0.1049  0.0673 -0.3776
17581SOL    HW154611   5.894   4.214   2.632 -1.4692  0.9757 -2.2672
17581SOL    HW254612   5.997   4.203   2.521  0.6794  0.2053 -0.2763
17582SOL     OW54613   1.320   4.621   5.299 -0.2437 -0.0183  0.1415
17582SOL    HW154614   1.310   4.532   5.265 -0.4708 -0.6067  1.6556
17582SOL    HW254615   1.234   4.643   5.335  0.5428 -0.3496  2.3641
17583SOL     OW54616   4.350   1.638   5.190  0.1575 -0.0702 -0.2828
17583SOL    HW154617   4.316   1.651   5.278 -1.1131 -1.1628 -0.5805
17583SOL    HW254618   4.388   1.550   5.191  0.2214 -0.0521 -0.7987
17584SOL     OW54619   2.343   8.732   0.160 -0.1835  0.0845  0.1949
17584SOL    HW154620   2.381   8.762   0.078 -0.5092  1.1877  0.4368
17584SOL    HW254621   2.407   8.754   0.227 -0.8440  1.1478  0.4931
17585SOL     OW54622   1.447   7.678   8.679  0.0931 -0.1498  0.0141
17585SOL    HW154623   1.376   7.654   8.739  0.3974 -2.2482 -0.3654
17585SOL    HW254624   1.410   7.665   8.592  0.2066  1.1358 -0.2335
17586SOL     OW54625   8.586   1.051   0.009  0.2198 -0.6951  0.3809
17586SOL    HW154626   8.677   1.079   0.017  0.4973 -1.5032  0.0985
17586SOL    HW254627   8.587   0.958   0.032 -0.8979 -0.2222  2.6422
17587SOL     OW54628   6.986   7.873   5.539 -0.4321 -0.0253  0.0918
17587SOL    HW154629   7.051   7.931   5.578 -0.1290 -0.5079  0.3170
17587SOL    HW254630   6.966   7.811   5.609 -1.6771  0.5516  0.2688
17588SOL     OW54631   4.348   5.793   0.637  0.5331 -1.0187 -0.2158
17588SOL    HW154632   4.295   5.778   0.716  0.5602 -1.6826 -0.3132
17588SOL    HW254633   4.289   5.837   0.576  1.1335  1.5316  0.9290
17589SOL     OW54634   2.531   0.886   0.006 -0.1633  0.0722 -0.0010
17589SOL    HW154635   2.492   0.960  -0.040 -1.2249  1.0519  2.3619
17589SOL    HW254636   2.550   0.918   0.094  2.7530 -1.4326  0.0558
17590SOL     OW54637   8.972   6.781   7.952 -0.2711 -0.1512  0.4549
17590SOL    HW154638   8.985   6.699   7.999 -0.7550 -0.4860  0.0153
17590SOL    HW254639   9.043   6.783   7.887  1.3690  1.0582  2.1634
17591SOL     OW54640   7.107   7.744   2.381 -0.3296 -0.3840  0.2862
17591SOL    HW154641   7.142   7.766   2.467  1.0659  1.5016 -0.7024
17591SOL    HW254642   7.174   7.772   2.320 -2.2162  0.4124 -1.5539
17592SOL     OW54643   0.580   0.263   7.436 -0.6133 -0.1652  0.0189
17592SOL    HW154644   0.507   0.323   7.452 -0.8033 -0.4830  0.3461
17592SOL    HW254645   0.576   0.245   7.342  0.7077  1.9702 -0.5270
17593SOL     OW54646   0.168   4.381   5.315  0.2617 -0.1012  0.3707
17593SOL    HW154647   0.106   4.308   5.307  2.3240 -1.8604 -0.8410
17593SOL    HW254648   0.186   4.408   5.225  2.2378 -0.6233  0.5435
17594SOL     OW54649   1.361   3.196   2.327  0.0151 -0.7550  0.0881
17594SOL    HW154650   1.324   3.169   2.410 -1.0277 -0.2683 -0.2017
17594SOL    HW254651   1.319   3.139   2.262  0.4905 -0.8380 -0.1518
17595SOL     OW54652   2.733   8.694   1.957 -0.1424 -0.1942 -0.2070
17595SOL    HW154653   2.695   8.781   1.971 -0.4672 -0.5710  1.4839
17595SOL    HW254654   2.800   8.686   2.025  0.0271 -1.1834 -0.4754
17596SOL     OW54655   4.214   4.904   6.016 -0.6245 -0.3093  0.3759
17596SOL    HW154656   4.142   4.849   6.049  1.8111 -1.8591  3.7517
17596SOL    HW254657   4.213   4.981   6.072  1.3518 -1.2446  1.8411
17597SOL     OW54658   5.813   7.436   5.480  0.2531  0.3769  0.3229
17597SOL    HW154659   5.880   7.470   5.539 -0.7524  2.6449  0.2546
17597SOL    HW254660   5.863   7.405   5.404  1.2461  2.8840 -0.1517
17598SOL     OW54661   8.640   0.505   5.048  0.0840 -0.3655 -0.0723
17598SOL    HW154662   8.684   0.490   4.965 -0.7391 -0.7890 -0.4392
17598SOL    HW254663   8.656   0.598   5.067 -1.0307  0.1561 -1.4914
17599SOL     OW54664   2.631   5.497   8.012 -0.0721 -0.3129 -0.6129
17599SOL    HW154665   2.557   5.541   8.053 -1.6225 -2.8222 -0.4703
17599SOL    HW254666   2.703   5.508   8.074 -0.9355  0.3793  0.3022
17600SOL     OW54667   4.016   8.658   5.247  0.0005 -0.1190 -0.5820
17600SOL    HW154668   3.966   8.577   5.232  0.8096 -0.4961 -1.3010
17600SOL    HW254669   4.106   8.636   5.224  0.3453  0.8214 -0.1938
17601SOL     OW54670   0.740   8.280   5.166 -0.2502 -0.3314 -0.0807
17601SOL    HW154671   0.773   8.322   5.087  0.1801  0.2652  0.4040
17601SOL    HW254672   0.646   8.296   5.165  0.1328  2.5960  1.1708
17602SOL     OW54673   3.134   4.595   6.511  0.7798 -0.6171 -0.2715
17602SOL    HW154674   3.213   4.546   6.490  1.1493  0.3001 -1.0654
17602SOL    HW254675   3.105   4.631   6.428  0.0685 -0.1373  0.1755
17603SOL     OW54676   6.777   4.254   4.016  0.7977  0.6555 -0.5068
17603SOL    HW154677   6.797   4.313   4.088  1.3513  1.2206 -1.1092
17603SOL    HW254678   6.690   4.281   3.986  0.7252  0.6603 -0.2950
17604SOL     OW54679   8.456   6.921   4.025 -0.0374 -0.2464  0.7223
17604SOL    HW154680   8.426   7.009   4.005 -1.6780 -1.0791 -0.7646
17604SOL    HW254681   8.433   6.869   3.948  0.1245 -2.1335  1.8748
17605SOL     OW54682   3.603   0.304   8.691 -0.0227  0.1199  0.4734
17605SOL    HW154683   3.623   0.344   8.606  0.4721 -0.3660  0.3559
17605SOL    HW254684   3.624   0.373   8.754  2.4979 -0.4686  0.3801
17606SOL     OW54685   2.817   6.321   5.298  0.0200  0.2437 -0.0577
17606SOL    HW154686   2.784   6.401   5.257  1.0828  1.2140  0.8820
17606SOL    HW254687   2.830   6.346   5.390  0.1463 -1.0939  0.3016
17607SOL     OW54688   7.395   7.489   1.523  0.4008  0.1215 -0.4571
17607SOL    HW154689   7.313   7.510   1.477 -0.9211 -1.4382  1.0513
17607SOL    HW254690   7.368   7.469   1.612  2.5107 -0.0057  0.1949
17608SOL     OW54691   8.398   3.416   4.672 -0.3537 -0.0839 -0.2320
17608SOL    HW154692   8.366   3.475   4.740  0.9380  0.4763 -0.0814
17608SOL    HW254693   8.324   3.407   4.612 -1.4514 -0.4336  1.1258
17609SOL     OW54694   6.271   8.606   6.390 -0.9863  0.2808 -0.1762
17609SOL    HW154695   6.258   8.699   6.405  0.6688  0.5725 -0.3303
17609SOL    HW254696   6.363   8.590   6.413 -1.3847 -1.4320  0.4051
17610SOL     OW54697   7.625   4.609   8.873  0.0775  0.8818 -0.6517
17610SOL    HW154698   7.601   4.634   8.963  1.1304 -0.4196  0.0200
17610SOL    HW254699   7.591   4.681   8.819 -0.9522  1.4907  0.7269
17611SOL     OW54700   2.682   8.003   5.294  0.4581  0.2685  0.1607
17611SOL    HW154701   2.696   8.096   5.277  0.1857  0.1804 -0.5754
17611SOL    HW254702   2.600   7.983   5.249  1.5442 -0.7935 -1.4361
17612SOL     OW54703   0.800   4.266   3.501 -0.4420 -0.1879  0.1446
17612SOL    HW154704   0.818   4.193   3.441  1.1190 -0.1734  0.5551
17612SOL    HW254705   0.823   4.344   3.450  1.0733 -0.1865  0.8011
17613SOL     OW54706   5.884   4.895   6.746  0.4643  0.4039  0.6360
17613SOL    HW154707   5.912   4.903   6.838 -0.2846  0.1237  0.8932
17613SOL    HW254708   5.826   4.819   6.745  2.0615 -0.8608 -0.4721
17614SOL     OW54709   6.565   1.431   0.243  0.3321  0.4177  0.2405
17614SOL    HW154710   6.578   1.419   0.149  1.5766  2.4415  0.0892
17614SOL    HW254711   6.552   1.343   0.277  1.6816 -0.5583 -1.5845
17615SOL     OW54712   4.319   6.186   2.172  0.2011 -0.1349 -0.0922
17615SOL    HW154713   4.261   6.232   2.232 -0.5272  0.0810 -0.9313
17615SOL    HW254714   4.271   6.107   2.147  0.0817  0.2278 -1.0860
17616SOL     OW54715   6.446   7.147   8.984  0.0095  0.0802 -0.5302
17616SOL    HW154716   6.434   7.077   8.920 -0.5796  0.3811 -0.7558
17616SOL    HW254717   6.535   7.136   9.015 -0.6511 -1.9641  0.8448
17617SOL     OW54718   1.651   4.983   5.419  0.1416  0.0763 -0.2932
17617SOL    HW154719   1.618   4.915   5.360 -1.1353  1.5511 -1.3473
17617SOL    HW254720   1.746   4.982   5.405  0.3431 -2.3287  0.7028
17618SOL     OW54721   1.836   8.342   5.456 -0.1426  0.1042  0.3421
17618SOL    HW154722   1.847   8.251   5.484 -0.7173 -0.3771 -0.9445
17618SOL    HW254723   1.885   8.347   5.374 -0.6587  0.7907  0.0787
17619SOL     OW54724   4.049   0.179   0.022 -0.2272  0.1654  0.0139
17619SOL    HW154725   4.018   0.248   0.080  1.0725  0.2760  0.6172
17619SOL    HW254726   4.064   0.222  -0.062  0.4976  0.6236  0.3644
17620SOL     OW54727   0.832   6.751   5.478 -0.4970  0.6516  0.4341
17620SOL    HW154728   0.790   6.698   5.411  1.0100 -2.9613  2.0356
17620SOL    HW254729   0.901   6.799   5.432  0.5498 -1.7937 -0.7216
17621SOL     OW54730   6.660   6.048   7.937 -0.1775 -0.7833 -0.5064
17621SOL    HW154731   6.697   6.081   7.855 -0.0710 -1.0617 -0.5697
17621SOL    HW254732   6.586   6.107   7.955  0.4319 -0.0686 -0.2505
17622SOL     OW54733   5.021   6.997   7.299 -0.6706  0.3714  0.1356
17622SOL    HW154734   4.946   6.942   7.321 -0.6455  0.6905  1.0995
17622SOL    HW254735   5.037   7.048   7.379  0.7198  0.1310  0.0401
17623SOL     OW54736   4.010   8.370   4.033  0.6031  0.3375  0.1638
17623SOL    HW154737   4.076   8.354   3.966  1.8156  1.9194  0.9304
17623SOL    HW254738   3.979   8.283   4.058  1.6716 -0.3766 -0.9285
17624SOL     OW54739   6.663   6.036   4.310  0.1903  0.2017 -0.2767
17624SOL    HW154740   6.638   6.121   4.346  0.2556  0.5955 -1.1367
17624SOL    HW254741   6.722   5.999   4.376  0.1749  0.8275  0.1029
17625SOL     OW54742   8.934   5.514   8.701  0.0283  0.2228 -0.0630
17625SOL    HW154743   9.010   5.460   8.678  0.3306  1.4488 -2.1845
17625SOL    HW254744   8.894   5.468   8.775 -0.4574 -3.6587 -2.4268
17626SOL     OW54745   4.882   6.550   2.076  0.2246  0.2284  0.0136
17626SOL    HW154746   4.849   6.523   1.990 -3.1968  0.4556  1.1380
17626SOL    HW254747   4.842   6.636   2.091  0.8128  0.2160  1.8320
17627SOL     OW54748   6.532   6.797   1.821 -0.2369 -0.6155 -0.5387
17627SOL    HW154749   6.548   6.840   1.737  0.1255 -0.6630 -0.4930
17627SOL    HW254750   6.438   6.811   1.837  0.0710  1.0545 -0.0261
17628SOL     OW54751   7.631   8.535   2.497 -0.4805  0.1101  0.2316
17628SOL    HW154752   7.569   8.594   2.453  0.6859  0.7975 -0.5445
17628SOL    HW254753   7.607   8.448   2.465  0.4507  0.6078 -1.9993
17629SOL     OW54754   2.896   7.728   7.357 -0.0199  0.2752 -0.3036
17629SOL    HW154755   2.936   7.774   7.283 -1.9587  2.1402 -0.3026
17629SOL    HW254756   2.834   7.791   7.393 -0.8274 -1.4356  1.4602
17630SOL     OW54757   2.904   6.105   5.482  0.3556  0.3604 -0.6372
17630SOL    HW154758   2.824   6.058   5.458  1.9193 -1.5289 -2.5171
17630SOL    HW254759   2.911   6.175   5.417 -0.0657  0.9196 -0.0911
17631SOL     OW54760   8.997   7.704   0.220  0.7838 -0.7237 -0.3259
17631SOL    HW154761   8.939   7.732   0.149  1.9609  1.0622 -0.6569
17631SOL    HW254762   8.939   7.701   0.297 -0.1432 -0.9088 -1.0066
17632SOL     OW54763   7.444   6.179   0.248 -0.4221 -0.3567 -0.0772
17632SOL    HW154764   7.403   6.100   0.283 -1.0044 -0.3315 -0.6798
17632SOL    HW254765   7.466   6.156   0.157 -2.2305  0.7402 -0.8322
17633SOL     OW54766   7.313   3.906   5.196  0.1881  0.1309  0.1743
17633SOL    HW154767   7.266   3.986   5.173  1.5789  0.6085 -1.1597
17633SOL    HW254768   7.370   3.931   5.269 -0.1242  0.0811  0.4372
17634SOL     OW54769   7.040   1.977   6.229  0.1346  0.3488  0.6751
17634SOL    HW154770   6.991   1.895   6.217 -0.9645  0.8694  1.4150
17634SOL    HW254771   7.100   1.980   6.155 -2.1223  0.4891 -1.2648
17635SOL     OW54772   7.604   6.789   3.529 -0.5232 -0.7067  0.1098
17635SOL    HW154773   7.636   6.849   3.597  0.1939 -0.2609 -0.6023
17635SOL    HW254774   7.539   6.840   3.481  1.6303  0.3450 -1.8828
17636SOL     OW54775   4.186   1.891   3.796  0.1437  0.4888  0.1850
17636SOL    HW154776   4.236   1.894   3.878 -1.2648  0.2386  1.0883
17636SOL    HW254777   4.231   1.952   3.738  0.8877  1.0372  1.3085
17637SOL     OW54778   2.563   7.182   1.379  0.0654  0.5031 -0.4964
17637SOL    HW154779   2.479   7.221   1.357 -0.7926 -0.4890  0.8817
17637SOL    HW254780   2.628   7.241   1.340 -1.2398  1.8321 -0.7273
17638SOL     OW54781   4.198   6.840   8.259 -0.1371 -0.2180  0.4247
17638SOL    HW154782   4.253   6.765   8.238 -0.9849 -0.7062 -0.0727
17638SOL    HW254783   4.170   6.825   8.350 -0.1408 -0.3981  0.3929
17639SOL     OW54784   1.286   8.783   8.335  0.3523  0.0136  0.0812
17639SOL    HW154785   1.361   8.773   8.275  0.0191 -0.9784 -0.1736
17639SOL    HW254786   1.324   8.778   8.422  0.4556 -1.6085 -0.0397
17640SOL     OW54787   5.829   2.144   4.075  0.0571  0.1650  0.8933
17640SOL    HW154788   5.840   2.060   4.031 -0.4032  0.0841  0.9398
17640SOL    HW254789   5.775   2.126   4.151 -0.2983  0.5571  0.7381
17641SOL     OW54790   3.671   8.273   8.690  0.8619 -0.2043  0.3347
17641SOL    HW154791   3.749   8.296   8.741  0.7995  1.8092 -0.3913
17641SOL    HW254792   3.599   8.313   8.739  0.3894 -1.1159  0.4090
17642SOL     OW54793   3.150   6.161   6.968 -0.0357 -0.2477 -0.8272
17642SOL    HW154794   3.091   6.099   6.926  0.8407 -1.4036 -0.3940
17642SOL    HW254795   3.237   6.139   6.934  0.2738  0.9265 -0.8681
17643SOL     OW54796   7.982   8.728   2.215 -1.1057 -0.2438  0.7668
17643SOL    HW154797   8.063   8.728   2.267 -1.7242  2.2493  1.8725
17643SOL    HW254798   8.012   8.726   2.124  0.2436  0.6443  1.1530
17644SOL     OW54799   2.520   6.366   1.164  0.9392 -0.5874  0.2600
17644SOL    HW154800   2.605   6.412   1.164  0.3250  0.6044 -0.1964
17644SOL    HW254801   2.540   6.278   1.196  2.5572 -0.7025 -0.9031
17645SOL     OW54802   8.879   7.312   0.557 -0.3827 -0.1487 -0.1911
17645SOL    HW154803   8.869   7.395   0.603 -0.2164 -0.6614  0.8018
17645SOL    HW254804   8.901   7.336   0.467  1.1673  0.8727  0.4247
17646SOL     OW54805   7.140   1.284   3.170  0.2799 -0.3289 -0.9523
17646SOL    HW154806   7.084   1.351   3.207 -0.5585 -1.7581  0.4613
17646SOL    HW254807   7.187   1.247   3.244 -0.6217 -2.5116 -1.3824
17647SOL     OW54808   2.258   5.241   8.601 -0.2114  0.8010 -0.2760
17647SOL    HW154809   2.271   5.331   8.572  1.7996  0.1647 -1.6049
17647SOL    HW254810   2.169   5.219   8.575 -0.3534  2.0770 -0.9226
17648SOL     OW54811   7.673   7.864   3.639  0.2084  0.2495 -0.6759
17648SOL    HW154812   7.760   7.826   3.653 -0.5303 -0.9897  0.8803
17648SOL    HW254813   7.657   7.915   3.718 -1.1891 -1.0250 -0.0908
17649SOL     OW54814   6.099   3.127   1.808 -0.2954  1.1116  0.1802
17649SOL    HW154815   6.020   3.073   1.810  0.3191  0.1545 -0.5453
17649SOL    HW254816   6.084   3.194   1.875 -1.1746  0.1857  0.9387
17650SOL     OW54817   7.075   6.919   4.941  0.1798 -0.0141  0.2573
17650SOL    HW154818   7.096   6.975   4.866 -1.8949 -0.4099 -0.6921
17650SOL    HW254819   7.006   6.861   4.908 -0.6364 -0.3388  2.4310
17651SOL     OW54820   3.205   2.261   0.448  0.1660  0.0034  0.5439
17651SOL    HW154821   3.271   2.306   0.396  0.4224  0.7752  1.5192
17651SOL    HW254822   3.223   2.168   0.435  0.8356  0.2003  0.0431
17652SOL     OW54823   6.546   1.776   2.414  0.2377  0.6519 -0.0828
17652SOL    HW154824   6.487   1.851   2.426 -1.4702 -0.8374  1.3200
17652SOL    HW254825   6.583   1.761   2.501  0.3211 -0.3064 -0.2723
17653SOL     OW54826   7.471   7.534   6.120  0.1711  0.1841 -0.7001
17653SOL    HW154827   7.390   7.586   6.116 -0.0642  0.0555  1.4519
17653SOL    HW254828   7.443   7.445   6.096 -0.6713 -0.1658  1.3812
17654SOL     OW54829   8.313   8.146   2.942 -0.4454 -0.1432 -0.2372
17654SOL    HW154830   8.359   8.098   3.011 -0.8759 -0.5031 -0.1928
17654SOL    HW254831   8.244   8.193   2.987 -0.0087  0.5474 -0.2802
17655SOL     OW54832   8.752   4.412   6.897 -0.0176 -0.0772  0.3301
17655SOL    HW154833   8.840   4.378   6.878  0.4668  1.5970 -0.7217
17655SOL    HW254834   8.703   4.395   6.817 -0.4916 -0.4957  0.7087
17656SOL     OW54835   7.314   4.620   1.559 -0.0944  0.3556  0.3053
17656SOL    HW154836   7.330   4.647   1.650  0.6859 -0.6290  0.4734
17656SOL    HW254837   7.401   4.599   1.525 -0.6626 -2.3464  0.3234
17657SOL     OW54838   7.794   6.212   2.390 -0.3066 -0.4064  0.3749
17657SOL    HW154839   7.723   6.193   2.451  0.9960 -1.2794  1.6765
17657SOL    HW254840   7.770   6.163   2.311 -1.1811 -0.6275  0.7623
17658SOL     OW54841   3.260   7.152   0.333  0.0737  0.0699  0.3706
17658SOL    HW154842   3.167   7.140   0.313 -0.7093  1.5637  2.7243
17658SOL    HW254843   3.273   7.104   0.415  1.8632 -1.5627 -0.7823
17659SOL     OW54844   4.728   4.729   4.412 -0.4324 -0.3591 -0.1490
17659SOL    HW154845   4.786   4.684   4.473  1.2911 -0.4617 -1.7850
17659SOL    HW254846   4.780   4.803   4.379 -2.0415  0.9026  0.0042
17660SOL     OW54847   4.976   8.695   0.492 -0.0301 -0.6148 -0.2612
17660SOL    HW154848   4.993   8.756   0.563  0.5091 -1.3537  0.2674
17660SOL    HW254849   4.887   8.714   0.464  0.2744  0.6965 -0.4053
17661SOL     OW54850   3.692   6.682   7.126 -0.1273  0.1762  0.4205
17661SOL    HW154851   3.734   6.766   7.110  0.6746 -0.2771  0.0557
17661SOL    HW254852   3.733   6.649   7.206 -0.9645  0.4506  0.9774
17662SOL     OW54853   2.943   2.220   6.356  0.5002  0.1556 -0.4875
17662SOL    HW154854   3.019   2.227   6.299  0.5115  0.4369 -0.4406
17662SOL    HW254855   2.869   2.213   6.295  0.4082  1.4884 -0.5691
17663SOL     OW54856   0.780   6.802   0.811  0.0640 -0.9854  0.4031
17663SOL    HW154857   0.834   6.832   0.885  1.2993  0.9252 -1.1634
17663SOL    HW254858   0.843   6.789   0.740 -1.3317 -0.4755 -0.9754
17664SOL     OW54859   7.431   3.860   3.888  0.0338  0.7471  0.5808
17664SOL    HW154860   7.522   3.836   3.907  0.2162  0.2530 -0.8326
17664SOL    HW254861   7.401   3.793   3.827 -1.2873  0.9198  1.0144
17665SOL     OW54862   7.134   2.412   7.969 -0.0794  0.6212 -0.0749
17665SOL    HW154863   7.101   2.499   7.991 -0.6631  0.1783  0.8697
17665SOL    HW254864   7.195   2.427   7.896  0.1080  1.8581  0.3118
17666SOL     OW54865   8.602   7.112   0.227 -0.2888 -0.2559 -0.4237
17666SOL    HW154866   8.559   7.159   0.298  1.1211  1.0484 -0.3854
17666SOL    HW254867   8.554   7.030   0.220 -1.2789  0.1495  1.1537
17667SOL     OW54868   5.109   0.347   0.026 -0.0189  0.0758  0.0405
17667SOL    HW154869   5.139   0.258   0.008 -0.4684 -0.4423  1.7129
17667SOL    HW254870   5.185   0.402   0.007  1.1186 -0.9348  1.4613
17668SOL     OW54871   3.944   8.883   7.294  1.0720 -0.6445 -0.2202
17668SOL    HW154872   4.001   8.811   7.321  0.7706 -0.4672  0.9194
17668SOL    HW254873   3.856   8.845   7.297  0.7709  0.0888  1.6465
17669SOL     OW54874   8.292   4.745   8.922  0.4931  0.3267  0.4997
17669SOL    HW154875   8.239   4.730   8.843 -1.1583 -1.0978  1.7980
17669SOL    HW254876   8.382   4.741   8.891 -0.0932 -1.0481 -1.2014
17670SOL     OW54877   2.626   1.582   4.835  0.0930  0.2399  0.1802
17670SOL    HW154878   2.648   1.508   4.778  1.0656  1.1907 -0.7186
17670SOL    HW254879   2.567   1.636   4.782  0.8662  1.0391  0.1215
17671SOL     OW54880   2.689   8.590   5.309 -0.5949 -0.2611  0.1374
17671SOL    HW154881   2.689   8.620   5.218 -1.9975 -0.6450 -0.0135
17671SOL    HW254882   2.632   8.513   5.309  1.0604 -1.5314  0.9741
17672SOL     OW54883   7.945   6.904   0.733 -0.2827  0.0253 -0.6325
17672SOL    HW154884   8.033   6.901   0.769  0.1699  0.0645 -1.7082
17672SOL    HW254885   7.943   6.983   0.679 -0.1774 -1.2223 -2.5615
17673SOL     OW54886   6.984   4.752   5.145  0.0774 -0.2125 -0.8423
17673SOL    HW154887   6.911   4.694   5.127 -1.3076 -0.0495  3.1452
17673SOL    HW254888   6.945   4.839   5.154  0.9236  0.0917  0.1773
17674SOL     OW54889   4.453   4.842   4.430  0.5838  0.2943  0.4780
17674SOL    HW154890   4.540   4.812   4.403  0.0685  1.3128 -2.7785
17674SOL    HW254891   4.396   4.767   4.416  0.4512  0.5769 -0.5445
17675SOL     OW54892   5.578   1.753   2.475 -0.2886  0.2379  0.3287
17675SOL    HW154893   5.598   1.672   2.522  1.6857 -1.3707 -2.9307
17675SOL    HW254894   5.535   1.724   2.394 -0.8519  2.5861 -0.2981
17676SOL     OW54895   5.330   7.482   8.528  0.3253 -0.0753 -0.4711
17676SOL    HW154896   5.358   7.390   8.531 -0.0760 -0.1713  0.6220
17676SOL    HW254897   5.295   7.500   8.615 -2.9554  0.0616 -1.6986
17677SOL     OW54898   6.244   7.972   5.509  0.2381 -0.1227  0.2678
17677SOL    HW154899   6.335   7.996   5.492  0.0356 -1.2800 -3.1936
17677SOL    HW254900   6.200   8.055   5.528  1.5648  0.7671 -0.4524
17678SOL     OW54901   0.032   7.134   5.768 -0.2432  0.1224 -0.3967
17678SOL    HW154902   0.074   7.052   5.744 -0.8831  0.1297 -1.6312
17678SOL    HW254903   0.081   7.165   5.845  0.1314 -1.2896 -0.0467
17679SOL     OW54904   7.476   2.998   2.068 -0.0009  0.4960 -0.1907
17679SOL    HW154905   7.449   3.025   1.980  2.0748  1.9630 -0.4379
17679SOL    HW254906   7.545   2.933   2.054 -0.1609  0.1917  0.3780
17680SOL     OW54907   1.655   4.428   0.986  0.6956  0.0901 -0.2330
17680SOL    HW154908   1.604   4.432   1.067 -0.5978  1.9751 -1.0752
17680SOL    HW254909   1.744   4.451   1.013  0.4022  0.1645  0.7202
17681SOL     OW54910   4.387   2.103   4.167  0.1617  0.2638 -0.3064
17681SOL    HW154911   4.304   2.136   4.203 -0.1828  0.7999 -1.5407
17681SOL    HW254912   4.454   2.148   4.219 -0.2847 -0.7306  1.2061
17682SOL     OW54913   4.743   6.167   5.209  0.0217  0.3514 -0.1816
17682SOL    HW154914   4.691   6.088   5.221  0.4916 -0.0041 -0.4378
17682SOL    HW254915   4.679   6.238   5.205 -0.3012  0.3577  2.8068
17683SOL     OW54916   8.023   5.223   6.064 -0.3966 -1.0413 -0.1065
17683SOL    HW154917   7.966   5.190   5.994  0.1228 -0.7784 -0.6630
17683SOL    HW254918   8.095   5.266   6.018 -0.3797 -0.2917  0.6004
17684SOL     OW54919   3.673   7.845   4.690  0.2757 -0.5729  0.0435
17684SOL    HW154920   3.678   7.750   4.701 -2.1601 -0.7554  0.1239
17684SOL    HW254921   3.727   7.863   4.613  0.4402 -2.0722 -0.2192
17685SOL     OW54922   8.871   8.880   1.490 -0.3188  0.1966 -0.0101
17685SOL    HW154923   8.816   8.916   1.421  0.9076 -0.6827 -1.4868
17685SOL    HW254924   8.856   8.785   1.487  2.1635 -0.2324 -1.3326
17686SOL     OW54925   2.005   7.414   3.127  0.3655 -0.4735 -0.3479
17686SOL    HW154926   2.075   7.472   3.098 -0.1921  0.1118 -0.5439
17686SOL    HW254927   1.944   7.470   3.176  0.8847 -1.2908  1.3230
17687SOL     OW54928   1.143   3.271   5.902  0.0373 -0.5669 -0.1679
17687SOL    HW154929   1.143   3.352   5.953  0.3199 -1.4480  1.3203
17687SOL    HW254930   1.222   3.277   5.848  0.2698 -0.0133  0.2186
17688SOL     OW54931   3.745   4.826   8.505 -0.7690 -0.8485 -0.3812
17688SOL    HW154932   3.654   4.847   8.482 -0.9991  0.0204  1.2003
17688SOL    HW254933   3.745   4.731   8.518 -1.5697 -0.8034  0.0238
17689SOL     OW54934   7.173   8.723   8.404 -0.5233  0.4278 -0.6007
17689SOL    HW154935   7.221   8.783   8.347  2.6411 -0.7380  0.5830
17689SOL    HW254936   7.082   8.731   8.377  0.5136  1.4516 -4.3811
17690SOL     OW54937   0.228   2.930   7.745 -0.0238 -0.4237 -1.1964
17690SOL    HW154938   0.150   2.893   7.786 -1.8090  3.0003 -1.0834
17690SOL    HW254939   0.223   2.902   7.654 -3.3247  2.1067 -2.0205
17691SOL     OW54940   7.250   3.128   1.562 -0.1822  0.2793  0.2800
17691SOL    HW154941   7.233   3.194   1.630  0.5544  0.3729  0.3879
17691SOL    HW254942   7.176   3.135   1.502  0.6996  2.4281 -0.6571
17692SOL     OW54943   1.734   6.479   8.342 -0.7872 -0.6426  0.4450
17692SOL    HW154944   1.717   6.441   8.256  0.3633 -0.3768  0.0835
17692SOL    HW254945   1.802   6.423   8.380 -0.1831  0.1329  0.5384
17693SOL     OW54946   3.934   0.302   8.772 -0.0356 -0.4175  0.4831
17693SOL    HW154947   3.965   0.391   8.755 -3.3882  1.3617  2.6276
17693SOL    HW254948   3.901   0.272   8.687  0.3514  0.7394 -0.0945
17694SOL     OW54949   7.247   7.818   2.609  0.1301  0.0181 -0.6293
17694SOL    HW154950   7.207   7.898   2.642 -1.1154 -0.9433  0.3213
17694SOL    HW254951   7.270   7.768   2.688  0.3390 -0.8111 -1.2024
17695SOL     OW54952   2.513   1.523   2.912  0.3193 -0.4414  0.5393
17695SOL    HW154953   2.591   1.575   2.929 -0.2645  0.4012  0.7003
17695SOL    HW254954   2.531   1.479   2.829 -0.3579  2.4189 -1.2679
17696SOL     OW54955   2.136   5.542   0.396 -0.7604  0.3976  0.0410
17696SOL    HW154956   2.166   5.526   0.307  0.3071  1.5765  0.1685
17696SOL    HW254957   2.121   5.454   0.432  0.9545 -0.1920 -0.5900
17697SOL     OW54958   0.301   3.686   5.939 -0.3109 -0.0802 -0.0143
17697SOL    HW154959   0.290   3.656   6.029  1.0967  0.1639  0.2629
17697SOL    HW254960   0.271   3.777   5.940  0.0421  0.0369  0.3045
17698SOL     OW54961   6.793   5.101   0.443  0.4415  0.2133  0.0882
17698SOL    HW154962   6.756   5.185   0.470  2.0149  1.3149 -1.0318
17698SOL    HW254963   6.879   5.097   0.485  1.1403  0.0088 -1.3061
17699SOL     OW54964   7.696   5.780   1.552 -0.1377  0.1953  0.7643
17699SOL    HW154965   7.618   5.790   1.607 -0.7790 -1.3005  0.1771
17699SOL    HW254966   7.662   5.785   1.463  0.5472  0.2523  0.5047
17700SOL     OW54967   2.609   6.258   1.821 -0.4448 -0.3007 -0.0975
17700SOL    HW154968   2.690   6.261   1.770 -1.3078 -0.7115 -1.5285
17700SOL    HW254969   2.634   6.216   1.904  0.7195 -0.7397 -0.6545
17701SOL     OW54970   5.987   6.938   4.984  0.3510 -0.3704  0.4581
17701SOL    HW154971   5.953   7.021   4.953  1.3034  0.1057  0.6487
17701SOL    HW254972   5.923   6.873   4.954  0.0878  0.3165 -0.5279
17702SOL     OW54973   8.258   7.501   0.454 -0.0842  0.4329  0.2475
17702SOL    HW154974   8.273   7.449   0.375 -1.3768 -1.0703  0.9300
17702SOL    HW254975   8.338   7.490   0.505  0.6128  1.1103 -0.6703
17703SOL     OW54976   3.029   8.088   7.647  0.3984 -0.6323 -0.0843
17703SOL    HW154977   2.965   8.034   7.692  0.3092  0.5077  1.2073
17703SOL    HW254978   3.046   8.161   7.707  2.8883 -0.8881 -0.3676
17704SOL     OW54979   1.527   1.726   3.468 -0.4122  0.0861 -0.2728
17704SOL    HW154980   1.439   1.749   3.497 -0.4445 -0.0355 -0.2756
17704SOL    HW254981   1.553   1.799   3.411 -0.7001 -0.1119 -0.6632
17705SOL     OW54982   3.024   3.253   8.927 -0.5071  0.5803 -0.0391
17705SOL    HW154983   2.962   3.183   8.908 -0.5362  0.4463  0.5363
17705SOL    HW254984   3.040   3.294   8.842 -1.5085  0.7218 -0.1715
17706SOL     OW54985   0.627   8.139   6.942 -0.0755  0.2312 -0.2333
17706SOL    HW154986   0.536   8.152   6.915  0.4507  0.6662 -1.8867
17706SOL    HW254987   0.652   8.055   6.904  1.1400  1.5394 -2.5161
17707SOL     OW54988   2.853   0.709   7.171  0.7082 -0.0566  0.2883
17707SOL    HW154989   2.870   0.778   7.234 -1.7206  0.6711  0.2531
17707SOL    HW254990   2.886   0.743   7.088  0.9915  0.3611  0.5721
17708SOL     OW54991   3.117   8.322   5.368  0.1005  0.4410  0.2280
17708SOL    HW154992   3.108   8.274   5.286  0.9302  1.7280 -0.6594
17708SOL    HW254993   3.066   8.402   5.355  1.4124  1.3466  0.3624
17709SOL     OW54994   7.784   4.739   2.282 -0.5538 -0.2460 -0.5083
17709SOL    HW154995   7.761   4.819   2.330  2.1125 -1.1691  2.6884
17709SOL    HW254996   7.874   4.753   2.255 -0.8729 -1.2437 -2.2420
17710SOL     OW54997   3.614   8.910   7.870 -0.4027 -0.0653 -0.6279
17710SOL    HW154998   3.629   8.845   7.802  3.9866  0.0561 -0.0530
17710SOL    HW254999   3.643   8.993   7.831 -0.6922  0.5562  0.4237
17711SOL     OW55000   8.270   6.862   5.207  0.3742  0.0523 -0.4482
17711SOL    HW155001   8.199   6.923   5.230  1.1207  0.7897 -0.0461
17711SOL    HW255002   8.228   6.776   5.204 -0.0390  0.0774  2.4378
17712SOL     OW55003   8.772   3.511   0.348 -0.2366 -0.5546 -0.1048
17712SOL    HW155004   8.773   3.513   0.443  2.3009 -1.1959 -0.0431
17712SOL    HW255005   8.724   3.590   0.322 -2.0444 -1.0024  1.6531
17713SOL     OW55006   6.933   6.624   1.041  0.1283  0.0122 -0.1742
17713SOL    HW155007   6.896   6.552   0.990  0.8960  0.7657 -1.8952
17713SOL    HW255008   7.021   6.593   1.065  0.0274 -0.0662  0.1018
17714SOL     OW55009   3.687   1.257   3.131  0.3920  0.0721  0.1270
17714SOL    HW155010   3.756   1.216   3.078  1.2677  0.7481  0.7266
17714SOL    HW255011   3.687   1.207   3.213 -0.8294 -0.8458 -0.4019
17715SOL     OW55012   1.512   3.613   1.284  0.1754 -0.3273 -0.1593
17715SOL    HW155013   1.477   3.566   1.359  0.8068 -1.3592 -0.4842
17715SOL    HW255014   1.473   3.701   1.289 -0.7607 -0.7775  0.6551
17716SOL     OW55015   1.875   5.439   0.008 -0.2767  0.4114  0.1148
17716SOL    HW155016   1.845   5.478   0.090 -1.5220  1.4295 -0.7934
17716SOL    HW255017   1.797   5.398  -0.029  0.2010  0.2182 -0.7026
17717SOL     OW55018   4.722   6.498   8.939  0.1142 -0.4528  0.0572
17717SOL    HW155019   4.700   6.590   8.954 -1.0689 -0.8630  1.0263
17717SOL    HW255020   4.728   6.461   9.027  1.1539 -1.1910 -0.3027
17718SOL     OW55021   4.697   7.355   8.531 -0.5948  0.0387  0.5809
17718SOL    HW155022   4.610   7.339   8.495  0.2461  2.0431 -2.7717
17718SOL    HW255023   4.727   7.268   8.559 -3.4771 -0.7482  1.6010
17719SOL     OW55024   6.945   6.416   6.887  0.0680  0.0252 -0.2398
17719SOL    HW155025   6.970   6.327   6.863 -0.1259 -0.0863 -0.0354
17719SOL    HW255026   6.994   6.472   6.827  0.4600 -0.2049 -0.1340
17720SOL     OW55027   6.238   0.127   7.029  0.2521 -0.3343 -0.3722
17720SOL    HW155028   6.155   0.126   7.077  0.0660 -0.6894 -0.7010
17720SOL    HW255029   6.260   0.220   7.023  0.6358 -0.3024  1.0082
17721SOL     OW55030   3.506   7.106   2.313  0.0974  0.4322  0.5915
17721SOL    HW155031   3.596   7.136   2.296 -0.2571 -0.1119 -2.9280
17721SOL    HW255032   3.517   7.021   2.356  1.2776  0.4074  0.2694
17722SOL     OW55033   1.424   7.807   2.241 -0.1040  0.2595  0.5024
17722SOL    HW155034   1.402   7.755   2.318 -4.5041  0.9602 -0.0290
17722SOL    HW255035   1.449   7.893   2.276  1.0680 -0.3256  1.1621
17723SOL     OW55036   8.575   2.047   1.688  0.2758 -0.3515 -0.0446
17723SOL    HW155037   8.631   2.034   1.611  0.0438  0.6924 -0.4033
17723SOL    HW255038   8.610   1.986   1.753  2.1045  0.5541 -0.1140
17724SOL     OW55039   2.666   2.919   6.194  0.2015 -0.4773 -0.2539
17724SOL    HW155040   2.710   2.923   6.109  0.3643 -1.1311 -0.2058
17724SOL    HW255041   2.664   2.826   6.216 -0.5063 -0.3842  0.1146
17725SOL     OW55042   8.094   2.819   7.505  0.1168  0.6775 -0.4669
17725SOL    HW155043   8.064   2.738   7.465  1.3367  0.0533 -0.1692
17725SOL    HW255044   8.014   2.870   7.519 -0.5758 -0.0729 -1.4989
17726SOL     OW55045   5.003   8.174   4.554 -0.0828 -0.7338  0.1948
17726SOL    HW155046   4.972   8.251   4.602 -0.9139 -0.3300 -0.9432
17726SOL    HW255047   5.061   8.209   4.487  0.5743 -1.2384  0.4872
17727SOL     OW55048   0.806   5.591   8.753  0.3460  1.0217  0.0514
17727SOL    HW155049   0.796   5.632   8.839 -1.2852 -0.1415  0.4734
17727SOL    HW255050   0.729   5.620   8.704 -0.3460 -0.6858  0.0462
17728SOL     OW55051   3.614   3.776   1.130 -0.1375  0.4312  0.5747
17728SOL    HW155052   3.673   3.747   1.061 -1.5966  1.0313 -0.9741
17728SOL    HW255053   3.586   3.864   1.104  0.1834  1.1894  2.5464
17729SOL     OW55054   5.783   1.207   4.467 -0.0932 -0.4373 -0.6066
17729SOL    HW155055   5.856   1.154   4.436  0.2554  0.1450 -0.7918
17729SOL    HW255056   5.821   1.261   4.537  0.1853  1.3625 -2.0676
17730SOL     OW55057   2.604   5.650   2.193  0.2642 -0.0106  0.2188
17730SOL    HW155058   2.587   5.671   2.101 -0.2305 -0.1609  0.2751
17730SOL    HW255059   2.697   5.626   2.195  0.0458 -0.9398 -0.4065
17731SOL     OW55060   7.218   7.855   3.371 -0.5328  0.3912 -0.1479
17731SOL    HW155061   7.286   7.791   3.351 -0.8585 -0.8155  2.2464
17731SOL    HW255062   7.250   7.936   3.334  2.6912  0.0744  1.5602
17732SOL     OW55063   8.520   7.671   5.297 -0.4617  0.0882  0.2651
17732SOL    HW155064   8.569   7.689   5.217  0.4593  0.4617  0.9025
17732SOL    HW255065   8.459   7.601   5.272  0.6430 -0.6507 -0.4570
17733SOL     OW55066   7.474   6.430   2.768  0.4939 -0.3173 -0.5119
17733SOL    HW155067   7.430   6.366   2.711  1.2345  0.4218 -1.9732
17733SOL    HW255068   7.497   6.502   2.709  0.5739  0.8588  0.9025
17734SOL     OW55069   1.434   6.988   8.077  0.1502 -0.0280  0.1199
17734SOL    HW155070   1.515   7.033   8.098 -0.8754  2.7724 -1.4025
17734SOL    HW255071   1.387   6.982   8.160  2.0428 -2.2062  1.1325
17735SOL     OW55072   6.275   1.493   5.459 -0.1939 -0.7302  0.0403
17735SOL    HW155073   6.189   1.461   5.432 -0.5150 -0.2790  0.4909
17735SOL    HW255074   6.272   1.490   5.555 -0.6310  1.5470  0.1649
17736SOL     OW55075   6.278   6.037   0.936  0.4083  0.6875  0.5424
17736SOL    HW155076   6.328   6.083   0.868  0.0707  1.1591  0.6050
17736SOL    HW255077   6.310   6.074   1.018  1.0916 -0.1578  0.6682
17737SOL     OW55078   0.090   0.632   5.519 -0.4244  0.0945 -0.2579
17737SOL    HW155079   0.154   0.576   5.563 -1.5741 -0.0502  1.3168
17737SOL    HW255080   0.108   0.720   5.551 -1.4601 -0.0550  0.8029
17738SOL     OW55081   4.605   4.675   8.151  0.9280 -0.5568  0.2978
17738SOL    HW155082   4.677   4.729   8.121 -0.0814  0.8007  0.2042
17738SOL    HW255083   4.619   4.590   8.109  1.5331  0.1924 -1.0896
17739SOL     OW55084   4.358   1.707   8.302  0.9431 -0.0529 -0.0394
17739SOL    HW155085   4.365   1.792   8.345  1.3174 -0.1653  0.1282
17739SOL    HW255086   4.284   1.716   8.241  0.5569  0.1768  0.4604
17740SOL     OW55087   4.589   2.818   1.589 -0.1865 -0.2257  0.1088
17740SOL    HW155088   4.673   2.800   1.630 -0.3136 -1.5446 -0.1688
17740SOL    HW255089   4.566   2.905   1.619  1.8794  0.7221 -0.8048
17741SOL     OW55090   2.515   4.039   6.740 -0.7544  0.5133  0.3816
17741SOL    HW155091   2.609   4.049   6.754 -0.5973 -1.5681  1.3144
17741SOL    HW255092   2.477   4.038   6.828 -1.2109 -1.6320  0.2294
17742SOL     OW55093   5.979   5.680   5.148 -0.6298  0.1661  0.1466
17742SOL    HW155094   5.906   5.649   5.201  0.3828 -0.3847  1.2700
17742SOL    HW255095   6.029   5.601   5.126  0.4350  0.6746  0.6555
17743SOL     OW55096   7.123   8.168   6.270  0.6623 -0.8126  0.5413
17743SOL    HW155097   7.137   8.241   6.330  0.7249 -0.2761 -0.1222
17743SOL    HW255098   7.147   8.090   6.321  1.0415 -0.3374  1.0978
17744SOL     OW55099   2.950   6.461   3.785  0.1924 -0.7787  0.1484
17744SOL    HW155100   2.984   6.488   3.870  0.1823  1.3402 -0.4622
17744SOL    HW255101   2.856   6.445   3.800  0.4228 -1.6631  0.7598
17745SOL     OW55102   5.326   2.486   1.913  0.3252  0.0931  0.8192
17745SOL    HW155103   5.241   2.518   1.882  0.5692  0.4925  0.5489
17745SOL    HW255104   5.389   2.550   1.880  0.8476 -0.7318  0.1626
17746SOL     OW55105   2.553   4.695   0.084 -0.2648  0.5394 -0.0769
17746SOL    HW155106   2.603   4.777   0.086 -0.2664  0.5424 -0.1529
17746SOL    HW255107   2.488   4.705   0.154 -1.7587  1.5477 -1.5273
17747SOL     OW55108   4.955   4.747   4.832 -0.4209  0.2230 -0.8173
17747SOL    HW155109   4.971   4.783   4.919  0.6092 -1.2597 -0.3617
17747SOL    HW255110   4.962   4.652   4.842  0.3745  0.0379 -2.6290
17748SOL     OW55111   3.323   1.531   4.605 -0.2174  0.6784 -0.3516
17748SOL    HW155112   3.371   1.541   4.523 -0.3561 -0.5573 -0.5950
17748SOL    HW255113   3.311   1.437   4.615 -0.3527  0.8164  1.0063
17749SOL     OW55114   7.289   4.781   3.552  0.3801  0.2715 -0.4321
17749SOL    HW155115   7.351   4.728   3.602  0.5926 -0.1017 -1.0833
17749SOL    HW255116   7.311   4.871   3.574  0.2001  0.1036  0.4703
17750SOL     OW55117   1.636   4.628   1.436 -0.0529  0.3283 -0.4123
17750SOL    HW155118   1.687   4.702   1.470 -2.2053  1.7690 -0.0752
17750SOL    HW255119   1.635   4.565   1.508 -0.0518  0.9737  0.1646
17751SOL     OW55120   7.616   8.752   4.049  0.6663  0.0489 -0.0743
17751SOL    HW155121   7.565   8.792   4.119 -0.3096  2.5242 -2.0451
17751SOL    HW255122   7.704   8.788   4.061  0.3654  0.9219 -0.4302
17752SOL     OW55123   6.888   3.665   3.228  0.0653  0.1835  0.1821
17752SOL    HW155124   6.926   3.678   3.314  0.0762  0.4535  0.1360
17752SOL    HW255125   6.821   3.733   3.220 -1.0710 -0.8526  0.6307
17753SOL     OW55126   7.247   3.757   7.730  0.5084  0.1114 -0.0706
17753SOL    HW155127   7.275   3.837   7.773  2.3372  0.4546 -1.7783
17753SOL    HW255128   7.306   3.689   7.764 -0.4292 -0.3593  0.6699
17754SOL     OW55129   4.622   3.269   2.934  0.0302 -0.2163  0.1823
17754SOL    HW155130   4.552   3.334   2.938  2.7897  3.4636 -2.9628
17754SOL    HW255131   4.590   3.203   2.872 -2.7400 -2.0661  3.2731
17755SOL     OW55132   2.934   1.413   6.248 -0.0664  0.1019  0.7404
17755SOL    HW155133   2.877   1.338   6.264 -0.9184  0.7539  0.8561
17755SOL    HW255134   2.914   1.474   6.319  1.6864 -0.1486  1.5116
17756SOL     OW55135   7.149   6.993   0.678  0.0390  0.0522  0.2888
17756SOL    HW155136   7.061   6.976   0.710  0.3154 -1.4953  0.2948
17756SOL    HW255137   7.146   6.970   0.585  0.7059 -1.1734  0.5452
17757SOL     OW55138   3.430   3.572   8.632  0.2266 -0.0711  0.5588
17757SOL    HW155139   3.466   3.611   8.712  1.1011  1.2714 -0.4292
17757SOL    HW255140   3.504   3.572   8.571 -0.4396 -1.0182 -0.2715
17758SOL     OW55141   8.604   1.520   8.494 -0.0302  0.2936  0.0652
17758SOL    HW155142   8.694   1.494   8.473 -0.2060 -0.8878  0.6832
17758SOL    HW255143   8.568   1.553   8.412  1.0427  1.0256 -0.1259
17759SOL     OW55144   7.760   8.472   7.823 -0.2640 -0.2553  0.4070
17759SOL    HW155145   7.715   8.477   7.907 -0.0335 -0.1495  0.5244
17759SOL    HW255146   7.843   8.517   7.837  0.1632 -1.0231  0.3740
17760SOL     OW55147   4.669   6.906   0.733 -0.5168  0.7346  0.0662
17760SOL    HW155148   4.699   6.821   0.765  0.9021  2.3751  3.6772
17760SOL    HW255149   4.598   6.930   0.793 -0.1014  2.5455 -0.1219
17761SOL     OW55150   8.636   8.921   7.818 -0.5324  0.5674 -0.5778
17761SOL    HW155151   8.675   8.858   7.758 -0.8430 -0.9838  0.7798
17761SOL    HW255152   8.694   8.997   7.813  0.2203 -0.0518 -1.7913
17762SOL     OW55153   4.300   1.798   0.535  0.2813 -0.1508  0.6772
17762SOL    HW155154   4.267   1.807   0.446 -0.0730 -0.2056  0.8013
17762SOL    HW255155   4.234   1.841   0.590  0.5945  0.0585  0.8946
17763SOL     OW55156   1.925   1.085   1.935 -0.2458  0.1609  0.1818
17763SOL    HW155157   1.893   1.118   2.019  0.2667 -1.1983  0.9524
17763SOL    HW255158   1.934   0.990   1.948 -1.5769 -0.3174 -1.8867
17764SOL     OW55159   8.290   5.531   8.777  0.1345  0.3137 -0.4474
17764SOL    HW155160   8.237   5.476   8.720  1.1877 -1.8737  0.5687
17764SOL    HW255161   8.355   5.571   8.719  0.3123 -0.7528 -1.0056
17765SOL     OW55162   4.935   7.436   3.764  0.0479  0.1227  0.1534
17765SOL    HW155163   4.929   7.365   3.828 -1.4594  0.2711  0.2032
17765SOL    HW255164   5.026   7.467   3.771  0.6180 -1.5310  0.3964
17766SOL     OW55165   1.754   7.409   5.352  0.8700  0.1402 -0.3178
17766SOL    HW155166   1.720   7.388   5.265  1.2963 -0.0303 -0.4439
17766SOL    HW255167   1.681   7.390   5.411  0.6318  0.1044 -0.6205
17767SOL     OW55168   3.036   0.234   7.448 -0.2792  0.0492  0.2124
17767SOL    HW155169   3.039   0.143   7.478 -0.0306 -0.0621 -0.1446
17767SOL    HW255170   3.079   0.233   7.363 -1.1804  0.3188 -0.2622
17768SOL     OW55171   6.132   7.800   3.732  0.1180  0.2268 -0.1508
17768SOL    HW155172   6.161   7.748   3.807 -1.0316 -2.5935 -1.5320
17768SOL    HW255173   6.213   7.827   3.689  0.8177 -1.9394 -0.3199
17769SOL     OW55174   3.355   5.961   5.571  0.1081 -0.0285 -0.2341
17769SOL    HW155175   3.337   5.881   5.619  1.2887 -0.0179  0.2497
17769SOL    HW255176   3.367   6.028   5.638 -3.0244  1.0995 -0.6452
17770SOL     OW55177   6.049   4.135   1.425 -0.2005  0.1957  0.9827
17770SOL    HW155178   5.974   4.141   1.366 -0.5425 -0.4880  1.3380
17770SOL    HW255179   6.011   4.133   1.513 -0.0036 -2.9189  1.0989
17771SOL     OW55180   1.520   2.967   4.219  0.8821  0.5475 -0.3295
17771SOL    HW155181   1.472   3.045   4.248  0.6192  0.5173 -0.6692
17771SOL    HW255182   1.595   3.002   4.170  0.8017  0.5895 -0.4242
17772SOL     OW55183   2.093   0.660   4.928 -0.1499 -0.5530 -0.1333
17772SOL    HW155184   2.136   0.734   4.971 -0.7780  0.4149 -1.1129
17772SOL    HW255185   1.999   0.676   4.940 -0.3055 -2.2532  1.3512
17773SOL     OW55186   4.286   2.100   1.116  0.0612 -0.1132 -0.2331
17773SOL    HW155187   4.229   2.035   1.073 -0.9794 -0.3101  1.3687
17773SOL    HW255188   4.370   2.055   1.126 -0.5736 -1.1542  0.6307
17774SOL     OW55189   2.546   2.158   6.764 -0.2526  0.0991  0.1730
17774SOL    HW155190   2.516   2.245   6.789  1.1805  0.3166  1.3016
17774SOL    HW255191   2.634   2.173   6.728 -0.0490 -0.8551  0.2422
17775SOL     OW55192   5.408   5.569   0.123  0.3757  0.1073  0.9151
17775SOL    HW155193   5.387   5.662   0.138  2.8503  0.8153  0.5039
17775SOL    HW255194   5.423   5.533   0.210 -1.8460 -0.3068  1.1826
17776SOL     OW55195   7.205   3.762   7.092 -0.0380  0.4768 -0.4785
17776SOL    HW155196   7.250   3.801   7.017  1.6578  1.9306  1.1903
17776SOL    HW255197   7.208   3.830   7.160 -1.1768 -0.9083  1.0447
17777SOL     OW55198   0.491   6.649   2.940  0.2731 -0.3287 -0.5592
17777SOL    HW155199   0.455   6.599   2.867  1.9726 -3.3309  0.4823
17777SOL    HW255200   0.577   6.611   2.956  1.8935  3.2213  0.2190
17778SOL     OW55201   1.756   3.552   5.049 -0.6204  0.3401 -0.0147
17778SOL    HW155202   1.852   3.546   5.050 -0.6720 -0.9008 -0.4658
17778SOL    HW255203   1.737   3.639   5.084  0.6947  0.8608 -0.5214
17779SOL     OW55204   6.584   8.122   5.325  0.0268 -0.0324  0.4949
17779SOL    HW155205   6.555   8.031   5.334  1.0708 -0.2703  1.6980
17779SOL    HW255206   6.632   8.123   5.242  1.3901 -1.0138  1.2136
17780SOL     OW55207   5.730   4.391   3.691 -0.0009 -0.0659 -0.6729
17780SOL    HW155208   5.757   4.344   3.611  0.1739  3.1220 -2.6561
17780SOL    HW255209   5.807   4.390   3.746  0.4628 -0.7879 -1.3034
17781SOL     OW55210   6.746   0.668   8.707 -0.1075 -1.0854  0.1719
17781SOL    HW155211   6.652   0.674   8.692  0.2861  1.5351 -1.8673
17781SOL    HW255212   6.775   0.598   8.648 -0.5107 -0.5579 -0.6596
17782SOL     OW55213   5.160   6.330   3.688 -0.7931  0.0725 -0.8160
17782SOL    HW155214   5.163   6.420   3.722 -2.0191 -0.8474  2.0446
17782SOL    HW255215   5.126   6.278   3.761  1.1907 -2.9806 -1.8768
17783SOL     OW55216   8.933   2.362   7.894 -0.6496  0.5052  0.2365
17783SOL    HW155217   9.006   2.405   7.850  0.8829 -1.6429  0.5101
17783SOL    HW255218   8.916   2.417   7.970  1.9407  0.1829  1.1730
17784SOL     OW55219   3.427   7.970   4.428 -0.5509 -0.3867 -0.2522
17784SOL    HW155220   3.348   8.008   4.466 -1.5806 -0.5920 -2.1017
17784SOL    HW255221   3.411   7.875   4.430 -0.1171 -0.4621 -0.1570
17785SOL     OW55222   2.980   3.814   5.763 -0.1568 -0.6163  0.7746
17785SOL    HW155223   2.939   3.740   5.808 -0.4264 -0.0353  1.5253
17785SOL    HW255224   3.050   3.776   5.711  1.1645 -1.1981  2.8776
17786SOL     OW55225   2.266   4.456   2.751 -0.0455 -0.5412 -0.0151
17786SOL    HW155226   2.206   4.425   2.818  0.0690  0.3192  0.4955
17786SOL    HW255227   2.350   4.417   2.774 -0.3823 -1.7507 -0.7342
17787SOL     OW55228   5.637   0.468   3.432 -0.0931 -0.6001 -0.0493
17787SOL    HW155229   5.675   0.494   3.348  0.9389  1.0183  0.8558
17787SOL    HW255230   5.542   0.473   3.418  0.0447 -0.9670 -1.2739
17788SOL     OW55231   7.875   1.739   0.336  0.1681  0.3034  0.3103
17788SOL    HW155232   7.921   1.758   0.417  0.5633  0.4673  0.0499
17788SOL    HW255233   7.872   1.644   0.331  2.5014  0.2260 -0.7913
17789SOL     OW55234   1.838   7.827   0.167  0.0298  0.4244  0.1395
17789SOL    HW155235   1.890   7.768   0.113 -0.3235  0.3000 -0.0662
17789SOL    HW255236   1.783   7.769   0.221 -0.2546  0.5594 -0.0007
17790SOL     OW55237   1.279   1.778   4.838  0.4744  0.0406  0.0888
17790SOL    HW155238   1.210   1.714   4.822  0.5416 -0.4523  1.5982
17790SOL    HW255239   1.302   1.766   4.931  1.6976  1.0621 -0.0536
17791SOL     OW55240   8.038   5.015   3.386  0.2290  0.2738  0.7371
17791SOL    HW155241   8.063   5.072   3.313 -1.4376 -1.6210 -1.4506
17791SOL    HW255242   7.951   5.046   3.412  0.6601  0.7018  1.7105
17792SOL     OW55243   8.676   5.288   7.678  0.3519  0.2669  0.0917
17792SOL    HW155244   8.632   5.246   7.604  0.2257 -2.7870  1.7355
17792SOL    HW255245   8.754   5.328   7.640  0.8264 -2.0773 -1.6113
17793SOL     OW55246   6.820   8.248   0.269 -0.2044  0.2949 -0.1828
17793SOL    HW155247   6.833   8.342   0.273 -2.4723  0.6379  0.4569
17793SOL    HW255248   6.816   8.220   0.360 -1.6133 -0.0653 -0.3351
17794SOL     OW55249   3.053   8.371   2.297 -0.0854  0.4555  0.0796
17794SOL    HW155250   2.998   8.293   2.301  0.9469 -0.3060 -0.2464
17794SOL    HW255251   3.084   8.374   2.206 -0.8171  1.7473 -0.1477
17795SOL     OW55252   2.367   3.079   3.831 -0.1746  0.2125 -0.2007
17795SOL    HW155253   2.351   3.029   3.911  0.7172 -0.4066 -0.3921
17795SOL    HW255254   2.432   3.028   3.784  0.0792  1.1068 -0.8428
17796SOL     OW55255   6.706   7.236   8.043 -0.1615  0.3998  0.5241
17796SOL    HW155256   6.671   7.264   7.959  0.6183  0.2603  0.1445
17796SOL    HW255257   6.685   7.307   8.103 -0.3169  0.7074  0.1090
17797SOL     OW55258   8.291   6.207   6.023 -0.0067  0.6700  0.1413
17797SOL    HW155259   8.296   6.138   6.089  2.1322  2.0894  1.5852
17797SOL    HW255260   8.286   6.161   5.939 -1.7724 -1.1836  1.1831
17798SOL     OW55261   8.172   0.386   4.494 -0.1727 -0.1268  0.2801
17798SOL    HW155262   8.080   0.364   4.483 -0.0558 -0.5660  0.1557
17798SOL    HW255263   8.173   0.482   4.504 -0.5306  0.0230 -0.9692
17799SOL     OW55264   6.913   2.698   2.952 -0.0932 -0.1175  0.5502
17799SOL    HW155265   6.970   2.733   2.883  0.8712 -1.4268  0.6404
17799SOL    HW255266   6.824   2.712   2.919  0.3462 -0.4832 -0.8547
17800SOL     OW55267   7.971   4.076   8.226  0.3285  0.4867 -0.3677
17800SOL    HW155268   8.015   3.991   8.214 -2.3471 -1.2644  1.2571
17800SOL    HW255269   7.992   4.124   8.146  3.2759 -1.0196 -0.6529
17801SOL     OW55270   6.921   3.734   0.492 -0.3279  0.1997  0.1671
17801SOL    HW155271   6.974   3.667   0.449 -1.1706 -0.2963 -0.1417
17801SOL    HW255272   6.927   3.714   0.585 -1.5627 -1.1066  0.0079
17802SOL     OW55273   0.136   0.205   3.958 -0.3452  0.0181 -0.0700
17802SOL    HW155274   0.130   0.286   4.008 -0.3109 -0.3983  0.6229
17802SOL    HW255275   0.050   0.165   3.966  0.3911 -1.3012  1.8407
17803SOL     OW55276   2.776   4.187   6.627 -0.0715 -0.1474 -0.0562
17803SOL    HW155277   2.701   4.216   6.576  0.7345  2.8762  0.3097
17803SOL    HW255278   2.837   4.153   6.562 -0.1668  1.1238 -0.8483
17804SOL     OW55279   5.703   0.662   2.243 -0.4161 -0.0081  0.0447
17804SOL    HW155280   5.687   0.735   2.303  0.2240  0.3499 -0.2059
17804SOL    HW255281   5.736   0.704   2.163 -0.9824 -0.5003 -0.4604
17805SOL     OW55282   2.928   5.553   6.979  0.0654  0.1659 -0.0088
17805SOL    HW155283   2.840   5.587   6.959 -0.5788 -2.0090 -1.3002
17805SOL    HW255284   2.917   5.507   7.063 -0.5567 -1.6069 -1.0025
17806SOL     OW55285   6.180   0.066   4.590 -0.1966  0.0758  0.5114
17806SOL    HW155286   6.145  -0.000   4.530 -1.5616  0.1210  1.1951
17806SOL    HW255287   6.257   0.025   4.629 -0.8294 -1.0065  0.6803
17807SOL     OW55288   1.498   3.491   4.127  0.3896 -0.4516 -0.3461
17807SOL    HW155289   1.553   3.567   4.110 -0.7400  0.1494 -1.4904
17807SOL    HW255290   1.538   3.420   4.077 -0.6189  0.3318 -2.3695
17808SOL     OW55291   4.986   7.315   3.026  0.3369 -0.5865 -0.4109
17808SOL    HW155292   4.929   7.355   2.960 -0.7785 -0.2091  0.7431
17808SOL    HW255293   5.021   7.237   2.983  0.0095 -0.1044 -1.5979
17809SOL     OW55294   3.202   2.967   7.057  0.0082  0.0352  0.1862
17809SOL    HW155295   3.208   3.029   6.984  0.1234 -1.1934 -0.8968
17809SOL    HW255296   3.121   2.990   7.101 -0.3853  0.4334 -0.7125
17810SOL     OW55297   7.258   2.630   4.885  0.4873 -0.1490  0.5266
17810SOL    HW155298   7.260   2.543   4.925  0.6530 -0.7800 -0.7931
17810SOL    HW255299   7.165   2.649   4.873  0.4532 -1.1173 -1.1201
17811SOL     OW55300   6.855   7.230   3.308  0.0417 -0.4198 -0.4084
17811SOL    HW155301   6.878   7.288   3.236  0.4797  0.9022  0.7346
17811SOL    HW255302   6.846   7.144   3.268 -0.6706  0.4303 -2.1811
17812SOL     OW55303   2.028   0.158   4.674 -0.3815 -0.3464  0.2497
17812SOL    HW155304   2.113   0.119   4.691 -1.2259 -1.8546  1.2384
17812SOL    HW255305   2.048   0.245   4.638  1.5505 -0.1055  1.7372
17813SOL     OW55306   0.188   7.756   0.825  0.5365  0.1145 -0.3606
17813SOL    HW155307   0.240   7.793   0.896  1.4199  1.5707 -1.6957
17813SOL    HW255308   0.196   7.661   0.836  0.6654  0.2933  1.4202
17814SOL     OW55309   3.316   5.256   5.813  0.1506  0.2855 -0.9754
17814SOL    HW155310   3.350   5.225   5.729 -0.8111 -0.2235 -1.1839
17814SOL    HW255311   3.234   5.300   5.792 -0.1726  0.0300 -0.2966
17815SOL     OW55312   4.141   6.609   5.054  0.2750  0.3326  0.3158
17815SOL    HW155313   4.095   6.527   5.037 -0.2885  0.9489 -1.3144
17815SOL    HW255314   4.211   6.611   4.990  0.4223  1.0343  0.4893
17816SOL     OW55315   5.865   7.260   8.195 -0.2668  0.6069 -0.0447
17816SOL    HW155316   5.824   7.346   8.191 -0.4168  0.5030 -0.7306
17816SOL    HW255317   5.868   7.240   8.289  0.3886  1.6555  0.1790
17817SOL     OW55318   0.528   4.041   8.656  0.4585 -0.0702  0.0950
17817SOL    HW155319   0.583   3.988   8.598 -1.0215 -1.6803  0.0522
17817SOL    HW255320   0.585   4.066   8.728  1.0767 -2.3860  0.4906
17818SOL     OW55321   3.890   1.983   2.807 -0.3708 -0.3993  0.0948
17818SOL    HW155322   3.945   2.048   2.851 -1.2164 -0.2606  0.9801
17818SOL    HW255323   3.868   2.024   2.723 -0.7167  0.3845  0.5526
17819SOL     OW55324   7.114   2.256   8.220  0.1719 -0.4290 -0.4328
17819SOL    HW155325   7.142   2.276   8.131  1.6376  0.5088  0.1995
17819SOL    HW255326   7.116   2.161   8.226  0.5247 -0.4755 -1.2540
17820SOL     OW55327   1.053   6.165   7.788  0.5411  0.3755  0.3458
17820SOL    HW155328   0.991   6.188   7.858  1.6237  1.1567  1.0846
17820SOL    HW255329   1.133   6.212   7.811  0.9386  0.6369 -1.4267
17821SOL     OW55330   6.846   2.540   7.936 -0.7055  0.4713 -0.2446
17821SOL    HW155331   6.875   2.458   7.974 -0.6465  0.6690  0.1388
17821SOL    HW255332   6.751   2.531   7.930 -0.7413  0.5372  0.1859
17822SOL     OW55333   2.495   0.879   2.981  0.1061  0.1571 -0.6376
17822SOL    HW155334   2.585   0.884   2.948 -0.0877 -0.3532 -1.2819
17822SOL    HW255335   2.441   0.914   2.909 -0.1137  1.9833  0.3381
17823SOL     OW55336   5.435   2.144   7.503 -0.3652 -0.3529 -0.8333
17823SOL    HW155337   5.469   2.056   7.520  0.2341 -0.1296 -0.8488
17823SOL    HW255338   5.410   2.142   7.410 -2.5447 -1.2115 -0.2908
17824SOL     OW55339   7.939   6.587   8.302  0.2668  0.0943 -0.0536
17824SOL    HW155340   7.891   6.634   8.370  0.1155  0.4459 -0.3987
17824SOL    HW255341   7.957   6.653   8.235  2.0158  0.1940  0.4567
17825SOL     OW55342   6.599   4.675   7.542 -0.5943  0.6862  0.0177
17825SOL    HW155343   6.662   4.745   7.524 -0.1827  0.2005 -0.4692
17825SOL    HW255344   6.596   4.669   7.638  0.4863  0.3676  0.0371
17826SOL     OW55345   5.369   8.518   7.671 -0.0566  0.2876 -0.3548
17826SOL    HW155346   5.461   8.504   7.649 -0.5546  0.6330 -2.9251
17826SOL    HW255347   5.354   8.612   7.655 -1.3704 -0.1920 -2.3314
17827SOL     OW55348   8.769   6.612   1.421 -0.3534  0.2546 -0.1892
17827SOL    HW155349   8.684   6.568   1.416 -0.3999  0.1650  1.1116
17827SOL    HW255350   8.833   6.541   1.421 -0.3992  0.1779  1.1670
17828SOL     OW55351   0.049   5.235   6.588  0.3169 -0.3323 -0.1987
17828SOL    HW155352   0.016   5.286   6.662 -0.3624  0.2695 -0.8983
17828SOL    HW255353   0.141   5.220   6.609  0.2455  0.2027  0.5659
17829SOL     OW55354   4.439   4.779   2.045 -0.3974 -0.2977  0.1448
17829SOL    HW155355   4.477   4.741   2.125  1.4171  1.1762  0.0580
17829SOL    HW255356   4.349   4.746   2.043  0.7931 -4.0487  0.3843
17830SOL     OW55357   7.292   5.968   0.332 -0.1073  0.2442  0.1126
17830SOL    HW155358   7.364   5.916   0.368 -0.3631 -0.8034 -0.8420
17830SOL    HW255359   7.218   5.948   0.389 -0.1640 -0.3157 -0.1532
17831SOL     OW55360   1.928   3.286   1.407  0.1899 -0.5418 -0.6644
17831SOL    HW155361   1.975   3.369   1.417 -2.9742  1.3803 -0.6702
17831SOL    HW255362   1.948   3.239   1.488  0.2006  1.2364  0.4230
17832SOL     OW55363   7.134   6.404   7.097 -0.3957  0.3031  0.7889
17832SOL    HW155364   7.167   6.494   7.092 -2.8619  1.3463  1.5635
17832SOL    HW255365   7.057   6.405   7.041  0.9199 -2.1097 -1.2434
17833SOL     OW55366   2.320   2.954   0.237  0.2000  0.3666  0.1178
17833SOL    HW155367   2.382   2.887   0.209  0.1347  0.0841  0.6472
17833SOL    HW255368   2.300   3.003   0.157 -1.4434 -1.5913 -0.7409
17834SOL     OW55369   3.492   8.148   3.553  0.3262 -0.2930  0.4713
17834SOL    HW155370   3.563   8.087   3.573  0.0021 -0.7907  0.1315
17834SOL    HW255371   3.534   8.235   3.553  0.9718 -0.5986  0.0942
17835SOL     OW55372   4.195   7.303   3.017  0.6699 -0.2881 -0.7151
17835SOL    HW155373   4.215   7.211   3.035  0.4328  0.0764  1.7727
17835SOL    HW255374   4.171   7.339   3.103 -1.7126  1.4863 -2.0094
17836SOL     OW55375   1.596   2.150   8.725 -0.1603  0.2271 -0.3801
17836SOL    HW155376   1.618   2.090   8.653 -2.1579 -0.1325 -0.7320
17836SOL    HW255377   1.659   2.222   8.715 -0.6934  0.4425 -2.8294
17837SOL     OW55378   3.082   0.791   5.544 -0.4347  0.1822 -0.4039
17837SOL    HW155379   3.011   0.800   5.481 -1.1003  0.9984  0.4423
17837SOL    HW255380   3.157   0.835   5.502  0.2498 -2.4678 -2.2153
17838SOL     OW55381   1.375   0.796   5.204 -0.0216 -0.3631  0.1160
17838SOL    HW155382   1.452   0.740   5.216  1.2507  1.4269  0.7682
17838SOL    HW255383   1.309   0.758   5.262  1.5185  0.0133  2.2393
17839SOL     OW55384   3.357   4.940   6.528  0.4181 -0.1019 -0.2880
17839SOL    HW155385   3.307   4.862   6.553  1.7557 -0.9052 -0.0427
17839SOL    HW255386   3.332   5.006   6.593 -0.4850 -0.4105 -0.3118
17840SOL     OW55387   8.803   8.222   5.675  0.0086 -0.2461 -0.2722
17840SOL    HW155388   8.709   8.238   5.678 -0.2492 -1.4472 -1.2727
17840SOL    HW255389   8.811   8.129   5.654  1.4279 -0.6397  1.7329
17841SOL     OW55390   2.680   5.224   4.430 -0.1607 -0.5428 -0.6003
17841SOL    HW155391   2.692   5.224   4.335  0.8240  0.2290 -0.4806
17841SOL    HW255392   2.736   5.294   4.462 -1.0608 -0.2890  0.4896
17842SOL     OW55393   6.924   5.894   4.813  0.3435  0.0357 -0.1881
17842SOL    HW155394   6.844   5.861   4.855 -0.8779  0.4726 -2.0378
17842SOL    HW255395   6.958   5.959   4.875  0.4851 -1.6543  1.6087
17843SOL     OW55396   6.213   7.510   4.445  0.1895  0.5750  0.4031
17843SOL    HW155397   6.206   7.482   4.536  0.9022  2.2693  1.0206
17843SOL    HW255398   6.299   7.551   4.439 -0.3862  1.6840 -0.6909
17844SOL     OW55399   2.870   3.247   7.110 -0.4410 -0.5748 -0.0078
17844SOL    HW155400   2.830   3.329   7.082 -1.7110 -0.8111  1.0574
17844SOL    HW255401   2.808   3.179   7.083  0.5881 -1.2224 -0.8771
17845SOL     OW55402   8.705   7.421   6.697  0.2300  0.0872  0.0988
17845SOL    HW155403   8.751   7.443   6.778  1.2899 -1.4916 -0.0400
17845SOL    HW255404   8.758   7.353   6.657 -0.0421  1.0972 -2.1479
17846SOL     OW55405   2.606   0.157   0.621  0.0082 -0.0413  0.0266
17846SOL    HW155406   2.550   0.102   0.675  0.6620  1.0997  1.9688
17846SOL    HW255407   2.693   0.149   0.661  0.9130 -0.5446 -1.9559
17847SOL     OW55408   1.224   5.775   7.133  0.3563 -0.1155  0.3549
17847SOL    HW155409   1.260   5.815   7.213 -1.7517  0.7518  0.9324
17847SOL    HW255410   1.205   5.685   7.159  1.0967 -0.2761  0.3605
17848SOL     OW55411   1.442   1.488   5.507  0.3770 -0.5344  0.1763
17848SOL    HW155412   1.378   1.431   5.466 -0.6919  1.0744 -0.4912
17848SOL    HW255413   1.391   1.544   5.566  0.7291  2.2275 -1.9157
17849SOL     OW55414   5.099   0.061   2.697  0.4506 -0.1420 -0.8538
17849SOL    HW155415   5.191   0.084   2.704  0.8459 -1.9054  0.5841
17849SOL    HW255416   5.093   0.009   2.616  0.4027  1.1187 -1.6930
17850SOL     OW55417   5.921   3.567   6.334  0.5460  0.1104 -0.4202
17850SOL    HW155418   5.939   3.515   6.413 -2.2466  0.2402  0.3928
17850SOL    HW255419   5.939   3.507   6.262 -0.0366 -1.1203  0.4277
17851SOL     OW55420   1.307   1.305   5.357 -0.6601 -0.0989  0.4310
17851SOL    HW155421   1.284   1.215   5.381  1.2267 -0.7630 -0.0999
17851SOL    HW255422   1.296   1.308   5.262  0.1431 -0.0610  0.3322
17852SOL     OW55423   5.762   1.034   3.991  1.0421 -0.3397 -0.4627
17852SOL    HW155424   5.775   1.011   4.083 -0.0143 -0.9545 -0.4554
17852SOL    HW255425   5.810   0.967   3.943  0.6405 -0.6957 -0.3745
17853SOL     OW55426   0.743   5.434   6.641 -0.4083 -0.3803 -0.3139
17853SOL    HW155427   0.807   5.397   6.581 -0.2515 -1.6238  0.5963
17853SOL    HW255428   0.659   5.399   6.611 -0.3755 -0.6866 -0.0523
17854SOL     OW55429   5.074   2.110   6.301  0.1342  0.3337  0.4734
17854SOL    HW155430   5.014   2.161   6.247  0.5688 -1.8809 -2.3520
17854SOL    HW255431   5.160   2.123   6.260  0.4906 -1.4018  0.5934
17855SOL     OW55432   2.363   6.820   1.362  0.0532 -0.4814  0.4811
17855SOL    HW155433   2.440   6.822   1.419  1.0526  0.6165 -0.8562
17855SOL    HW255434   2.352   6.727   1.341 -0.4322 -0.9490  2.5045
17856SOL     OW55435   8.280   8.375   6.928 -0.6205 -0.0445  0.0747
17856SOL    HW155436   8.355   8.407   6.978 -0.1836 -1.4211  0.3428
17856SOL    HW255437   8.205   8.419   6.968  0.0127  1.2937 -0.1458
17857SOL     OW55438   8.985   2.364   0.781 -0.2131  0.0650  0.1587
17857SOL    HW155439   8.940   2.350   0.864 -1.1544 -0.0027 -0.3525
17857SOL    HW255440   9.050   2.432   0.801 -0.9711  0.6335  0.7677
17858SOL     OW55441   4.691   6.326   7.711 -0.5470  0.0473  0.7430
17858SOL    HW155442   4.726   6.311   7.623 -0.3609  1.4305  0.5709
17858SOL    HW255443   4.732   6.257   7.765  0.5160  0.1180  0.0522
17859SOL     OW55444   8.687   4.546   3.338  0.2367  0.4526 -0.1397
17859SOL    HW155445   8.719   4.613   3.277  1.8236 -0.0326  0.1190
17859SOL    HW255446   8.689   4.465   3.287  0.7508  0.1923  0.2854
17860SOL     OW55447   8.320   6.092   8.290  0.0508 -0.1577 -0.0884
17860SOL    HW155448   8.367   6.165   8.330  0.1828  0.1791 -0.8444
17860SOL    HW255449   8.241   6.082   8.344 -0.8938  1.7311 -1.0214
17861SOL     OW55450   5.710   3.939   1.941 -0.1461 -0.2015 -0.1070
17861SOL    HW155451   5.718   3.849   1.909  0.5077  0.3508 -1.6300
17861SOL    HW255452   5.756   3.938   2.025 -0.4863 -1.3698  0.0875
17862SOL     OW55453   0.065   5.167   7.943  0.4282  0.2613 -0.1627
17862SOL    HW155454   0.020   5.117   7.876  0.3235  0.4576 -0.2414
17862SOL    HW255455  -0.001   5.228   7.975  0.2683 -0.3033  0.6121
17863SOL     OW55456   1.231   8.872   0.079 -0.1071  0.1464 -0.2886
17863SOL    HW155457   1.311   8.833   0.116 -0.4683 -0.2776  0.0642
17863SOL    HW255458   1.185   8.798   0.041  0.6425  0.6918 -2.3611
17864SOL     OW55459   2.780   6.162   3.794  0.5411  0.0486 -0.2503
17864SOL    HW155460   2.767   6.159   3.889  0.5061 -0.9655 -0.2781
17864SOL    HW255461   2.859   6.110   3.779  0.2482 -0.2363 -0.8314
17865SOL     OW55462   8.807   0.125   5.373 -0.4401 -0.2236 -0.3036
17865SOL    HW155463   8.762   0.200   5.332  2.4882  0.4773 -2.5980
17865SOL    HW255464   8.761   0.049   5.339 -2.1327  0.4386  0.3675
17866SOL     OW55465   5.862   5.751   8.743 -0.0323  0.6503 -0.1608
17866SOL    HW155466   5.817   5.750   8.659 -0.4882  1.4798  0.0597
17866SOL    HW255467   5.932   5.816   8.732  1.2736 -0.7606 -0.5670
17867SOL     OW55468   2.941   2.318   4.129  0.0921 -0.0321  0.1923
17867SOL    HW155469   2.865   2.271   4.094  0.8040 -0.6787 -0.5234
17867SOL    HW255470   2.987   2.349   4.051  0.8517 -0.1118  0.6056
17868SOL     OW55471   6.858   4.422   4.203 -0.2890  0.4464  0.4919
17868SOL    HW155472   6.906   4.358   4.255  0.2663 -0.5208 -1.1390
17868SOL    HW255473   6.791   4.456   4.262  0.6511 -0.1971  1.9826
17869SOL     OW55474   0.585   4.659   1.663 -0.0972 -0.3219 -0.2122
17869SOL    HW155475   0.550   4.624   1.581 -0.3677 -1.4299  0.3559
17869SOL    HW255476   0.511   4.704   1.703  0.3501  1.3194 -1.1260
17870SOL     OW55477   1.323   8.163   5.957 -0.0742  0.3341 -0.2195
17870SOL    HW155478   1.376   8.130   5.885 -0.2654 -0.9160  0.1821
17870SOL    HW255479   1.357   8.118   6.035 -1.3910 -0.1526  0.1169
17871SOL     OW55480   3.435   1.659   2.549 -0.2883 -0.1789 -0.2567
17871SOL    HW155481   3.443   1.740   2.600 -1.4561 -0.5388  0.5500
17871SOL    HW255482   3.508   1.604   2.579 -0.0128  0.2311 -0.1627
17872SOL     OW55483   4.898   0.340   4.127 -0.7451  0.4388 -0.3923
17872SOL    HW155484   4.883   0.390   4.207 -1.7907 -0.5396  0.0572
17872SOL    HW255485   4.876   0.400   4.057 -0.7585  1.0087  0.0941
17873SOL     OW55486   2.701   5.679   6.072  0.5829  0.3256 -0.2417
17873SOL    HW155487   2.716   5.750   6.135  1.2118 -1.5389  1.8213
17873SOL    HW255488   2.757   5.608   6.102 -1.1136 -1.5789 -1.3498
17874SOL     OW55489   0.422   2.478   7.845  0.0352 -0.3923 -0.2433
17874SOL    HW155490   0.409   2.550   7.783 -1.1598 -2.1444 -2.1920
17874SOL    HW255491   0.342   2.475   7.896  0.5958  0.4034  0.7064
17875SOL     OW55492   7.238   5.345   6.592  0.4466  0.0949 -0.4171
17875SOL    HW155493   7.174   5.274   6.590  2.1136 -1.4678 -1.1098
17875SOL    HW255494   7.304   5.316   6.656  0.9222  1.2579 -0.3553
17876SOL     OW55495   2.887   5.810   1.687 -0.3985  0.4714 -0.0619
17876SOL    HW155496   2.865   5.847   1.773 -0.8712  0.8128 -0.3257
17876SOL    HW255497   2.930   5.727   1.707  1.3183  1.4439  0.5773
17877SOL     OW55498   2.222   5.388   7.005 -0.1359 -0.0205  0.1690
17877SOL    HW155499   2.172   5.353   6.932 -1.5818  0.4078  0.9090
17877SOL    HW255500   2.233   5.481   6.985  0.3183 -0.0954  0.0493
17878SOL     OW55501   8.513   3.761   6.412  0.3566  0.5248  0.0231
17878SOL    HW155502   8.601   3.757   6.374 -0.2619 -0.2569 -1.4371
17878SOL    HW255503   8.503   3.678   6.459  1.1803  1.5605  2.1538
17879SOL     OW55504   2.376   2.841   3.333 -0.1158  0.5911 -0.2172
17879SOL    HW155505   2.310   2.789   3.379 -0.2116 -1.3684 -2.3747
17879SOL    HW255506   2.334   2.926   3.318 -0.6509  0.7298  1.7727
17880SOL     OW55507   0.356   7.191   3.041  0.8589 -0.1951 -0.1130
17880SOL    HW155508   0.288   7.125   3.026 -0.4359  1.0914 -0.1366
17880SOL    HW255509   0.309   7.266   3.078  2.0393  1.2216 -1.3528
17881SOL     OW55510   5.371   1.033   0.661  0.1072  0.6249 -0.4314
17881SOL    HW155511   5.296   1.079   0.699 -0.4066 -0.6604  0.1760
17881SOL    HW255512   5.356   0.941   0.682  1.7449  0.3057 -0.5022
17882SOL     OW55513   5.796   4.571   5.824  0.6944 -0.3015  0.2979
17882SOL    HW155514   5.844   4.530   5.897  1.4498  0.7205  0.4101
17882SOL    HW255515   5.712   4.527   5.823  0.6848 -0.3919  1.7715
17883SOL     OW55516   0.323   4.399   3.378 -0.2864  0.2221  0.0263
17883SOL    HW155517   0.330   4.466   3.445 -0.2060 -0.9301  1.2150
17883SOL    HW255518   0.328   4.316   3.426 -0.0361 -0.6420 -1.4221
17884SOL     OW55519   8.063   5.809   6.216 -0.0718 -0.0764 -0.1697
17884SOL    HW155520   8.026   5.895   6.237 -2.6205 -0.7989 -1.2744
17884SOL    HW255521   8.019   5.783   6.135  0.0482 -2.7281  0.5205
17885SOL     OW55522   8.833   5.577   0.197 -0.0577  0.1442 -0.1232
17885SOL    HW155523   8.818   5.484   0.216 -1.1983  0.5713  1.2400
17885SOL    HW255524   8.760   5.600   0.139  0.1027  0.2416 -0.2856
17886SOL     OW55525   6.659   6.166   5.740 -0.6712 -0.0248  0.0244
17886SOL    HW155526   6.570   6.170   5.705 -1.5760  2.3803  2.3282
17886SOL    HW255527   6.652   6.108   5.816 -2.0747  4.8884  4.2042
17887SOL     OW55528   7.995   6.348   6.048 -0.7720  0.7092  0.1354
17887SOL    HW155529   7.996   6.411   6.121  1.9269  1.1660 -0.2149
17887SOL    HW255530   8.041   6.272   6.083 -3.0546 -0.7329  0.1831
17888SOL     OW55531   5.055   4.506   1.037  0.3531 -0.2152 -0.0357
17888SOL    HW155532   5.128   4.451   1.064  1.8152  1.1160 -1.0639
17888SOL    HW255533   5.056   4.502   0.941 -0.3566  0.5215 -0.0873
17889SOL     OW55534   6.851   8.510   3.477  0.7009 -0.2131  0.2069
17889SOL    HW155535   6.797   8.433   3.465  1.7807 -0.8622 -0.6727
17889SOL    HW255536   6.860   8.547   3.389 -0.1635  1.1882  0.6743
17890SOL     OW55537   5.388   3.661   1.906 -0.1668  0.7440  0.5792
17890SOL    HW155538   5.354   3.750   1.894  0.1029  0.9875  1.5310
17890SOL    HW255539   5.310   3.606   1.909 -0.3060  0.8475 -0.7263
17891SOL     OW55540   4.577   3.515   7.075  0.0202  0.0887 -0.8884
17891SOL    HW155541   4.535   3.450   7.018 -0.6073  0.7589 -1.2172
17891SOL    HW255542   4.670   3.496   7.069 -0.2816 -2.4235  1.0710
17892SOL     OW55543   1.588   4.203   2.953 -0.3477 -1.1120 -1.0007
17892SOL    HW155544   1.669   4.193   3.002 -1.3306 -0.7644  0.7936
17892SOL    HW255545   1.608   4.269   2.886  0.2793  0.6658  0.8233
17893SOL     OW55546   5.685   0.488   5.126 -0.2729 -0.4373  0.2556
17893SOL    HW155547   5.744   0.484   5.201  2.4006  5.2970 -0.9143
17893SOL    HW255548   5.618   0.550   5.152 -1.1720 -0.8200 -1.0712
17894SOL     OW55549   5.411   8.204   2.101  0.6203 -0.2941 -0.3228
17894SOL    HW155550   5.499   8.236   2.119  0.8487 -1.2576  0.3127
17894SOL    HW255551   5.372   8.272   2.046  1.6472  0.2869 -0.3548
17895SOL     OW55552   0.066   0.080   6.062 -0.0385 -0.0812  0.1615
17895SOL    HW155553  -0.001   0.115   6.122 -0.0357  0.6518 -0.2447
17895SOL    HW255554   0.045  -0.013   6.054 -2.0048  0.4215 -1.1982
17896SOL     OW55555   1.248   7.892   8.780  0.3785  0.2351  0.2607
17896SOL    HW155556   1.343   7.904   8.773  0.1538  1.0903 -2.6403
17896SOL    HW255557   1.214   7.981   8.790 -0.1568 -0.0652  1.2539
17897SOL     OW55558   5.892   5.484   7.175 -0.2707  0.0681 -1.2613
17897SOL    HW155559   5.854   5.535   7.103 -0.1948 -0.0990 -1.4213
17897SOL    HW255560   5.974   5.529   7.195 -1.8214  2.1308  0.9861
17898SOL     OW55561   2.793   8.281   0.644  0.5260 -0.2615 -0.3198
17898SOL    HW155562   2.884   8.310   0.642  0.8116 -1.1387 -0.2005
17898SOL    HW255563   2.797   8.187   0.626 -0.3319 -0.3634 -0.0102
17899SOL     OW55564   0.910   0.922   8.682 -0.0363  0.2240 -0.0979
17899SOL    HW155565   0.916   0.827   8.676  0.5244  0.2270  0.3579
17899SOL    HW255566   0.924   0.953   8.592  1.1414 -0.0616 -0.0270
17900SOL     OW55567   5.275   8.814   7.362 -0.2093 -0.5987 -0.1668
17900SOL    HW155568   5.352   8.807   7.306  0.5019  0.1938  0.6732
17900SOL    HW255569   5.248   8.723   7.376  1.1043 -0.9599  0.2278
17901SOL     OW55570   3.796   6.095   5.354  0.6338 -0.2376 -0.5042
17901SOL    HW155571   3.751   6.164   5.403  1.1461  0.7520 -1.3835
17901SOL    HW255572   3.887   6.125   5.350  0.9791 -1.2565 -0.4055
17902SOL     OW55573   0.501   7.841   1.257 -1.1365  0.3034 -0.0763
17902SOL    HW155574   0.479   7.917   1.310  0.0444  0.0314  0.8502
17902SOL    HW255575   0.419   7.793   1.247 -1.6170  1.0032  0.4577
17903SOL     OW55576   4.711   3.339   1.460 -0.5131  0.4745  0.1695
17903SOL    HW155577   4.666   3.424   1.462  0.6884  1.1760 -0.9348
17903SOL    HW255578   4.722   3.320   1.366 -1.9662 -1.5961  0.3570
17904SOL     OW55579   4.258   0.305   1.293  0.0220 -0.5134  0.4920
17904SOL    HW155580   4.293   0.379   1.242 -0.4067 -1.3353 -1.0409
17904SOL    HW255581   4.289   0.227   1.247 -2.4932 -1.2836 -0.0280
17905SOL     OW55582   2.906   5.175   2.612  0.6136  0.5354  0.0370
17905SOL    HW155583   2.904   5.201   2.705  1.6239  1.7175 -0.2422
17905SOL    HW255584   2.886   5.255   2.565 -1.1864 -0.3427 -0.7658
17906SOL     OW55585   3.710   5.903   6.654  0.1300 -0.0664 -0.1796
17906SOL    HW155586   3.757   5.983   6.633 -0.8616  0.2504 -1.3055
17906SOL    HW255587   3.651   5.890   6.579 -0.0096 -1.6207  0.1769
17907SOL     OW55588   1.187   5.554   3.594  0.1545  0.4030 -0.1879
17907SOL    HW155589   1.108   5.602   3.568  0.1379  0.2130 -0.4999
17907SOL    HW255590   1.224   5.604   3.666 -1.2631 -0.4753  1.2226
17908SOL     OW55591   4.942   7.306   0.845 -0.3376  0.7762  0.2747
17908SOL    HW155592   4.877   7.277   0.909  1.5169  0.9469  2.3637
17908SOL    HW255593   4.891   7.343   0.774 -2.5875 -1.4904  0.5635
17909SOL     OW55594   0.681   1.154   7.205 -0.1140 -0.4382  0.3821
17909SOL    HW155595   0.636   1.102   7.138  0.0532 -0.7705  0.5282
17909SOL    HW255596   0.769   1.116   7.211 -0.1695 -0.4986  0.8872
17910SOL     OW55597   2.826   6.267   8.745 -0.0678  0.0765  0.2160
17910SOL    HW155598   2.762   6.210   8.788  0.5715 -0.8476 -0.0374
17910SOL    HW255599   2.909   6.220   8.753  0.3417  0.6382 -0.6466
17911SOL     OW55600   5.817   2.152   0.213 -0.2630 -0.0751  0.4745
17911SOL    HW155601   5.844   2.072   0.166 -2.7162 -0.5759 -0.2312
17911SOL    HW255602   5.816   2.126   0.305  1.9085  0.0940  0.5911
17912SOL     OW55603   3.353   6.775   7.776 -0.4328  0.1030 -0.8590
17912SOL    HW155604   3.271   6.783   7.726 -0.5269 -1.1154 -0.9346
17912SOL    HW255605   3.331   6.808   7.863 -0.8832  0.2168 -1.0105
17913SOL     OW55606   3.674   2.003   1.030  0.1467 -0.5058 -0.1305
17913SOL    HW155607   3.745   1.990   0.966  0.0971  3.3161 -1.1990
17913SOL    HW255608   3.597   1.968   0.986  0.4000  0.6201 -1.5615
17914SOL     OW55609   5.410   2.524   3.302  0.2557  0.5779 -0.3810
17914SOL    HW155610   5.365   2.547   3.221 -1.3579  1.1978  0.6286
17914SOL    HW255611   5.399   2.429   3.309  0.4545  0.5140 -0.9139
17915SOL     OW55612   4.112   1.269   6.622  0.5882 -0.3414  0.1316
17915SOL    HW155613   4.148   1.233   6.541 -0.5366 -0.1166 -0.4873
17915SOL    HW255614   4.058   1.342   6.594  0.1858 -0.2535  1.0975
17916SOL     OW55615   0.926   5.475   2.353  0.2716 -0.4953  0.0003
17916SOL    HW155616   0.950   5.472   2.260  0.4284 -0.3843  0.0359
17916SOL    HW255617   0.875   5.555   2.362 -1.1963 -1.3500 -0.3229
17917SOL     OW55618   5.564   6.354   1.120  0.2138 -0.5432 -0.3825
17917SOL    HW155619   5.593   6.382   1.034  0.2797  0.8169  0.0621
17917SOL    HW255620   5.572   6.432   1.175 -1.0658 -1.0247  0.5441
17918SOL     OW55621   8.221   5.180   3.200  0.0865 -0.0165 -0.0089
17918SOL    HW155622   8.295   5.225   3.240 -0.5117  0.5249  0.5142
17918SOL    HW255623   8.261   5.110   3.148  1.1588  1.9461 -2.0149
17919SOL     OW55624   7.740   0.497   5.653  0.1480 -0.3144  0.8397
17919SOL    HW155625   7.705   0.454   5.574 -0.9692 -0.4411  1.3890
17919SOL    HW255626   7.705   0.586   5.649 -1.8954 -0.9548  2.3398
17920SOL     OW55627   4.987   2.751   1.318  0.1349  0.7584  0.3461
17920SOL    HW155628   4.966   2.841   1.344 -0.7313  0.5651  0.3644
17920SOL    HW255629   4.903   2.706   1.322  0.5925 -0.0925  0.4910
17921SOL     OW55630   6.961   0.124   7.817  0.0246  0.0806  0.2253
17921SOL    HW155631   7.023   0.051   7.814 -0.5312 -0.5314  2.1952
17921SOL    HW255632   6.888   0.097   7.761  0.6558 -0.0412 -0.5449
17922SOL     OW55633   1.595   6.776   0.185  0.5342  0.6195  0.1753
17922SOL    HW155634   1.683   6.784   0.148  0.4467 -0.1703 -0.2363
17922SOL    HW255635   1.568   6.687   0.162 -0.7954  1.2045 -0.6376
17923SOL     OW55636   6.743   5.173   1.422 -0.4003 -0.2799  0.0379
17923SOL    HW155637   6.838   5.171   1.428 -0.3026 -2.9586 -1.3102
17923SOL    HW255638   6.724   5.174   1.328 -1.7614  1.2257  0.2681
17924SOL     OW55639   7.695   6.652   5.022 -0.4015 -0.4874  0.4636
17924SOL    HW155640   7.732   6.600   4.951 -0.5010 -0.1737  0.1743
17924SOL    HW255641   7.747   6.630   5.099  0.8819  0.4996 -0.0854
17925SOL     OW55642   6.659   8.579   1.120 -0.5598  0.4840 -0.7402
17925SOL    HW155643   6.749   8.590   1.090  0.9106 -0.0306  2.9353
17925SOL    HW255644   6.638   8.487   1.103 -0.1015  0.4286 -0.9967
17926SOL     OW55645   2.436   4.585   7.331  0.2677 -0.0181 -0.0664
17926SOL    HW155646   2.469   4.675   7.331  0.6706 -0.0809 -2.4742
17926SOL    HW255647   2.348   4.591   7.368  0.1984  1.4175 -0.4102
17927SOL     OW55648   2.738   2.936   0.154 -0.8598 -0.4786  0.2603
17927SOL    HW155649   2.720   2.988   0.076 -1.0011 -0.6828  0.1546
17927SOL    HW255650   2.812   2.881   0.130  0.6519  1.1303  1.0544
17928SOL     OW55651   2.996   0.872   2.570 -0.1473  0.6479  0.0297
17928SOL    HW155652   2.976   0.784   2.602  1.3588  0.3933  0.3274
17928SOL    HW255653   3.008   0.860   2.476 -1.2145  0.7903 -0.1417
17929SOL     OW55654   0.114   5.062   8.918  0.0500  1.1010  0.1630
17929SOL    HW155655   0.086   5.101   9.001  0.5887  0.2323  0.7753
17929SOL    HW255656   0.159   5.133   8.872 -0.6135  1.7032  0.4277
17930SOL     OW55657   8.553   0.273   3.237 -0.7225 -0.4698 -0.1141
17930SOL    HW155658   8.640   0.309   3.255 -0.5672 -0.5833 -0.6213
17930SOL    HW255659   8.504   0.288   3.318 -0.8192  1.2906 -0.4664
17931SOL     OW55660   7.015   4.666   4.101  0.3264 -0.4784 -0.0841
17931SOL    HW155661   7.066   4.585   4.102  1.9514  0.4481 -1.3261
17931SOL    HW255662   6.969   4.667   4.184  0.5337 -2.5063  0.0933
17932SOL     OW55663   6.286   2.155   4.201  0.2006 -0.1585 -0.0018
17932SOL    HW155664   6.314   2.245   4.187  1.6606 -0.7116 -0.9071
17932SOL    HW255665   6.368   2.104   4.199 -0.3785 -1.3013  2.3945
17933SOL     OW55666   6.524   4.008   0.052 -0.2075  0.2040  0.1735
17933SOL    HW155667   6.516   4.095   0.012 -0.0440 -0.7488 -2.0404
17933SOL    HW255668   6.471   4.014   0.131 -2.4040  1.5409 -1.2917
17934SOL     OW55669   7.395   2.863   1.475 -0.2615  0.1660  0.5475
17934SOL    HW155670   7.388   2.768   1.472  2.8698 -0.1606 -0.2896
17934SOL    HW255671   7.386   2.891   1.384 -1.2199  0.7180  0.7917
17935SOL     OW55672   1.401   5.980   2.111 -0.2229 -0.5587 -0.5522
17935SOL    HW155673   1.375   5.918   2.179  1.7987  1.8722  2.7922
17935SOL    HW255674   1.334   6.049   2.114  0.9835  0.6467  0.7431
17936SOL     OW55675   6.241   2.636   1.286 -0.7090  0.5942  0.3469
17936SOL    HW155676   6.271   2.727   1.288  2.2937 -0.2211 -1.1720
17936SOL    HW255677   6.275   2.598   1.367 -2.5481  0.9117  1.3160
17937SOL     OW55678   1.382   3.041   6.035 -0.1146 -0.6492  0.0870
17937SOL    HW155679   1.473   3.012   6.041 -0.5325 -2.3795 -1.2932
17937SOL    HW255680   1.356   3.022   5.945 -2.0277 -0.7736  0.6185
17938SOL     OW55681   1.620   4.068   0.436 -0.0353  0.2750  0.8417
17938SOL    HW155682   1.604   4.041   0.345 -0.8132  1.2847  0.6693
17938SOL    HW255683   1.623   3.986   0.485  1.1873 -0.3481 -0.1976
17939SOL     OW55684   4.331   8.010   7.682  0.0905 -0.0659  0.2006
17939SOL    HW155685   4.265   8.005   7.751 -0.8883  0.9692 -0.6108
17939SOL    HW255686   4.292   8.068   7.616  0.5915 -1.7064 -1.6435
17940SOL     OW55687   1.626   0.164   0.340 -0.1671  0.4521 -0.9180
17940SOL    HW155688   1.534   0.140   0.352  0.3901 -0.6257  2.0945
17940SOL    HW255689   1.674   0.089   0.374  1.8247  1.4297 -1.4636
17941SOL     OW55690   0.967   2.100   0.991  0.6942  0.0629 -0.3999
17941SOL    HW155691   0.995   2.184   0.955  1.0406  0.3745  0.5751
17941SOL    HW255692   0.976   2.110   1.086  0.8150 -1.0998 -0.2783
17942SOL     OW55693   3.399   1.673   7.727  0.7674  0.1432 -0.0003
17942SOL    HW155694   3.403   1.683   7.632  2.3267 -0.3788 -0.0268
17942SOL    HW255695   3.383   1.580   7.741 -0.0937  0.3286  0.2483
17943SOL     OW55696   5.375   3.521   2.571 -0.1464 -0.2646  0.4030
17943SOL    HW155697   5.423   3.536   2.653 -1.3250  0.5882  0.9662
17943SOL    HW255698   5.322   3.444   2.588 -0.5838  0.0634  0.5409
17944SOL     OW55699   7.996   1.424   7.557  0.1089  0.3977 -0.3379
17944SOL    HW155700   7.978   1.488   7.489 -0.5375  0.0741 -0.4797
17944SOL    HW255701   8.026   1.475   7.632  1.5509  0.7051 -1.0893
17945SOL     OW55702   3.237   7.444   7.361  0.2184 -0.6760 -0.4006
17945SOL    HW155703   3.235   7.486   7.275 -1.8182 -1.2005 -0.6534
17945SOL    HW255704   3.241   7.350   7.341  0.9101 -0.7680  0.1143
17946SOL     OW55705   1.971   2.000   1.558  0.2837 -0.0770  0.2740
17946SOL    HW155706   2.057   2.043   1.557 -0.0887  0.6792 -0.8351
17946SOL    HW255707   1.958   1.968   1.469  0.4855 -2.4763  1.0319
17947SOL     OW55708   7.427   6.832   4.286 -0.0683 -0.3733  0.3507
17947SOL    HW155709   7.360   6.893   4.318 -0.2200  0.2463 -1.0873
17947SOL    HW255710   7.484   6.818   4.362 -1.3715 -0.3140  1.3866
17948SOL     OW55711   0.740   2.933   4.207 -0.7576 -0.1136  0.2039
17948SOL    HW155712   0.744   2.876   4.130 -0.2087 -1.0500  0.9036
17948SOL    HW255713   0.739   2.873   4.282  0.9448  0.7861  1.0157
17949SOL     OW55714   5.355   2.497   0.066  0.0706 -0.0136 -0.7656
17949SOL    HW155715   5.445   2.478   0.092 -0.1163  1.6037  1.2962
17949SOL    HW255716   5.301   2.455   0.134 -0.7047  0.0567 -1.3167
17950SOL     OW55717   3.503   3.847   2.858 -0.0970 -0.1769 -0.6829
17950SOL    HW155718   3.452   3.778   2.817 -0.0490 -0.3571 -0.4401
17950SOL    HW255719   3.583   3.853   2.805  0.5906 -1.3499  0.1704
17951SOL     OW55720   4.903   0.917   2.000  0.5606  0.5884  0.5297
17951SOL    HW155721   4.928   0.921   1.908 -0.7660  0.2349  0.1353
17951SOL    HW255722   4.815   0.954   2.003  0.1896 -0.2978  1.4880
17952SOL     OW55723   1.003   7.652   6.341  0.0573 -0.1048 -0.2441
17952SOL    HW155724   1.080   7.647   6.285  0.0451 -1.0546 -0.1904
17952SOL    HW255725   1.031   7.704   6.416 -0.1742  1.9259 -1.4963
17953SOL     OW55726   5.739   1.095   6.415 -0.3907  0.4203  0.4871
17953SOL    HW155727   5.794   1.145   6.475  2.4602 -0.6522 -1.0501
17953SOL    HW255728   5.718   1.157   6.344 -1.5693  0.9317  1.2459
17954SOL     OW55729   0.143   3.192   8.834 -0.3064  0.1883  0.2733
17954SOL    HW155730   0.112   3.125   8.894 -1.0937 -0.2710 -0.6296
17954SOL    HW255731   0.218   3.152   8.790  0.2417  0.5090  0.8789
17955SOL     OW55732   4.594   1.532   4.473  0.4282  0.2000 -0.3542
17955SOL    HW155733   4.631   1.488   4.396  1.6058  0.8755 -0.1978
17955SOL    HW255734   4.665   1.588   4.505 -0.4260  0.7926  0.5538
17956SOL     OW55735   0.094   8.821   7.124 -0.3159  0.8466 -0.1021
17956SOL    HW155736   0.135   8.875   7.057 -0.6359  1.0992 -0.0995
17956SOL    HW255737   0.001   8.844   7.120  0.0948  4.1937  3.3151
17957SOL     OW55738   2.919   3.249   3.814 -0.5583 -0.3041  0.4007
17957SOL    HW155739   2.979   3.195   3.866 -0.0804  0.5141  0.7050
17957SOL    HW255740   2.963   3.257   3.729 -0.8145 -0.7135  0.2275
17958SOL     OW55741   1.184   0.698   1.674  0.2927  0.0274  0.0200
17958SOL    HW155742   1.091   0.677   1.670  0.2970 -0.5519  1.9582
17958SOL    HW255743   1.189   0.790   1.648 -0.9604  0.3794  0.9487
17959SOL     OW55744   3.051   4.460   2.037 -0.0268  0.3642 -0.4513
17959SOL    HW155745   3.127   4.407   2.012 -1.2623 -1.0025 -1.4825
17959SOL    HW255746   3.079   4.550   2.023  1.4586 -0.0894 -0.6126
17960SOL     OW55747   1.914   6.405   7.502 -0.0454  0.2534  0.3549
17960SOL    HW155748   1.882   6.317   7.482 -1.0452  0.5239  0.7228
17960SOL    HW255749   1.999   6.390   7.543 -0.0984 -0.5276  0.2079
17961SOL     OW55750   4.642   7.322   4.111 -0.5363 -0.2909  0.8731
17961SOL    HW155751   4.716   7.286   4.063 -2.0295 -0.5825 -1.3640
17961SOL    HW255752   4.670   7.410   4.136  0.5272 -0.3611 -0.0075
17962SOL     OW55753   8.292   8.031   8.237 -0.0921 -0.2354  0.2845
17962SOL    HW155754   8.291   8.069   8.149 -1.4549  1.2015  0.8576
17962SOL    HW255755   8.266   7.940   8.224  0.0969 -0.1514 -0.8284
17963SOL     OW55756   1.886   1.759   4.413  0.2923  0.2263  0.5195
17963SOL    HW155757   1.845   1.800   4.489 -0.3524  1.4579 -0.4631
17963SOL    HW255758   1.852   1.808   4.338  2.7494  0.6001 -0.4290
17964SOL     OW55759   2.458   2.460   1.321  0.0717 -0.3126 -0.0654
17964SOL    HW155760   2.441   2.370   1.350  0.6988 -1.0906 -1.9431
17964SOL    HW255761   2.537   2.486   1.367 -1.2906  0.1599  2.1839
17965SOL     OW55762   1.341   8.797   5.678 -0.1480 -0.2557 -0.4114
17965SOL    HW155763   1.377   8.885   5.686  0.1838 -0.3866 -0.4706
17965SOL    HW255764   1.417   8.741   5.660 -0.4612 -0.4361 -1.2120
17966SOL     OW55765   2.340   2.599   5.962 -0.4490 -0.4515 -0.0152
17966SOL    HW155766   2.279   2.653   6.011 -0.2269 -0.1075 -0.1153
17966SOL    HW255767   2.397   2.661   5.916  0.5006 -0.7451  0.7224
17967SOL     OW55768   3.204   0.980   1.214 -0.3309  0.2362 -0.2420
17967SOL    HW155769   3.213   0.885   1.208  0.4643  0.3669 -1.4106
17967SOL    HW255770   3.109   0.995   1.218 -0.5963 -0.5299 -2.2163
17968SOL     OW55771   1.484   4.383   1.213  0.0551 -0.5783 -0.0419
17968SOL    HW155772   1.480   4.348   1.303  3.1462 -1.3496 -0.1066
17968SOL    HW255773   1.411   4.340   1.168 -1.5414 -0.2132  2.0323
17969SOL     OW55774   6.612   8.686   7.141 -0.4893 -0.8131 -0.7555
17969SOL    HW155775   6.703   8.715   7.130 -0.9580  1.4279  0.6022
17969SOL    HW255776   6.618   8.611   7.201  0.4677 -0.5131 -0.4514
17970SOL     OW55777   5.340   0.584   4.216 -0.0383 -0.2384 -0.1316
17970SOL    HW155778   5.365   0.494   4.193  0.2510  0.0108 -0.8357
17970SOL    HW255779   5.250   0.578   4.245  0.8195 -1.1972  2.5949
17971SOL     OW55780   8.391   8.541   8.989 -0.2515 -0.5998  0.2703
17971SOL    HW155781   8.485   8.534   9.009 -0.5388 -0.6939  1.6896
17971SOL    HW255782   8.366   8.453   8.960  0.0167 -0.6673  0.2401
17972SOL     OW55783   7.789   6.560   7.986 -0.6336 -0.7490  0.1287
17972SOL    HW155784   7.721   6.603   7.935 -0.7358 -0.0264  0.8624
17972SOL    HW255785   7.748   6.542   8.071  0.0663 -0.3463  0.5652
17973SOL     OW55786   6.110   2.604   5.189  0.5626 -0.2577  0.1592
17973SOL    HW155787   6.023   2.644   5.181 -0.5052 -2.5787 -0.7645
17973SOL    HW255788   6.093   2.517   5.226  2.3108 -1.2922 -1.2792
17974SOL     OW55789   2.811   8.850   4.239  0.4682  0.6387  0.3051
17974SOL    HW155790   2.846   8.923   4.188  0.9498  1.4129  1.7049
17974SOL    HW255791   2.773   8.891   4.317  0.1282 -0.5557  0.7874
17975SOL     OW55792   0.199   0.160   4.277  0.3644 -0.1759  0.4228
17975SOL    HW155793   0.210   0.228   4.211  3.1270 -0.6369  0.3253
17975SOL    HW255794   0.104   0.159   4.294 -0.6041 -0.4744 -3.9257
17976SOL     OW55795   5.688   0.002   8.338  0.1161 -0.0103 -0.6497
17976SOL    HW155796   5.780  -0.019   8.352  0.0782  0.3765  0.3287
17976SOL    HW255797   5.689   0.089   8.298  0.1986 -0.5141 -1.7547
17977SOL     OW55798   0.779   5.365   5.648  0.1196 -0.7471 -0.4032
17977SOL    HW155799   0.685   5.356   5.664 -0.2262  0.2625 -1.6859
17977SOL    HW255800   0.797   5.458   5.660  1.0503 -0.9910  0.2168
17978SOL     OW55801   8.310   8.693   1.549  0.0055 -0.0565 -0.2135
17978SOL    HW155802   8.348   8.606   1.561 -0.3995 -0.2471 -0.3321
17978SOL    HW255803   8.232   8.679   1.497  1.3167  0.6653 -2.5031
17979SOL     OW55804   6.646   2.818   7.686  0.3498 -0.2171 -0.8165
17979SOL    HW155805   6.687   2.846   7.768  0.9817 -0.0752 -1.1706
17979SOL    HW255806   6.720   2.790   7.632 -0.1367 -1.1239 -1.0265
17980SOL     OW55807   7.950   8.749   0.468 -0.1898 -0.0403 -0.0501
17980SOL    HW155808   7.943   8.843   0.484 -1.2258 -0.3732  1.7155
17980SOL    HW255809   8.042   8.728   0.483  0.0129  0.6567 -0.3145
17981SOL     OW55810   8.783   7.702   0.493  0.3201 -0.5434 -0.4806
17981SOL    HW155811   8.852   7.766   0.508 -1.6748  1.7788 -0.5733
17981SOL    HW255812   8.779   7.651   0.574  0.7405  0.6913  0.3422
17982SOL     OW55813   4.609   0.891   1.565  0.3165 -0.0536  0.1648
17982SOL    HW155814   4.533   0.910   1.510 -0.8390  0.6467  1.9060
17982SOL    HW255815   4.666   0.967   1.555 -0.5438  0.7270  0.9452
17983SOL     OW55816   4.065   8.274   2.954  0.4435  0.0841 -0.5791
17983SOL    HW155817   4.054   8.368   2.938  0.8795 -0.3660 -4.4698
17983SOL    HW255818   3.989   8.234   2.911 -0.3322 -1.3757  1.9573
17984SOL     OW55819   0.918   6.319   3.865 -0.7340 -0.0144 -0.8569
17984SOL    HW155820   0.956   6.237   3.835 -1.0967 -0.0573 -1.2062
17984SOL    HW255821   0.851   6.292   3.929  0.5896  0.1048  0.6592
17985SOL     OW55822   4.897   5.759   2.486  0.0330  1.0043  0.0705
17985SOL    HW155823   4.963   5.820   2.454 -0.4645  0.9872 -1.0232
17985SOL    HW255824   4.816   5.788   2.444 -0.5171  0.5808  0.8199
17986SOL     OW55825   7.597   1.842   1.798 -0.3933 -0.0678 -0.5823
17986SOL    HW155826   7.667   1.810   1.856 -0.0633  1.1237 -0.2908
17986SOL    HW255827   7.519   1.842   1.852 -0.1782  0.6027 -0.2585
17987SOL     OW55828   5.315   7.758   6.080  0.1690  0.1163 -0.0415
17987SOL    HW155829   5.271   7.742   6.164 -0.4789 -0.6070 -0.5044
17987SOL    HW255830   5.248   7.743   6.014  0.4138  1.6213 -0.6750
17988SOL     OW55831   8.728   2.856   6.201  0.5849 -0.0348  0.7509
17988SOL    HW155832   8.713   2.887   6.291 -0.0567 -1.3648  1.1127
17988SOL    HW255833   8.792   2.786   6.210  0.1626 -0.4962  0.2253
17989SOL     OW55834   3.892   3.768   0.449  0.0398  0.2380 -0.2199
17989SOL    HW155835   3.959   3.715   0.406  0.1952 -0.7696  1.1833
17989SOL    HW255836   3.828   3.704   0.480 -1.8898  1.2214 -1.9701
17990SOL     OW55837   1.369   1.311   1.920  0.9374  0.5376 -0.3748
17990SOL    HW155838   1.281   1.283   1.896  1.3143 -2.4427  1.2845
17990SOL    HW255839   1.419   1.230   1.928  3.7603  2.1108 -0.8392
17991SOL     OW55840   2.176   6.722   4.769 -0.4872  0.0399  0.2699
17991SOL    HW155841   2.177   6.695   4.861 -1.4748 -0.4393  0.1521
17991SOL    HW255842   2.125   6.654   4.725 -1.3056  1.0605 -0.3779
17992SOL     OW55843   4.953   2.510   6.156 -0.1027 -0.0699  0.2362
17992SOL    HW155844   4.918   2.592   6.192  1.2773  0.0850  1.3036
17992SOL    HW255845   4.876   2.461   6.128 -1.0145  1.1730  0.4897
17993SOL     OW55846   0.584   3.351   0.820  0.4232  0.0055 -0.0869
17993SOL    HW155847   0.639   3.365   0.897  1.0497  0.5213 -0.6237
17993SOL    HW255848   0.511   3.298   0.853  1.6459 -1.4180  0.4737
17994SOL     OW55849   5.703   6.528   2.379  0.0216 -0.0602 -0.1396
17994SOL    HW155850   5.792   6.494   2.381 -0.0402 -0.2560 -0.6227
17994SOL    HW255851   5.649   6.456   2.410  0.2511  0.8494  2.6568
17995SOL     OW55852   8.155   3.329   2.899  0.2483 -0.0156  0.3430
17995SOL    HW155853   8.204   3.406   2.927  1.3893 -0.4661 -0.3504
17995SOL    HW255854   8.091   3.363   2.836  0.6281  0.3894  0.1716
17996SOL     OW55855   7.649   1.004   2.392  0.2141  0.0185 -0.3297
17996SOL    HW155856   7.714   1.073   2.405 -0.9120  1.6180 -2.6725
17996SOL    HW255857   7.702   0.925   2.380  1.5517  0.5402  1.5777
17997SOL     OW55858   5.073   5.581   5.913  0.6512 -0.7509  0.0264
17997SOL    HW155859   5.040   5.502   5.870 -1.7545  1.0336 -1.6997
17997SOL    HW255860   5.155   5.601   5.867  0.6178 -1.5431 -0.3935
17998SOL     OW55861   2.548   0.089   6.129  0.3365  0.5694 -0.2187
17998SOL    HW155862   2.480   0.086   6.196 -1.7020  1.0370 -2.1514
17998SOL    HW255863   2.526   0.166   6.077  0.6211 -0.8762 -2.6149
17999SOL     OW55864   2.299   1.541   4.969  0.4532 -0.1177  0.3550
17999SOL    HW155865   2.383   1.554   5.014  1.4576 -2.5731 -0.6130
17999SOL    HW255866   2.265   1.459   5.004 -1.5063  0.7222  0.5657
18000SOL     OW55867   2.343   5.864   2.544  0.7126  0.4667 -0.2743
18000SOL    HW155868   2.318   5.788   2.596 -1.5837  0.4089 -1.3294
18000SOL    HW255869   2.403   5.829   2.477  0.8322 -0.1159  0.1317
18001SOL     OW55870   0.908   8.134   4.901  0.0980  0.1952 -0.7135
18001SOL    HW155871   0.815   8.109   4.910  0.3590 -0.5646  0.0596
18001SOL    HW255872   0.907   8.229   4.900 -0.4709  0.3476  2.5631
18002SOL     OW55873   3.937   5.376   0.278  0.6773  0.4685 -0.4696
18002SOL    HW155874   3.974   5.430   0.348 -0.9035  0.9174  0.0718
18002SOL    HW255875   3.890   5.438   0.222 -1.6735 -0.3194  0.4881
18003SOL     OW55876   4.294   2.886   7.114 -0.5645  0.2619  0.0146
18003SOL    HW155877   4.275   2.921   7.202 -0.3934 -1.3150  0.7117
18003SOL    HW255878   4.236   2.810   7.105  0.6630 -0.6483 -0.5104
18004SOL     OW55879   7.930   3.432   0.070 -0.4944 -0.4090  0.2009
18004SOL    HW155880   8.012   3.399   0.033 -0.5086 -0.7435  0.4660
18004SOL    HW255881   7.863   3.406   0.006 -0.6117 -1.6026  0.7903
18005SOL     OW55882   6.720   5.470   2.564 -0.0998 -0.0422 -0.1583
18005SOL    HW155883   6.635   5.435   2.593  1.0366 -0.5900  2.8960
18005SOL    HW255884   6.768   5.393   2.534  0.5023 -0.3695  1.5066
18006SOL     OW55885   5.844   5.375   7.653 -1.2584 -0.0311 -0.0157
18006SOL    HW155886   5.925   5.324   7.661 -0.3433  1.4032  0.3085
18006SOL    HW255887   5.861   5.434   7.579 -1.2070  1.6248  1.2592
18007SOL     OW55888   2.893   6.963   1.190  0.1004 -0.0954  0.4645
18007SOL    HW155889   2.829   6.900   1.223 -0.4429  1.1426  1.9159
18007SOL    HW255890   2.972   6.946   1.241  0.4283 -0.5231 -0.1631
18008SOL     OW55891   1.106   7.729   8.551  0.2237 -0.1785  0.0266
18008SOL    HW155892   1.083   7.780   8.474 -0.3276  0.7702  0.7910
18008SOL    HW255893   1.101   7.791   8.623  1.1874 -0.9287  0.7756
18009SOL     OW55894   3.503   7.863   1.373  0.1635 -0.5971  0.1105
18009SOL    HW155895   3.494   7.928   1.303  1.7115  0.1782  0.5922
18009SOL    HW255896   3.433   7.885   1.435  0.6836  0.6758  0.2878
18010SOL     OW55897   4.550   3.432   1.886 -0.5690  0.7379 -0.1674
18010SOL    HW155898   4.527   3.512   1.933 -0.8070  1.2208 -1.0704
18010SOL    HW255899   4.481   3.422   1.820  0.3093  0.6806 -1.1021
18011SOL     OW55900   0.620   7.089   7.726 -0.3568 -0.3715 -0.0114
18011SOL    HW155901   0.622   6.996   7.702 -2.5174 -0.4601 -0.0375
18011SOL    HW255902   0.552   7.127   7.671 -0.4241  0.9492  0.9309
18012SOL     OW55903   3.146   4.257   2.277  0.2255 -0.0601 -0.0947
18012SOL    HW155904   3.152   4.177   2.329  1.8589 -0.1361 -0.3519
18012SOL    HW255905   3.151   4.328   2.340  1.9839 -0.1551 -0.0884
18013SOL     OW55906   2.454   1.118   5.495  0.2385  0.0250 -0.4834
18013SOL    HW155907   2.424   1.192   5.442 -0.9179  0.4543  0.7171
18013SOL    HW255908   2.390   1.112   5.566  0.4152 -2.0076 -0.4360
18014SOL     OW55909   6.416   5.751   2.058  0.1153  0.1040  0.2488
18014SOL    HW155910   6.412   5.805   2.137  0.8273 -0.9046  0.9822
18014SOL    HW255911   6.385   5.810   1.988 -1.1296  0.8206  1.3505
18015SOL     OW55912   3.644   1.500   1.654  0.5652  0.3552 -0.3559
18015SOL    HW155913   3.633   1.454   1.738 -1.6357  0.9843 -0.2311
18015SOL    HW255914   3.595   1.447   1.592  1.3429  0.4474 -1.0614
18016SOL     OW55915   0.924   8.127   5.372 -0.4682 -0.0703  0.0864
18016SOL    HW155916   0.865   8.165   5.306 -1.4206 -1.6032  0.0001
18016SOL    HW255917   0.870   8.118   5.450 -0.4569 -1.7293 -0.0641
18017SOL     OW55918   6.690   5.891   1.970 -0.2497 -0.7018 -0.3237
18017SOL    HW155919   6.720   5.862   1.884  0.8447  0.3974 -0.3404
18017SOL    HW255920   6.635   5.968   1.951 -0.7356 -0.9871 -0.0895
18018SOL     OW55921   0.485   8.755   0.510  0.2081  0.1702 -0.0022
18018SOL    HW155922   0.477   8.834   0.564  0.3136  0.2283 -0.0727
18018SOL    HW255923   0.578   8.751   0.487  0.4304 -0.5831  0.9334
18019SOL     OW55924   6.213   0.621   5.921  0.0122  0.4971 -0.2940
18019SOL    HW155925   6.294   0.671   5.908 -0.1929  0.7709 -0.4977
18019SOL    HW255926   6.226   0.541   5.869 -0.0056  0.7138 -0.6325
18020SOL     OW55927   6.169   6.422   1.153 -0.4380  0.3253  0.3046
18020SOL    HW155928   6.187   6.469   1.072  0.6938  2.6758  1.8286
18020SOL    HW255929   6.073   6.416   1.156 -0.5407  1.1412 -0.6881
18021SOL     OW55930   1.099   1.199   2.894 -1.0209 -0.7695  0.1371
18021SOL    HW155931   1.194   1.201   2.907 -0.9979  0.8273 -0.0582
18021SOL    HW255932   1.065   1.158   2.973 -0.2988  0.6400  1.2133
18022SOL     OW55933   7.973   1.840   5.141  1.0463 -0.1228  0.3004
18022SOL    HW155934   8.062   1.826   5.175  1.7099  0.2379 -1.1973
18022SOL    HW255935   7.952   1.930   5.166  0.3698 -0.7390  2.1472
18023SOL     OW55936   4.596   7.450   1.149 -0.5780 -0.3737 -0.4011
18023SOL    HW155937   4.518   7.485   1.193  0.5954  1.2157  0.5025
18023SOL    HW255938   4.572   7.448   1.056 -1.3520  1.1147 -0.2606
18024SOL     OW55939   6.447   2.874   3.661  0.4818  0.4686  0.1490
18024SOL    HW155940   6.477   2.918   3.581  1.7992 -0.4242  0.1082
18024SOL    HW255941   6.357   2.849   3.642  0.4279  1.2227 -0.6509
18025SOL     OW55942   7.971   0.153   3.344 -0.2100 -0.5550 -0.5562
18025SOL    HW155943   8.004   0.175   3.257  1.5447 -1.3981 -0.1482
18025SOL    HW255944   8.015   0.071   3.367 -1.2272 -0.7602  0.8201
18026SOL     OW55945   1.154   0.861   6.683 -0.3324  0.2382  0.0510
18026SOL    HW155946   1.088   0.792   6.693 -1.1694  0.9975 -0.1049
18026SOL    HW255947   1.120   0.917   6.613 -0.4174  1.6373  1.1716
18027SOL     OW55948   6.305   3.618   2.909 -0.4476 -0.0224  0.1328
18027SOL    HW155949   6.246   3.692   2.920 -0.4554 -0.2992  2.5614
18027SOL    HW255950   6.260   3.561   2.847 -1.8770  0.6310  0.5135
18028SOL     OW55951   0.746   1.880   2.703 -0.1622 -0.0979  0.2541
18028SOL    HW155952   0.740   1.911   2.794  1.8154 -2.3455  1.2854
18028SOL    HW255953   0.655   1.865   2.677 -0.8471  1.6241  1.4571
18029SOL     OW55954   3.170   4.911   3.669 -0.0905  0.2056 -0.7855
18029SOL    HW155955   3.265   4.902   3.675 -0.0951 -1.0826 -2.2124
18029SOL    HW255956   3.153   5.000   3.700  1.6224  0.6442 -0.9983
18030SOL     OW55957   3.903   5.992   6.171  0.2369  0.6944 -0.2855
18030SOL    HW155958   3.886   5.917   6.227  0.7817  0.4711 -0.4142
18030SOL    HW255959   3.926   5.955   6.086  0.5694  1.0005 -0.3328
18031SOL     OW55960   3.341   0.867   8.277  0.0876  0.2962  0.5533
18031SOL    HW155961   3.331   0.781   8.237  1.0133  1.2474 -1.9146
18031SOL    HW255962   3.265   0.876   8.334 -0.1348 -2.0376  0.7415
18032SOL     OW55963   0.210   5.155   8.280  0.2808  0.0798  0.0985
18032SOL    HW155964   0.212   5.234   8.225 -0.7618 -1.1711 -1.8846
18032SOL    HW255965   0.129   5.163   8.331  0.8824  0.9090  0.9561
18033SOL     OW55966   6.374   3.992   6.010 -0.0454 -0.4132 -0.3234
18033SOL    HW155967   6.457   3.986   5.964 -0.4767 -0.4642 -1.1037
18033SOL    HW255968   6.321   4.053   5.958 -0.7540 -0.9416 -0.2381
18034SOL     OW55969   1.590   6.620   6.211 -0.0735  0.6729 -0.3210
18034SOL    HW155970   1.584   6.661   6.125 -0.0350 -1.1385 -1.2392
18034SOL    HW255971   1.513   6.564   6.217  0.1195  0.4879  0.6614
18035SOL     OW55972   4.221   8.942   6.935 -0.2477  0.0110 -0.4882
18035SOL    HW155973   4.234   8.861   6.986 -0.0814 -0.6137 -1.5006
18035SOL    HW255974   4.309   8.972   6.914 -0.3222 -0.2959 -1.2668
18036SOL     OW55975   1.176   1.941   1.131 -0.0406 -0.0936 -0.8508
18036SOL    HW155976   1.151   1.857   1.170 -0.0468 -0.4635 -1.6179
18036SOL    HW255977   1.185   1.921   1.037 -1.3892  1.0557 -1.2565
18037SOL     OW55978   5.700   7.417   3.251  0.1636  0.2754  0.1922
18037SOL    HW155979   5.761   7.369   3.307  0.0702 -0.2375 -0.1415
18037SOL    HW255980   5.618   7.368   3.258  0.1060  0.3029 -0.2636
18038SOL     OW55981   4.114   3.842   8.461 -0.8185  0.5971  0.5871
18038SOL    HW155982   4.206   3.836   8.485 -0.8610 -2.2391  0.4352
18038SOL    HW255983   4.073   3.888   8.534  0.5770  1.1328  1.0644
18039SOL     OW55984   0.224   7.161   6.731 -0.9805  0.1900 -0.2406
18039SOL    HW155985   0.186   7.075   6.746  0.4155 -0.3389  0.4517
18039SOL    HW255986   0.319   7.147   6.738 -0.7686  2.1217  2.0102
18040SOL     OW55987   2.462   3.348   0.966 -0.5457  0.0290  0.1540
18040SOL    HW155988   2.417   3.304   0.894 -1.3308  1.3128 -0.1722
18040SOL    HW255989   2.499   3.427   0.927  0.4876 -0.1014  0.8139
18041SOL     OW55990   6.759   6.575   7.469  0.0122 -0.1535 -0.5252
18041SOL    HW155991   6.669   6.543   7.462 -0.8056  1.8691 -0.0715
18041SOL    HW255992   6.784   6.553   7.559  1.3666 -3.8551 -1.6159
18042SOL     OW55993   4.427   7.239   2.714 -0.8524 -0.1439 -0.0843
18042SOL    HW155994   4.463   7.205   2.632  1.6405 -1.6977  1.5263
18042SOL    HW255995   4.390   7.163   2.758 -2.1243  0.6637  0.2862
18043SOL     OW55996   8.339   5.304   4.763 -0.1128  0.0364  0.1936
18043SOL    HW155997   8.280   5.233   4.741  0.4556 -1.2078  2.3835
18043SOL    HW255998   8.281   5.378   4.782 -0.8140 -0.4083 -0.1787
18044SOL     OW55999   2.431   6.395   7.205 -0.2441 -0.0984 -0.8240
18044SOL    HW156000   2.447   6.484   7.174 -1.1831  0.2542 -0.3263
18044SOL    HW256001   2.335   6.386   7.203 -0.2183 -0.7130  0.1879
18045SOL     OW56002   6.590   6.350   1.309  0.9033 -0.2553  0.2196
18045SOL    HW156003   6.514   6.408   1.299  0.6250 -0.6998 -0.2747
18045SOL    HW256004   6.663   6.400   1.272  0.6182 -0.3135 -0.4269
18046SOL     OW56005   2.726   8.400   3.098  0.8982  0.0002  0.1522
18046SOL    HW156006   2.807   8.446   3.078  1.0655 -0.5341 -0.4389
18046SOL    HW256007   2.737   8.369   3.187  1.1102  0.4187  0.2727
18047SOL     OW56008   8.440   8.976   7.519 -0.0104 -0.2262  0.4201
18047SOL    HW156009   8.432   8.997   7.612  1.5906 -0.0365  0.5402
18047SOL    HW256010   8.400   9.050   7.474 -0.0114  0.0970  0.9472
18048SOL     OW56011   0.007   8.745   3.988  0.0532 -0.2562  0.6142
18048SOL    HW156012   0.033   8.736   3.897 -0.2308 -0.8530  0.5858
18048SOL    HW256013   0.011   8.839   4.006 -1.5893  0.0691 -0.5207
18049SOL     OW56014   5.748   5.806   7.629 -0.5666 -0.6510  0.1000
18049SOL    HW156015   5.662   5.781   7.663  0.3550 -1.7990  1.7057
18049SOL    HW256016   5.764   5.745   7.557 -1.6188  0.4389 -1.1339
18050SOL     OW56017   7.779   8.377   1.928 -0.1737 -0.5461 -0.4059
18050SOL    HW156018   7.761   8.436   2.001  0.1296  0.6840 -1.2868
18050SOL    HW256019   7.867   8.345   1.945  0.2848  0.5019 -0.7034
18051SOL     OW56020   3.087   1.896   4.715 -0.6285  0.0456  0.3903
18051SOL    HW156021   3.114   1.890   4.807  0.3065 -2.3174  0.0466
18051SOL    HW256022   3.169   1.899   4.666 -1.1011  0.4323 -0.3936
18052SOL     OW56023   2.611   2.479   8.930 -0.5699 -0.3520  0.1813
18052SOL    HW156024   2.550   2.413   8.960 -0.5806 -0.6183 -0.4098
18052SOL    HW256025   2.575   2.562   8.961 -1.1068 -0.5301  0.0364
18053SOL     OW56026   5.459   3.443   7.883  0.8051 -0.0803  0.5739
18053SOL    HW156027   5.527   3.380   7.906  1.1124 -0.1093 -0.3637
18053SOL    HW256028   5.443   3.428   7.790  0.1280  0.5182  0.5839
18054SOL     OW56029   5.655   2.075   1.857 -0.1243  0.5534 -0.1122
18054SOL    HW156030   5.583   2.044   1.802  0.9911 -0.3239 -1.1588
18054SOL    HW256031   5.615   2.092   1.942 -1.2681 -1.6188 -0.1338
18055SOL     OW56032   1.324   4.156   8.550  0.7132  0.4360 -0.5740
18055SOL    HW156033   1.410   4.186   8.523  1.0564 -0.1341 -0.1256
18055SOL    HW256034   1.332   4.061   8.559 -0.5662  0.0428 -2.7623
18056SOL     OW56035   1.127   6.621   5.445 -0.1810 -0.1877 -0.4355
18056SOL    HW156036   1.111   6.715   5.435  1.3570  0.2916  1.1618
18056SOL    HW256037   1.208   6.605   5.397  0.7883 -0.2080  1.1450
18057SOL     OW56038   5.191   1.560   7.701 -0.4374 -0.2661 -0.3509
18057SOL    HW156039   5.127   1.627   7.724 -0.7316 -0.3669 -0.8574
18057SOL    HW256040   5.188   1.498   7.774 -1.5634 -0.7348 -0.7778
18058SOL     OW56041   5.837   7.499   8.586 -0.3184  0.0859  0.6881
18058SOL    HW156042   5.927   7.513   8.555  0.0322 -0.2616  1.5089
18058SOL    HW256043   5.812   7.415   8.547 -0.9787  1.0282 -1.0261
18059SOL     OW56044   2.871   1.384   8.647  0.6265  0.2095  1.1927
18059SOL    HW156045   2.786   1.426   8.665 -1.0268 -2.2043 -0.3179
18059SOL    HW256046   2.918   1.390   8.730 -2.1543 -0.7346  2.9966
18060SOL     OW56047   1.958   4.033   1.939  0.4328 -0.0455 -0.5905
18060SOL    HW156048   1.898   3.972   1.896 -1.3076  1.3150 -0.1907
18060SOL    HW256049   1.982   4.094   1.869 -0.6597  0.8729 -0.1896
18061SOL     OW56050   5.769   8.747   8.222  0.4512  0.4723 -0.0772
18061SOL    HW156051   5.785   8.757   8.129  0.3289  2.1227  0.0333
18061SOL    HW256052   5.833   8.805   8.264  0.2137  0.1023  0.8290
18062SOL     OW56053   3.450   6.886   3.053  0.2542 -0.1193 -0.0865
18062SOL    HW156054   3.447   6.791   3.052 -2.3235 -0.1070 -0.2873
18062SOL    HW256055   3.392   6.911   3.125 -0.8502  1.2717 -1.3867
18063SOL     OW56056   7.660   0.190   8.403  0.7855 -0.0297  0.3581
18063SOL    HW156057   7.570   0.222   8.412 -0.6840 -3.4522 -0.8646
18063SOL    HW256058   7.707   0.263   8.363 -1.1260  2.2404  1.9548
18064SOL     OW56059   7.697   1.162   4.058 -0.1710 -0.0260  0.2957
18064SOL    HW156060   7.738   1.077   4.044  4.1490  2.0421 -1.4198
18064SOL    HW256061   7.678   1.193   3.969 -0.4693  1.2977  0.8048
18065SOL     OW56062   5.687   7.357   0.112 -0.6654  0.0416 -0.0415
18065SOL    HW156063   5.677   7.430   0.173  1.8384  1.4777 -1.2048
18065SOL    HW256064   5.750   7.299   0.154 -0.2664  0.1484 -0.4891
18066SOL     OW56065   7.288   0.870   1.612 -0.0237 -0.1413  0.1285
18066SOL    HW156066   7.342   0.807   1.564  0.5868  0.4798 -0.0233
18066SOL    HW256067   7.351   0.919   1.665 -0.5163  0.1912  0.4081
18067SOL     OW56068   4.590   8.147   4.281 -0.2149 -0.1494 -0.6190
18067SOL    HW156069   4.680   8.168   4.303 -0.4777 -1.1977  1.6899
18067SOL    HW256070   4.597   8.080   4.212  0.8095 -0.9909  0.2753
18068SOL     OW56071   6.289   8.263   0.749  0.2157  0.0662 -0.1587
18068SOL    HW156072   6.307   8.336   0.689 -0.6923 -0.7940 -1.5451
18068SOL    HW256073   6.209   8.289   0.794 -0.3488 -0.2125 -0.9619
18069SOL     OW56074   5.153   3.359   0.070 -0.4396  0.6469  0.1111
18069SOL    HW156075   5.076   3.307   0.044  0.2176  0.2129 -1.0401
18069SOL    HW256076   5.167   3.335   0.162 -0.5056 -0.7988 -0.2262
18070SOL     OW56077   5.652   2.350   1.685  0.2704  0.0501 -0.6848
18070SOL    HW156078   5.662   2.281   1.619 -0.8414 -0.8638  0.0683
18070SOL    HW256079   5.679   2.309   1.767 -1.0258  0.2833 -0.1157
18071SOL     OW56080   5.455   2.878   4.882  0.1327 -0.2365  0.4878
18071SOL    HW156081   5.530   2.936   4.870  0.4471 -0.9250 -1.1050
18071SOL    HW256082   5.482   2.795   4.841 -1.1185 -0.8090  0.7797
18072SOL     OW56083   2.344   7.587   0.865 -0.3815  0.0625 -0.0574
18072SOL    HW156084   2.396   7.614   0.790 -0.6990 -1.9302 -1.0420
18072SOL    HW256085   2.404   7.535   0.919  0.1505  2.2968  1.6958
18073SOL     OW56086   4.697   1.231   7.293 -0.3548  0.5477 -0.3784
18073SOL    HW156087   4.624   1.282   7.259  0.2574  0.8107 -1.3649
18073SOL    HW256088   4.700   1.154   7.237  0.3498  0.7252 -0.5956
18074SOL     OW56089   7.339   3.415   6.301  0.0460 -0.3823 -0.6982
18074SOL    HW156090   7.266   3.360   6.271  0.9845 -2.2146  0.2651
18074SOL    HW256091   7.414   3.356   6.305  1.0508  0.9154  0.6348
18075SOL     OW56092   6.807   0.729   5.918 -0.5851  0.5599  0.2240
18075SOL    HW156093   6.808   0.690   5.830  1.5578  0.2445  0.3267
18075SOL    HW256094   6.852   0.665   5.973  1.5866  2.3726  0.7289
18076SOL     OW56095   3.834   2.836   8.243  0.4622 -0.5575  0.4458
18076SOL    HW156096   3.823   2.897   8.316 -1.7484  0.1186 -0.3818
18076SOL    HW256097   3.853   2.752   8.285  1.6208  0.2598  1.6739
18077SOL     OW56098   6.445   8.148   0.912  0.0792 -0.6233 -0.4764
18077SOL    HW156099   6.521   8.119   0.861  0.3188  1.0049 -1.1028
18077SOL    HW256100   6.391   8.196   0.850 -0.6752 -0.3849  0.3413
18078SOL     OW56101   0.758   7.546   4.265 -0.0302  0.4131 -0.0041
18078SOL    HW156102   0.682   7.512   4.313 -0.5257 -0.3220 -1.2653
18078SOL    HW256103   0.758   7.640   4.283 -1.4304  0.4747 -0.2275
18079SOL     OW56104   1.165   0.363   0.138  0.6515  0.7051  0.0022
18079SOL    HW156105   1.179   0.270   0.155 -1.5219  0.6134  1.5791
18079SOL    HW256106   1.174   0.370   0.043 -1.2395 -1.5624 -0.4559
18080SOL     OW56107   2.799   8.483   1.308 -0.1932 -0.3080  0.4272
18080SOL    HW156108   2.814   8.464   1.215  2.0536  0.5935  0.5438
18080SOL    HW256109   2.869   8.437   1.354  0.8734  2.0582  1.3277
18081SOL     OW56110   0.650   8.164   5.481 -0.0229  0.2749  0.5787
18081SOL    HW156111   0.666   8.180   5.574  1.3905 -1.8000  0.7479
18081SOL    HW256112   0.599   8.083   5.479 -0.8991  0.8154 -0.4593
18082SOL     OW56113   5.750   6.595   4.600 -0.4658  0.2576  0.3982
18082SOL    HW156114   5.686   6.660   4.570  1.0679  2.5466  1.8085
18082SOL    HW256115   5.829   6.615   4.550 -0.1241 -0.9410  0.4381
18083SOL     OW56116   2.478   4.257   5.321 -0.0380 -0.7679  0.1301
18083SOL    HW156117   2.564   4.232   5.287 -0.0553  0.4889 -0.9153
18083SOL    HW256118   2.490   4.346   5.354 -0.6229 -1.0901  1.2694
18084SOL     OW56119   5.954   0.163   0.704 -0.2885  0.4032 -0.7839
18084SOL    HW156120   5.927   0.190   0.616 -0.2152  0.2723 -0.8478
18084SOL    HW256121   5.916   0.228   0.763  2.0111  2.1367 -1.0966
18085SOL     OW56122   7.059   3.212   2.998  0.1893  0.7310 -0.3395
18085SOL    HW156123   7.148   3.178   2.995  0.1698  0.3804  1.4696
18085SOL    HW256124   7.004   3.136   2.982  0.1840  0.1338  2.1093
18086SOL     OW56125   2.853   1.003   4.165 -0.6822 -0.5047  0.0278
18086SOL    HW156126   2.760   1.000   4.141 -0.1195 -1.1012 -2.3364
18086SOL    HW256127   2.892   0.929   4.118  1.1554  0.3053  0.2175
18087SOL     OW56128   1.949   6.472   0.667  0.1044  0.1915  0.0144
18087SOL    HW156129   1.948   6.456   0.573  0.1881  0.5009 -0.0404
18087SOL    HW256130   1.895   6.402   0.704 -0.2732  0.3114 -0.3014
18088SOL     OW56131   3.887   3.586   8.155  0.4603  0.1125 -0.5701
18088SOL    HW156132   3.837   3.504   8.152  0.1241  0.1536  1.7823
18088SOL    HW256133   3.948   3.574   8.228  0.1547  2.0706  0.0583
18089SOL     OW56134   5.040   3.731   6.505  0.1687  0.0608 -0.4773
18089SOL    HW156135   5.045   3.666   6.575 -1.2707  0.8003  0.3597
18089SOL    HW256136   4.991   3.687   6.435  2.3260 -0.9741 -1.4351
18090SOL     OW56137   1.262   1.662   6.950  0.2019 -0.6039 -0.8711
18090SOL    HW156138   1.292   1.661   6.859  3.1809  0.7049 -0.0420
18090SOL    HW256139   1.249   1.754   6.970  1.0337 -0.7435  0.4242
18091SOL     OW56140   8.882   4.151   4.103 -0.0145 -0.2905  0.1546
18091SOL    HW156141   8.968   4.112   4.116  0.3547  0.5997  0.4576
18091SOL    HW256142   8.875   4.162   4.008 -0.9589 -2.8807 -0.1550
18092SOL     OW56143   6.895   7.826   8.858  0.0209 -0.8871  0.3850
18092SOL    HW156144   6.973   7.843   8.805 -0.5916  0.4885 -0.1151
18092SOL    HW256145   6.902   7.733   8.882  2.3045 -0.5804  1.1643
18093SOL     OW56146   0.405   2.318   5.590  0.0636  0.8405 -0.1827
18093SOL    HW156147   0.381   2.407   5.564  0.7214  0.7715 -1.0510
18093SOL    HW256148   0.497   2.310   5.567 -0.4843 -0.7686 -2.0578
18094SOL     OW56149   6.736   2.657   7.062 -0.1828 -0.0992 -0.2558
18094SOL    HW156150   6.796   2.729   7.043 -1.4668  1.0467 -0.0644
18094SOL    HW256151   6.746   2.598   6.987 -0.9962  1.5590 -1.7449
18095SOL     OW56152   3.149   5.437   2.271 -0.4756  0.4342 -0.7889
18095SOL    HW156153   3.226   5.403   2.227 -0.1521  2.9031 -2.3276
18095SOL    HW256154   3.079   5.429   2.206 -2.3127 -3.9919  1.3510
18096SOL     OW56155   0.004   4.689   3.386 -0.2439 -0.0186  0.1613
18096SOL    HW156156  -0.073   4.635   3.368  2.1566 -2.9489 -2.3694
18096SOL    HW256157   0.061   4.632   3.438  1.0075  1.3871  0.3861
18097SOL     OW56158   6.910   6.124   0.852  0.0082  0.0901 -0.6717
18097SOL    HW156159   6.961   6.176   0.790 -1.5497  1.4416 -0.8967
18097SOL    HW256160   6.849   6.075   0.798  0.9451 -1.4585 -0.3999
18098SOL     OW56161   2.917   8.692   1.453  0.2413 -0.7393 -0.4011
18098SOL    HW156162   2.960   8.755   1.395  1.0111 -0.5503  0.3343
18098SOL    HW256163   2.896   8.618   1.397  0.7318 -0.4582 -0.9763
18099SOL     OW56164   3.440   5.392   7.043 -0.2797 -0.4026 -0.2914
18099SOL    HW156165   3.426   5.442   7.123 -0.0470 -0.0830 -0.4486
18099SOL    HW256166   3.443   5.458   6.973 -0.6057 -0.6897 -0.5771
18100SOL     OW56167   6.563   3.065   4.615 -0.6456  0.4629 -0.1759
18100SOL    HW156168   6.620   2.988   4.608  0.6426  1.4061 -0.2826
18100SOL    HW256169   6.617   3.131   4.659 -1.3862  1.6495 -1.0022
18101SOL     OW56170   5.160   0.202   5.002 -0.0295 -0.0967  0.2810
18101SOL    HW156171   5.255   0.208   4.990  0.2442 -1.5900  1.4494
18101SOL    HW256172   5.134   0.290   5.027  1.3778 -0.0837  1.9033
18102SOL     OW56173   3.255   4.282   4.269 -0.2242 -0.0673 -0.0600
18102SOL    HW156174   3.303   4.234   4.202  1.0565 -1.6166  1.8525
18102SOL    HW256175   3.306   4.269   4.349 -1.1387  2.5323  1.0519
18103SOL     OW56176   4.648   7.568   3.263 -0.0225 -0.0149 -0.6752
18103SOL    HW156177   4.715   7.578   3.196 -2.1585  1.1276 -2.7942
18103SOL    HW256178   4.691   7.595   3.344  2.0139  0.7944 -1.9474
18104SOL     OW56179   5.814   6.324   5.720  0.2612  0.0616 -0.2371
18104SOL    HW156180   5.766   6.242   5.728  1.3598 -0.8262 -2.1350
18104SOL    HW256181   5.903   6.299   5.699  0.6475  1.7358 -0.7998
18105SOL     OW56182   6.168   4.938   4.461 -0.0774 -0.0511 -0.1064
18105SOL    HW156183   6.261   4.926   4.444 -0.2891 -1.9939 -0.2024
18105SOL    HW256184   6.147   5.023   4.422  1.4585 -0.0138 -0.9358
18106SOL     OW56185   4.214   6.247   7.490 -0.0903 -0.4312  0.1306
18106SOL    HW156186   4.286   6.308   7.475  1.7080 -2.2191  1.0022
18106SOL    HW256187   4.172   6.278   7.571 -1.4834  1.6122 -1.2840
18107SOL     OW56188   3.874   0.026   7.512  0.7391  0.3432 -0.1599
18107SOL    HW156189   3.906  -0.006   7.428  1.4623  0.2943  0.1288
18107SOL    HW256190   3.953   0.047   7.562  0.3079  1.6307  0.0222
18108SOL     OW56191   6.203   5.000   5.185  0.4645 -0.2971  0.0863
18108SOL    HW156192   6.228   4.932   5.123 -0.5291  0.0208 -0.6842
18108SOL    HW256193   6.118   5.031   5.154  1.6381  2.5448 -0.6671
18109SOL     OW56194   0.519   7.996   2.194 -0.0543  0.3930  0.3243
18109SOL    HW156195   0.509   8.089   2.174  1.7102  0.6717  0.5497
18109SOL    HW256196   0.547   7.957   2.111 -2.2243 -0.2338 -0.1524
18110SOL     OW56197   8.977   5.485   3.286 -0.2377  0.0076 -0.0695
18110SOL    HW156198   9.056   5.539   3.293 -0.7732  1.1888 -2.2554
18110SOL    HW256199   9.010   5.399   3.258  0.3684  0.1399  0.2160
18111SOL     OW56200   7.721   6.363   2.608 -0.0362  0.0680  0.5624
18111SOL    HW156201   7.751   6.400   2.525  0.5237  0.4782  0.9452
18111SOL    HW256202   7.628   6.345   2.593  0.1049 -0.0628 -0.2230
18112SOL     OW56203   0.381   2.724   8.273 -0.0766 -0.6455 -0.3042
18112SOL    HW156204   0.464   2.746   8.232  0.0753  0.9907  0.7934
18112SOL    HW256205   0.401   2.652   8.332  0.6700  0.0275  0.2777
18113SOL     OW56206   3.637   0.244   3.117  0.5797  0.0230 -0.1521
18113SOL    HW156207   3.578   0.192   3.173 -0.7284  0.7265 -0.8220
18113SOL    HW256208   3.654   0.186   3.042  0.7315 -0.1834  0.0410
18114SOL     OW56209   1.189   0.832   8.649 -0.6122  0.0838 -0.9158
18114SOL    HW156210   1.182   0.871   8.736 -0.0561  1.7655 -1.5853
18114SOL    HW256211   1.135   0.753   8.654 -0.6603  0.1912  0.9164
18115SOL     OW56212   0.162   3.223   6.626 -0.0277  0.0666 -0.3298
18115SOL    HW156213   0.256   3.233   6.635 -0.0887  0.0293  0.4366
18115SOL    HW256214   0.125   3.277   6.697 -0.4803 -2.2220  1.2994
18116SOL     OW56215   5.816   1.095   1.348 -0.0968  0.2843 -0.1540
18116SOL    HW156216   5.758   1.100   1.424  1.0864 -1.5480  0.9497
18116SOL    HW256217   5.782   1.022   1.296 -1.0145  1.6417 -1.5547
18117SOL     OW56218   3.766   7.014   3.668  0.6440  0.1527 -0.1872
18117SOL    HW156219   3.696   7.064   3.710  1.2352  1.2567 -0.4849
18117SOL    HW256220   3.724   6.931   3.644 -0.7538  1.0227 -0.9150
18118SOL     OW56221   6.166   4.716   3.072  0.3746  0.0882 -0.0444
18118SOL    HW156222   6.099   4.677   3.016 -0.0073 -2.0629  1.7845
18118SOL    HW256223   6.116   4.762   3.140  0.7052 -1.2495  1.1425
18119SOL     OW56224   8.074   1.920   7.910  0.2997  0.9649 -0.0375
18119SOL    HW156225   8.087   1.900   7.817  0.8888  1.2412 -0.0217
18119SOL    HW256226   8.158   1.898   7.950  0.3470  1.7180  0.2764
18120SOL     OW56227   5.623   1.976   7.250  0.0030 -0.1568  0.4129
18120SOL    HW156228   5.619   1.978   7.345  0.2476  0.6832  0.4146
18120SOL    HW256229   5.534   1.954   7.222 -0.1445 -0.0734  0.8228
18121SOL     OW56230   2.603   8.328   8.835  0.1729 -0.3444  0.5250
18121SOL    HW156231   2.612   8.393   8.765  1.9964  0.9735  1.9029
18121SOL    HW256232   2.608   8.244   8.790  1.6379  0.4608 -0.9226
18122SOL     OW56233   1.366   5.266   1.334  0.8460  0.0684 -0.2146
18122SOL    HW156234   1.273   5.265   1.313  0.4473  0.6330  1.4114
18122SOL    HW256235   1.393   5.174   1.330  0.3112 -0.0620 -1.0176
18123SOL     OW56236   4.951   6.048   5.520  0.6094  0.0625 -0.0492
18123SOL    HW156237   4.934   6.135   5.557 -1.3468  0.0046 -0.6679
18123SOL    HW256238   4.938   5.988   5.593 -2.6445 -0.0066 -0.5252
18124SOL     OW56239   5.996   8.499   6.355  0.0416 -0.1323  0.0390
18124SOL    HW156240   6.086   8.529   6.343 -0.4799  0.9899 -1.4309
18124SOL    HW256241   5.951   8.572   6.398 -0.2493 -0.5580  0.4697
18125SOL     OW56242   1.361   2.184   2.584  0.2317  0.7177  0.5140
18125SOL    HW156243   1.273   2.190   2.547  0.5727 -1.4255 -0.8549
18125SOL    HW256244   1.354   2.116   2.651  0.8519  0.4107  0.2775
18126SOL     OW56245   6.913   4.503   7.008 -0.0151  0.0205 -0.0909
18126SOL    HW156246   6.872   4.429   7.052  1.3638  0.2792  1.8023
18126SOL    HW256247   6.849   4.533   6.944 -1.3084 -1.6835  0.3503
18127SOL     OW56248   3.472   0.983   0.942  0.2928 -0.4585 -0.1776
18127SOL    HW156249   3.388   1.027   0.954  0.3606 -0.4208  0.1634
18127SOL    HW256250   3.519   0.997   1.024 -0.0191 -1.8820  0.2705
18128SOL     OW56251   2.275   4.076   2.960 -0.0741 -0.8149 -0.1718
18128SOL    HW156252   2.189   4.112   2.941 -0.1828 -0.5375  0.7776
18128SOL    HW256253   2.312   4.135   3.026  1.0670 -0.6189 -0.9497
18129SOL     OW56254   7.674   6.898   7.481 -0.3789 -0.0745  0.5754
18129SOL    HW156255   7.719   6.866   7.403  0.2004  0.6032  0.6233
18129SOL    HW256256   7.581   6.892   7.459 -0.2133  0.5869 -0.3635
18130SOL     OW56257   3.335   7.310   8.488  0.5802 -0.5423  0.1589
18130SOL    HW156258   3.291   7.299   8.404 -1.2526  0.1068  0.9964
18130SOL    HW256259   3.282   7.259   8.550  1.6454 -0.6499  1.0256
18131SOL     OW56260   4.664   1.530   7.889  0.4335 -0.1592 -0.2427
18131SOL    HW156261   4.668   1.593   7.960 -1.5315 -0.5596  0.2939
18131SOL    HW256262   4.691   1.447   7.929 -0.5934 -0.3683  0.0438
18132SOL     OW56263   4.223   6.173   3.255  0.0953 -0.1774 -0.1008
18132SOL    HW156264   4.184   6.104   3.201 -0.0638  1.1790 -1.8137
18132SOL    HW256265   4.316   6.171   3.232  0.1694 -0.1233  0.1961
18133SOL     OW56266   5.830   4.345   6.786 -0.3968  0.2614  0.2367
18133SOL    HW156267   5.844   4.339   6.692  0.5795  0.6383  0.3494
18133SOL    HW256268   5.894   4.286   6.825  1.0709  2.0781  0.7625
18134SOL     OW56269   2.509   3.119   1.108  0.1896  0.6060 -0.1168
18134SOL    HW156270   2.482   3.052   1.044 -1.2898  0.3695  0.6977
18134SOL    HW256271   2.493   3.202   1.063 -0.9771  0.4469 -0.0489
18135SOL     OW56272   1.397   1.580   2.680 -0.0742 -0.3949  0.3090
18135SOL    HW156273   1.316   1.529   2.685 -1.1349  1.2216  0.1912
18135SOL    HW256274   1.381   1.642   2.608  0.3949  1.3915  1.6908
18136SOL     OW56275   1.003   2.160   7.652 -0.2541 -1.3185 -0.5997
18136SOL    HW156276   1.095   2.139   7.634  0.2046  0.1793 -0.1407
18136SOL    HW256277   1.001   2.187   7.744 -0.4397  2.0490 -1.4613
18137SOL     OW56278   6.082   6.614   5.557 -0.3359 -0.5130  0.3028
18137SOL    HW156279   6.146   6.655   5.498  0.8004 -1.1968  1.0130
18137SOL    HW256280   6.118   6.526   5.573 -0.1117 -0.0490  2.7068
18138SOL     OW56281   8.842   4.807   0.276  0.4112 -0.7245  0.5205
18138SOL    HW156282   8.820   4.749   0.349  0.8434  1.2998  2.3770
18138SOL    HW256283   8.846   4.894   0.316  1.0834  0.4136 -1.8735
18139SOL     OW56284   1.706   5.764   7.119  0.0062 -0.0238 -0.0207
18139SOL    HW156285   1.657   5.683   7.105 -1.2502  0.6485  0.3233
18139SOL    HW256286   1.792   5.735   7.150  0.4112 -1.2941 -2.1493
18140SOL     OW56287   4.754   0.301   7.188  0.2573  0.3384 -0.2232
18140SOL    HW156288   4.741   0.227   7.248  0.3218 -0.7940 -1.5536
18140SOL    HW256289   4.708   0.275   7.108  0.6308  1.5728 -0.8616
18141SOL     OW56290   7.584   1.452   4.073  0.0215 -0.0124  0.0270
18141SOL    HW156291   7.672   1.426   4.101  0.0743  1.1017  0.9956
18141SOL    HW256292   7.597   1.496   3.989 -0.0648 -2.8972 -1.6158
18142SOL     OW56293   8.562   6.355   1.663 -0.3885  0.5350  0.6369
18142SOL    HW156294   8.649   6.353   1.703 -0.2189  0.2138  0.2577
18142SOL    HW256295   8.511   6.292   1.714 -0.1774  0.1401  0.3664
18143SOL     OW56296   4.253   5.786   6.597  0.2450  0.1319  0.2261
18143SOL    HW156297   4.211   5.853   6.543  1.0211 -0.2927 -0.9349
18143SOL    HW256298   4.192   5.773   6.670 -2.2953 -1.3322 -1.9718
18144SOL     OW56299   4.481   5.173   8.447  0.2430 -0.6534 -0.3176
18144SOL    HW156300   4.523   5.124   8.518  1.2490 -0.8014 -0.9959
18144SOL    HW256301   4.513   5.132   8.367 -1.1063 -0.6775 -0.8783
18145SOL     OW56302   0.587   4.859   8.726 -0.2858  0.7671  0.1730
18145SOL    HW156303   0.671   4.846   8.683 -0.0418  0.0149  0.8334
18145SOL    HW256304   0.522   4.837   8.660  0.0708  0.0901  0.0391
18146SOL     OW56305   0.534   4.467   8.017 -0.6999 -0.7264 -0.1414
18146SOL    HW156306   0.594   4.540   8.034 -1.7227  0.3158 -0.9180
18146SOL    HW256307   0.455   4.489   8.067 -2.0057  0.0628 -2.4040
18147SOL     OW56308   5.769   1.229   6.752 -0.4538  0.1918 -0.4032
18147SOL    HW156309   5.821   1.198   6.827  0.1634  2.1785  0.0329
18147SOL    HW256310   5.696   1.167   6.747 -1.0207  0.4743  2.4432
18148SOL     OW56311   0.154   3.050   1.815 -0.0488  0.4437  0.0862
18148SOL    HW156312   0.180   3.141   1.801  1.9615  0.0984  1.2571
18148SOL    HW256313   0.184   3.030   1.904 -0.8988 -1.2270  0.0394
18149SOL     OW56314   7.661   4.245   5.345 -0.0949 -0.4287  0.1279
18149SOL    HW156315   7.591   4.283   5.399 -0.8456  0.2780 -1.2616
18149SOL    HW256316   7.739   4.252   5.398 -1.2858 -2.6178  2.3483
18150SOL     OW56317   7.864   2.608   2.494  0.1247  0.3939 -0.1234
18150SOL    HW156318   7.844   2.515   2.481  1.0537  0.1347  0.1784
18150SOL    HW256319   7.932   2.627   2.429 -0.8499  1.1612 -0.9331
18151SOL     OW56320   1.034   1.701   6.541 -0.3422 -0.5839  0.2910
18151SOL    HW156321   0.945   1.717   6.570 -0.2836  2.0354 -0.7541
18151SOL    HW256322   1.026   1.666   6.452 -0.3335  0.1220  0.0081
18152SOL     OW56323   1.649   8.701   6.004  0.0784  0.0794  0.3558
18152SOL    HW156324   1.615   8.649   6.077  0.4949 -1.7048 -0.6890
18152SOL    HW256325   1.576   8.705   5.942 -0.3415  1.7637  0.8949
18153SOL     OW56326   4.603   1.443   4.964  0.1390  0.4417 -0.4602
18153SOL    HW156327   4.583   1.469   4.874 -1.1309 -0.2459 -0.4008
18153SOL    HW256328   4.655   1.363   4.954 -1.8294 -0.8722 -0.5995
18154SOL     OW56329   5.693   3.977   2.908  0.9996  0.4816  0.0744
18154SOL    HW156330   5.721   3.886   2.894 -1.1964 -0.5621  1.7769
18154SOL    HW256331   5.662   3.978   2.998 -3.3321  1.6683 -1.2154
18155SOL     OW56332   1.577   2.515   1.250  0.0309 -0.2347 -0.2371
18155SOL    HW156333   1.661   2.521   1.296  0.5306 -1.3784 -0.9585
18155SOL    HW256334   1.571   2.597   1.201  0.4036  0.1451  0.3327
18156SOL     OW56335   7.653   0.023   2.416 -0.4164 -0.1226  0.2684
18156SOL    HW156336   7.648   0.115   2.391 -0.8455 -0.5990 -1.4925
18156SOL    HW256337   7.596   0.016   2.493 -0.6511  1.0010  0.2125
18157SOL     OW56338   7.373   7.955   0.560 -0.2363 -0.9043  0.2464
18157SOL    HW156339   7.448   8.014   0.546  0.1076 -0.7622  2.3398
18157SOL    HW256340   7.406   7.868   0.539 -0.0056 -0.6516 -0.4680
18158SOL     OW56341   7.042   7.589   1.964  0.1556  0.4159  0.6475
18158SOL    HW156342   7.038   7.684   1.973 -0.4253  0.5279 -0.5299
18158SOL    HW256343   7.010   7.555   2.047 -1.7762  1.2769  0.2981
18159SOL     OW56344   0.649   8.195   6.568  0.3550 -0.0138 -0.0661
18159SOL    HW156345   0.641   8.112   6.616 -2.0302  0.6773  0.8521
18159SOL    HW256346   0.711   8.175   6.498  2.7473 -1.5137  2.2741
18160SOL     OW56347   6.657   3.611   0.494 -0.6649  0.7427  0.2240
18160SOL    HW156348   6.736   3.666   0.494 -1.1345  1.4356  0.4446
18160SOL    HW256349   6.635   3.600   0.402  0.1194 -0.1075  0.1183
18161SOL     OW56350   5.833   2.903   8.131 -0.2465 -0.0974 -0.1795
18161SOL    HW156351   5.770   2.929   8.199 -0.5058 -0.7629 -0.1537
18161SOL    HW256352   5.859   2.814   8.156 -0.9363 -0.6550 -1.3714
18162SOL     OW56353   0.927   4.806   2.455  0.3788 -0.5361  0.0813
18162SOL    HW156354   0.908   4.868   2.385  2.0904 -0.1961 -0.1344
18162SOL    HW256355   0.848   4.752   2.462 -1.1298  1.5836  0.2369
18163SOL     OW56356   5.748   2.448   3.549  0.0450 -0.6474  0.3998
18163SOL    HW156357   5.692   2.377   3.519  0.2726 -1.1418  1.1123
18163SOL    HW256358   5.689   2.507   3.596 -0.1476 -0.3503 -0.2083
18164SOL     OW56359   8.061   3.686   6.446 -0.4991 -0.2057  0.3753
18164SOL    HW156360   8.116   3.639   6.383  0.3048 -0.2246  1.0828
18164SOL    HW256361   7.974   3.646   6.436 -0.4696 -0.0061 -0.9316
18165SOL     OW56362   7.502   1.877   5.062 -0.6248  0.4798  0.1819
18165SOL    HW156363   7.444   1.909   4.993 -0.8784  0.8724  0.5759
18165SOL    HW256364   7.535   1.956   5.104  0.0923  0.2595  0.0527
18166SOL     OW56365   3.785   4.158   8.245  0.5220  0.5085  0.0059
18166SOL    HW156366   3.796   4.235   8.189  3.0271 -0.7195 -1.3435
18166SOL    HW256367   3.747   4.091   8.188  0.8912 -0.0665  0.4225
18167SOL     OW56368   5.700   3.249   0.617  0.3080 -0.0959  0.3959
18167SOL    HW156369   5.738   3.255   0.705  2.3452 -0.8184 -0.3610
18167SOL    HW256370   5.706   3.338   0.583  0.9916 -0.1096  0.4503
18168SOL     OW56371   8.955   2.310   8.510 -0.2191  0.1911 -0.2491
18168SOL    HW156372   8.977   2.231   8.460  1.1092  0.0137  0.5749
18168SOL    HW256373   8.866   2.293   8.542 -0.1385 -0.7761 -0.4889
18169SOL     OW56374   2.808   3.623   7.439  0.0044  0.2866 -0.3668
18169SOL    HW156375   2.816   3.718   7.439 -0.8013  0.4302  1.9655
18169SOL    HW256376   2.895   3.591   7.460  0.2893  0.4774 -1.2088
18170SOL     OW56377   6.047   0.035   8.775  0.6079 -0.8402 -0.6621
18170SOL    HW156378   6.129  -0.000   8.807  2.5410  3.4710 -0.2502
18170SOL    HW256379   6.010   0.083   8.849 -0.3740  0.3174 -1.8430
18171SOL     OW56380   6.886   3.120   0.438  0.1618  0.2827  0.0149
18171SOL    HW156381   6.877   3.211   0.408  0.6660  0.3682  0.1213
18171SOL    HW256382   6.953   3.083   0.381  0.8478  0.3321  0.7797
18172SOL     OW56383   4.104   2.146   0.018  0.4719 -0.1617  0.1293
18172SOL    HW156384   4.113   2.057  -0.017  2.8125  0.2755 -0.5226
18172SOL    HW256385   4.043   2.137   0.091  0.0760 -2.1589 -0.3912
18173SOL     OW56386   3.616   4.120   6.980  0.0825 -0.9170  0.1321
18173SOL    HW156387   3.540   4.064   6.963 -0.4394  0.0438 -0.8256
18173SOL    HW256388   3.581   4.194   7.029  0.0811  0.2182 -1.4793
18174SOL     OW56389   7.723   8.885   6.470  0.0371 -0.1469 -0.4416
18174SOL    HW156390   7.645   8.924   6.430 -0.8004 -0.8060  0.5005
18174SOL    HW256391   7.730   8.798   6.431 -2.1340 -1.7271  2.3728
18175SOL     OW56392   0.428   8.965   7.298  0.4683  0.1877 -0.0375
18175SOL    HW156393   0.519   8.950   7.325  0.2608 -1.4747 -0.1583
18175SOL    HW256394   0.402   8.883   7.256 -0.4739  1.3273 -1.7867
18176SOL     OW56395   1.141   2.769   1.079  0.3199  0.5563  0.2220
18176SOL    HW156396   1.159   2.862   1.067  1.4624  0.3437  0.1849
18176SOL    HW256397   1.050   2.759   1.052  0.9228  1.2087 -2.3649
18177SOL     OW56398   5.554   7.016   2.374  0.1801 -0.4619 -0.3578
18177SOL    HW156399   5.567   6.930   2.414 -0.1694 -0.3539  0.0010
18177SOL    HW256400   5.621   7.072   2.413  0.6670 -0.6696 -0.8966
18178SOL     OW56401   8.597   3.001   0.901  0.0317  0.6900  1.0021
18178SOL    HW156402   8.574   2.929   0.959 -0.3412 -0.5372 -0.6073
18178SOL    HW256403   8.692   3.010   0.911  0.4549 -1.4644 -0.2605
18179SOL     OW56404   2.455   0.939   5.254 -0.2109 -0.3872 -0.2967
18179SOL    HW156405   2.418   0.939   5.342 -0.3158 -2.3889 -0.2982
18179SOL    HW256406   2.549   0.947   5.268 -0.3445  1.4676 -0.1485
18180SOL     OW56407   1.011   3.983   4.087  0.3107 -0.4041  0.2682
18180SOL    HW156408   0.976   4.072   4.094 -0.4447 -0.5465 -1.2333
18180SOL    HW256409   1.094   3.986   4.133  0.2108  1.0398  0.3891
18181SOL     OW56410   0.929   8.618   2.559 -0.1842  0.4740  0.5917
18181SOL    HW156411   0.840   8.633   2.527 -0.2123  0.2208  0.5486
18181SOL    HW256412   0.934   8.523   2.570  0.6799  0.3046 -1.1126
18182SOL     OW56413   2.143   6.147   7.013  0.0931 -0.2763  0.6496
18182SOL    HW156414   2.170   6.186   6.930 -0.5829 -2.4768 -0.6694
18182SOL    HW256415   2.225   6.122   7.056  0.4778  1.4962  1.0316
18183SOL     OW56416   6.812   8.888   2.268  0.0521 -0.0398 -0.5273
18183SOL    HW156417   6.807   8.896   2.173 -2.1181 -0.3299 -0.4848
18183SOL    HW256418   6.794   8.977   2.300  1.1192  0.1314 -0.3687
18184SOL     OW56419   8.754   2.747   8.265 -0.2510  0.2715 -0.0173
18184SOL    HW156420   8.777   2.801   8.341 -0.7352  0.3866  0.0459
18184SOL    HW256421   8.715   2.808   8.203 -1.4456 -0.1161  0.3310
18185SOL     OW56422   2.632   6.062   7.935 -0.8714  0.2824  0.0480
18185SOL    HW156423   2.667   6.146   7.906 -0.3931 -0.1487 -0.6491
18185SOL    HW256424   2.537   6.073   7.930 -0.8785  1.4038  1.7989
18186SOL     OW56425   8.683   3.707   3.879  0.0095  0.8038 -0.0527
18186SOL    HW156426   8.745   3.679   3.812 -0.8892 -2.0356  0.1742
18186SOL    HW256427   8.605   3.653   3.864 -1.5010  2.5024  1.2088
18187SOL     OW56428   2.918   0.470   4.035  0.2275  0.5075  0.4991
18187SOL    HW156429   2.878   0.470   3.949  0.4012  0.1414  0.4185
18187SOL    HW256430   3.001   0.423   4.023 -0.8200 -1.6716  1.3780
18188SOL     OW56431   0.500   2.764   2.140  0.8057 -0.1056 -0.0294
18188SOL    HW156432   0.484   2.724   2.054 -0.0443 -2.5803  1.1824
18188SOL    HW256433   0.517   2.690   2.198  0.1071  1.3912  2.2173
18189SOL     OW56434   2.006   0.485   4.677  0.6177 -0.1575  0.4202
18189SOL    HW156435   2.029   0.544   4.749  1.5544  0.1899 -0.1418
18189SOL    HW256436   2.090   0.463   4.636 -0.0245  2.8228 -3.0179
18190SOL     OW56437   7.468   8.916   6.690 -0.1846 -0.2724 -0.0118
18190SOL    HW156438   7.372   8.909   6.689 -0.2973  0.4643  1.7149
18190SOL    HW256439   7.491   8.944   6.602 -1.6322  0.4280 -0.2005
18191SOL     OW56440   4.100   0.090   8.307  0.1796 -0.1436 -0.2018
18191SOL    HW156441   4.150   0.052   8.379 -1.6054 -1.0639  0.6069
18191SOL    HW256442   4.082   0.016   8.249 -0.2047  0.1846 -0.5083
18192SOL     OW56443   1.005   6.273   5.157  0.5971  0.0833  0.6700
18192SOL    HW156444   1.090   6.305   5.127 -0.0107  1.2820  0.1827
18192SOL    HW256445   0.950   6.275   5.080  0.4268 -1.9174  0.6787
18193SOL     OW56446   8.387   5.341   0.319 -0.3179  0.2186 -0.1508
18193SOL    HW156447   8.305   5.387   0.333 -0.3609 -0.4017  1.9167
18193SOL    HW256448   8.432   5.392   0.252 -1.6166  1.5790 -0.0315
18194SOL     OW56449   6.492   2.986   0.122 -0.1385  0.3625 -0.2257
18194SOL    HW156450   6.549   2.910   0.113  0.1798  0.5870 -0.1134
18194SOL    HW256451   6.405   2.949   0.139 -0.3276 -0.0205 -1.8716
18195SOL     OW56452   7.976   6.600   0.937  0.4301 -0.0078  0.2922
18195SOL    HW156453   7.940   6.538   0.874 -0.5332  0.6500  0.1646
18195SOL    HW256454   8.006   6.545   1.010 -0.8134 -0.6120  0.3828
18196SOL     OW56455   6.037   3.743   0.458 -0.0440  0.0473  0.6736
18196SOL    HW156456   6.046   3.778   0.370  0.3082  0.6315  0.9365
18196SOL    HW256457   6.109   3.680   0.467  0.9572  1.2280  1.1222
18197SOL     OW56458   6.966   8.917   0.219 -0.1852  0.2142 -0.3689
18197SOL    HW156459   6.986   8.918   0.125  0.9819  0.0724 -0.1407
18197SOL    HW256460   6.958   8.825   0.241 -0.6947  0.2557 -0.3684
18198SOL     OW56461   6.822   5.845   0.170 -0.6626  0.1647  0.2805
18198SOL    HW156462   6.851   5.873   0.257 -1.1074  0.7043  0.2573
18198SOL    HW256463   6.829   5.924   0.116  0.4784 -0.3806 -0.4063
18199SOL     OW56464   1.216   6.220   3.473 -0.0279  0.0908  0.1624
18199SOL    HW156465   1.129   6.181   3.481  0.2132 -0.2800  1.0541
18199SOL    HW256466   1.269   6.174   3.537  1.0868 -0.3772 -1.0513
18200SOL     OW56467   5.178   4.707   1.519  0.2412 -0.3685  0.2291
18200SOL    HW156468   5.255   4.670   1.478 -0.7929 -2.3004 -0.0743
18200SOL    HW256469   5.112   4.638   1.515 -1.3715  1.0350  0.9043
18201SOL     OW56470   8.764   4.356   2.542 -0.1470 -0.7347  0.1571
18201SOL    HW156471   8.695   4.295   2.516  0.1740 -0.4797 -1.3774
18201SOL    HW256472   8.772   4.415   2.468 -0.3063  1.0829  1.5243
18202SOL     OW56473   7.872   7.179   7.670  0.0937  0.5107  0.1170
18202SOL    HW156474   7.884   7.164   7.576 -0.6017  0.4346  0.0396
18202SOL    HW256475   7.874   7.275   7.679 -0.3453  0.5388 -0.0494
18203SOL     OW56476   7.907   2.424   8.021  0.3002  0.0951  0.0157
18203SOL    HW156477   7.961   2.490   8.065 -0.7138  0.4299  0.8080
18203SOL    HW256478   7.833   2.411   8.080  0.4153 -1.6752 -0.1794
18204SOL     OW56479   4.493   6.597   5.467 -0.2884  0.1776 -0.7299
18204SOL    HW156480   4.503   6.569   5.559 -1.3213 -0.1785 -0.7185
18204SOL    HW256481   4.546   6.534   5.418  0.9870  0.8952 -0.3213
18205SOL     OW56482   7.786   4.397   4.453 -0.5456 -0.1605  0.3126
18205SOL    HW156483   7.759   4.400   4.545 -1.6675 -0.9120  0.0350
18205SOL    HW256484   7.706   4.375   4.406 -0.4135  1.9551 -1.0541
18206SOL     OW56485   3.051   4.609   3.910 -0.3116 -0.1798  0.3250
18206SOL    HW156486   3.079   4.580   3.823  0.0360 -0.2988  0.4741
18206SOL    HW256487   2.977   4.667   3.893 -0.9398 -1.0576  0.0171
18207SOL     OW56488   5.587   6.141   1.367 -0.9151  0.3799 -0.2473
18207SOL    HW156489   5.615   6.219   1.414 -2.0126  1.0357 -0.6402
18207SOL    HW256490   5.550   6.084   1.434 -0.7361  0.4889 -0.0551
18208SOL     OW56491   4.238   1.153   8.861 -0.1553 -0.6086  0.4851
18208SOL    HW156492   4.297   1.186   8.929  0.6690  0.9822 -0.9415
18208SOL    HW256493   4.212   1.231   8.812 -0.1834 -1.7937 -1.4552
18209SOL     OW56494   5.637   7.167   3.467 -0.3112 -0.0999 -0.6289
18209SOL    HW156495   5.640   7.077   3.499 -1.3080  0.3006  0.6982
18209SOL    HW256496   5.727   7.188   3.443  0.3713 -0.6600  1.3426
18210SOL     OW56497   1.708   2.448   7.986 -0.4768 -0.0845  0.0500
18210SOL    HW156498   1.766   2.477   8.056 -0.3170 -0.9232  0.2764
18210SOL    HW256499   1.733   2.357   7.971 -1.1017 -0.1700 -0.4939
18211SOL     OW56500   6.519   6.719   7.931  0.0756  0.3663 -0.3873
18211SOL    HW156501   6.610   6.747   7.932  1.1068 -2.6409  0.6657
18211SOL    HW256502   6.487   6.741   8.019  0.0341  0.6167 -0.4627
18212SOL     OW56503   2.635   4.108   3.855 -0.2795  0.2408 -0.2871
18212SOL    HW156504   2.696   4.157   3.799  0.5834  1.4814  1.6337
18212SOL    HW256505   2.551   4.116   3.811  0.5661  0.1117 -2.0330
18213SOL     OW56506   3.343   5.194   6.086  0.3410  0.2077 -0.2068
18213SOL    HW156507   3.328   5.199   5.992  0.9375  0.1497 -0.3086
18213SOL    HW256508   3.434   5.223   6.098  0.1470  0.6003  0.3921
18214SOL     OW56509   8.886   2.168   5.854  0.2470 -0.2393 -0.4857
18214SOL    HW156510   8.850   2.084   5.881  3.1056 -0.7488  2.3542
18214SOL    HW256511   8.958   2.184   5.915  1.3310  3.1823 -2.3905
18215SOL     OW56512   1.596   1.960   4.917  0.2304 -0.2687  0.4556
18215SOL    HW156513   1.619   1.868   4.921 -0.5550 -0.5275 -0.4350
18215SOL    HW256514   1.617   1.995   5.003 -1.3290 -1.7347  1.4753
18216SOL     OW56515   5.216   8.669   5.182  0.3032 -0.6040  0.0912
18216SOL    HW156516   5.256   8.628   5.105 -1.2618  0.4941 -1.3635
18216SOL    HW256517   5.138   8.616   5.199  1.4838 -1.8735  2.0524
18217SOL     OW56518   6.583   8.251   6.927  0.4165 -0.4522  0.2059
18217SOL    HW156519   6.618   8.336   6.954  0.4662 -0.6585  0.8032
18217SOL    HW256520   6.537   8.270   6.845  1.1031 -0.0036 -0.0850
18218SOL     OW56521   1.727   4.738   0.297  0.0917 -0.0860  1.0052
18218SOL    HW156522   1.664   4.719   0.367 -2.3764  0.8614 -0.8128
18218SOL    HW256523   1.739   4.832   0.300  0.8292 -0.1686  0.8183
18219SOL     OW56524   8.074   7.633   7.713  0.1480  0.0459  0.2201
18219SOL    HW156525   8.065   7.726   7.732  1.2353  0.5154 -1.3758
18219SOL    HW256526   7.993   7.594   7.746 -1.3158  1.8726 -0.9980
18220SOL     OW56527   6.507   7.506   8.441  0.7101 -0.6254  0.2522
18220SOL    HW156528   6.456   7.462   8.508  1.6115 -0.0562  1.3426
18220SOL    HW256529   6.443   7.534   8.376 -0.4514  0.4512  1.7827
18221SOL     OW56530   8.052   8.054   5.069  0.3095 -0.2432 -0.2154
18221SOL    HW156531   8.146   8.043   5.085  0.8466  1.5850 -1.7536
18221SOL    HW256532   8.025   7.972   5.027  1.4437 -0.4207 -0.6341
18222SOL     OW56533   7.290   2.456   0.419  0.6760  0.0195 -0.5370
18222SOL    HW156534   7.329   2.540   0.394  0.2266  0.6752  0.8192
18222SOL    HW256535   7.201   2.480   0.446  0.0457 -1.1261 -1.5398
18223SOL     OW56536   1.482   7.705   0.696 -0.5743 -0.5297  0.1956
18223SOL    HW156537   1.563   7.664   0.725 -0.8425 -0.1065  1.6124
18223SOL    HW256538   1.427   7.633   0.667 -0.7168 -1.1404  1.8642
18224SOL     OW56539   5.204   6.265   7.669  0.2783  0.2735  0.1527
18224SOL    HW156540   5.162   6.343   7.632 -1.3562 -1.2405 -1.3740
18224SOL    HW256541   5.247   6.223   7.594  1.3194 -0.1971  0.9930
18225SOL     OW56542   4.535   3.507   0.450  0.3426 -0.5921  0.2057
18225SOL    HW156543   4.492   3.424   0.468  0.3446 -0.4746  0.7787
18225SOL    HW256544   4.554   3.505   0.356  1.3905 -1.7431  0.4116
18226SOL     OW56545   6.392   3.670   1.086 -0.8156 -0.0872  0.3243
18226SOL    HW156546   6.437   3.729   1.024 -1.3557 -1.2198 -1.2189
18226SOL    HW256547   6.302   3.703   1.089 -1.1061 -0.7673 -0.5031
18227SOL     OW56548   6.650   7.098   3.468  0.8671  0.4279  0.4702
18227SOL    HW156549   6.720   7.161   3.451  0.8735  0.6496  1.2922
18227SOL    HW256550   6.683   7.015   3.435  1.2226  0.6729  0.2042
18228SOL     OW56551   1.767   6.766   1.341 -0.1716 -0.3802 -0.3140
18228SOL    HW156552   1.774   6.686   1.289 -0.6281  0.5655 -1.8824
18228SOL    HW256553   1.854   6.776   1.381  0.7784 -0.2415 -2.2806
18229SOL     OW56554   1.549   6.196   4.360  0.2581 -0.3811  0.2568
18229SOL    HW156555   1.566   6.165   4.449  0.5392 -2.4660 -0.4715
18229SOL    HW256556   1.461   6.165   4.339 -0.6755  1.8805  0.4813
18230SOL     OW56557   7.293   1.179   3.429 -0.6613 -0.8614  0.2574
18230SOL    HW156558   7.367   1.220   3.474 -0.2865 -1.5264  0.2646
18230SOL    HW256559   7.221   1.186   3.492 -0.6073 -0.2172  0.2535
18231SOL     OW56560   4.354   6.176   8.586 -0.0823 -0.0936 -0.3502
18231SOL    HW156561   4.376   6.192   8.677  0.7305  1.0497 -0.7278
18231SOL    HW256562   4.271   6.221   8.572  1.3157  2.4842 -0.9425
18232SOL     OW56563   8.156   3.557   7.504 -0.3671 -0.4522  1.1081
18232SOL    HW156564   8.214   3.567   7.429 -2.1562 -0.6161 -0.3652
18232SOL    HW256565   8.136   3.647   7.531 -1.7828 -0.2948 -0.3266
18233SOL     OW56566   5.307   7.558   4.102  0.0475  0.1404 -0.4085
18233SOL    HW156567   5.358   7.629   4.064 -0.7065  0.5228 -0.7321
18233SOL    HW256568   5.244   7.534   4.033 -1.2111  0.7089  0.4988
18234SOL     OW56569   5.408   6.744   0.090 -0.1583 -0.2333 -0.4931
18234SOL    HW156570   5.391   6.684   0.017 -0.4076 -1.4736  0.5339
18234SOL    HW256571   5.334   6.730   0.149 -0.8190  1.9715 -0.7381
18235SOL     OW56572   4.042   8.391   3.393  0.3967 -0.0544  0.1325
18235SOL    HW156573   4.050   8.466   3.453 -1.2650 -0.1973  0.5660
18235SOL    HW256574   4.001   8.428   3.315 -3.3947 -0.9600  1.4782
18236SOL     OW56575   5.861   2.963   1.825 -0.3583 -0.6496 -0.0408
18236SOL    HW156576   5.911   2.893   1.785  1.5115  0.8101 -0.3783
18236SOL    HW256577   5.776   2.960   1.781  0.5410 -1.1435 -1.8061
18237SOL     OW56578   1.523   4.705   6.003 -0.0080  0.2659  0.3125
18237SOL    HW156579   1.570   4.736   6.081 -0.5549  0.3864  0.5989
18237SOL    HW256580   1.499   4.615   6.024  0.3159  0.1219  0.0646
18238SOL     OW56581   7.402   8.659   0.305  0.4721  0.1450  0.2255
18238SOL    HW156582   7.485   8.705   0.294  0.4787  0.2766  0.7611
18238SOL    HW256583   7.416   8.572   0.267  1.4317 -0.4483  1.8156
18239SOL     OW56584   4.599   2.152   3.113 -0.5971  0.0707 -0.7628
18239SOL    HW156585   4.639   2.070   3.083  1.3555  0.1340  1.3932
18239SOL    HW256586   4.530   2.125   3.173  0.2940 -0.0368  0.2397
18240SOL     OW56587   3.303   3.844   0.128 -0.3084  0.4659  0.1262
18240SOL    HW156588   3.350   3.898   0.192  1.3494 -0.8015  0.0331
18240SOL    HW256589   3.321   3.754   0.155  1.3471 -0.1591 -2.6853
18241SOL     OW56590   4.330   7.598   2.124 -0.0061 -0.7108 -0.3199
18241SOL    HW156591   4.407   7.588   2.181  0.1969  1.8600 -0.0391
18241SOL    HW256592   4.358   7.564   2.039  0.3105 -2.8376  0.5662
18242SOL     OW56593   7.962   4.864   8.874 -0.0703 -0.1673  0.2791
18242SOL    HW156594   7.946   4.879   8.968 -2.7533 -0.4364 -0.0552
18242SOL    HW256595   7.964   4.952   8.836  0.7868 -0.0676  0.5361
18243SOL     OW56596   4.009   4.318   0.659  1.1027 -0.5066  0.0778
18243SOL    HW156597   4.002   4.365   0.576  0.7494 -0.9639 -0.1525
18243SOL    HW256598   3.939   4.254   0.657 -0.4438  0.9889  1.7159
18244SOL     OW56599   4.019   3.238   0.649  0.3153  0.7028 -0.2927
18244SOL    HW156600   3.934   3.228   0.691  1.2362 -1.9743  1.1819
18244SOL    HW256601   4.077   3.179   0.698  2.4500  0.5876 -2.7426
18245SOL     OW56602   1.699   4.960   8.351 -0.4570  0.4161 -0.5705
18245SOL    HW156603   1.703   5.021   8.425  0.1037  0.6886 -0.8251
18245SOL    HW256604   1.778   4.978   8.300 -0.4291 -0.3328 -0.7999
18246SOL     OW56605   2.651   0.389   4.964  0.0754 -0.6921  0.3752
18246SOL    HW156606   2.562   0.375   4.997  0.0609 -1.1341  0.1659
18246SOL    HW256607   2.638   0.420   4.874  0.1282 -0.5264  0.4253
18247SOL     OW56608   5.088   6.240   1.094  0.6323 -0.7594 -0.3888
18247SOL    HW156609   5.073   6.240   1.000  0.9088 -1.7017 -0.4509
18247SOL    HW256610   5.015   6.190   1.130 -1.4156  2.4263  0.3105
18248SOL     OW56611   0.528   7.490   8.856  0.4192 -0.2619 -0.8542
18248SOL    HW156612   0.507   7.458   8.944  1.1081  0.2462 -0.4981
18248SOL    HW256613   0.474   7.568   8.844  1.7149  0.7931 -0.1076
18249SOL     OW56614   8.117   0.288   4.175 -0.1658 -0.0693  0.0939
18249SOL    HW156615   8.138   0.284   4.269 -0.3009 -2.1445  0.0754
18249SOL    HW256616   8.190   0.336   4.136  1.0231 -1.1106  0.9749
18250SOL     OW56617   6.205   4.042   3.900 -0.2497  0.1537 -0.0508
18250SOL    HW156618   6.284   4.054   3.847 -1.0466 -1.5873 -1.7787
18250SOL    HW256619   6.151   4.118   3.880  0.2803  0.4873 -0.2301
18251SOL     OW56620   2.359   6.402   5.189  0.3115 -0.1034  0.2084
18251SOL    HW156621   2.379   6.317   5.150  1.3996 -0.2654  1.0513
18251SOL    HW256622   2.302   6.381   5.263  0.8776 -0.1574  0.6394
18252SOL     OW56623   3.305   1.972   6.950  0.5633  1.1259  0.5876
18252SOL    HW156624   3.276   1.894   6.998 -1.3969  0.8173 -0.9729
18252SOL    HW256625   3.255   2.044   6.990  1.5429  1.4445  1.2839
18253SOL     OW56626   0.258   1.190   6.630 -0.4356 -0.6967 -0.4411
18253SOL    HW156627   0.165   1.177   6.614 -0.7783 -1.9294  1.9856
18253SOL    HW256628   0.301   1.117   6.587 -0.4195  0.4236 -2.4404
18254SOL     OW56629   0.372   3.731   7.872  0.2676  0.2965 -0.4462
18254SOL    HW156630   0.300   3.730   7.810 -0.2632 -2.0071  0.0809
18254SOL    HW256631   0.408   3.642   7.868  1.9294  0.8685  0.5971
18255SOL     OW56632   8.301   8.110   1.232 -0.1831 -0.8680 -0.4436
18255SOL    HW156633   8.337   8.135   1.147 -1.2080 -0.6217 -0.8213
18255SOL    HW256634   8.209   8.093   1.215 -1.1997  2.1673  1.1197
18256SOL     OW56635   8.889   2.307   8.877  0.0850 -0.2800  0.1023
18256SOL    HW156636   8.830   2.333   8.947  0.2036  0.2322  0.0178
18256SOL    HW256637   8.834   2.302   8.799  0.1260  0.0609  0.0508
18257SOL     OW56638   5.872   1.363   1.880  0.4136  0.0589  0.3274
18257SOL    HW156639   5.951   1.370   1.934  0.1621 -0.6999  0.8151
18257SOL    HW256640   5.804   1.406   1.931  0.6975  1.6247 -0.5420
18258SOL     OW56641   2.301   5.229   0.351 -0.5283  0.0453  0.5656
18258SOL    HW156642   2.365   5.293   0.321  0.4881 -0.9135  0.6029
18258SOL    HW256643   2.221   5.250   0.303  0.4034 -0.0272 -1.1107
18259SOL     OW56644   5.956   8.906   8.350  0.3048 -0.2049  0.1021
18259SOL    HW156645   5.976   8.878   8.439  0.1179 -0.1823  0.1505
18259SOL    HW256646   6.037   8.947   8.319 -0.1295  1.3240  0.8589
18260SOL     OW56647   5.985   0.938   8.105  0.0655 -1.1692 -0.0843
18260SOL    HW156648   5.997   0.871   8.173 -0.1229 -0.8780  0.2389
18260SOL    HW256649   6.066   0.989   8.108  0.5716 -1.8908 -0.9093
18261SOL     OW56650   8.850   4.611   1.423  0.0265 -0.3722 -0.4942
18261SOL    HW156651   8.815   4.556   1.353 -0.9413  0.2406 -0.5111
18261SOL    HW256652   8.853   4.699   1.386 -2.2510  0.3072  0.7704
18262SOL     OW56653   0.789   1.867   7.128 -0.0388  0.0830  0.3296
18262SOL    HW156654   0.819   1.777   7.119  1.3681  0.6527 -1.0900
18262SOL    HW256655   0.763   1.893   7.040  0.3610  1.3141  0.5568
18263SOL     OW56656   1.287   3.682   7.536 -0.0924  0.3600 -0.0647
18263SOL    HW156657   1.217   3.626   7.569  0.6676  0.3994  1.7437
18263SOL    HW256658   1.365   3.654   7.584  0.7863  1.4268 -0.8094
18264SOL     OW56659   4.110   0.812   5.296 -0.2768  0.9666 -0.6141
18264SOL    HW156660   4.117   0.837   5.388 -0.3766  0.9731 -0.6078
18264SOL    HW256661   4.196   0.832   5.259  0.0023  0.2916 -0.3566
18265SOL     OW56662   2.853   3.303   8.649  0.0261  0.1953  0.2187
18265SOL    HW156663   2.840   3.295   8.554  2.6625 -0.0330 -0.1912
18265SOL    HW256664   2.792   3.372   8.675 -0.4553  0.5754 -1.7084
18266SOL     OW56665   3.063   8.089   8.192  0.3215 -0.1221 -0.7455
18266SOL    HW156666   3.036   8.012   8.143 -0.9745  0.9290 -1.7535
18266SOL    HW256667   2.985   8.116   8.240  0.1787  1.5669 -1.8137
18267SOL     OW56668   4.002   5.299   4.402 -0.0079  0.8222 -0.6591
18267SOL    HW156669   4.070   5.289   4.335  0.2099  1.2623 -0.5055
18267SOL    HW256670   3.940   5.228   4.384  1.9386 -1.4533  0.9762
18268SOL     OW56671   3.192   4.307   7.389  0.4047 -0.5144 -0.2315
18268SOL    HW156672   3.284   4.304   7.416  0.0664 -1.2898  0.8857
18268SOL    HW256673   3.189   4.258   7.307  0.9871 -0.4778 -0.2769
18269SOL     OW56674   6.636   7.291   0.821 -0.3323  0.0626 -0.2127
18269SOL    HW156675   6.581   7.358   0.862 -0.0781  0.2401 -0.1567
18269SOL    HW256676   6.579   7.215   0.812 -1.4125  1.0725 -2.6283
18270SOL     OW56677   7.203   4.699   0.023  0.0160 -0.1244  0.3466
18270SOL    HW156678   7.222   4.615   0.066 -1.8577 -0.3112  0.9273
18270SOL    HW256679   7.129   4.734   0.073  1.0985  2.1703  0.4737
18271SOL     OW56680   8.280   2.994   8.500  0.3413  0.9030 -0.2443
18271SOL    HW156681   8.314   3.039   8.423  1.0814 -0.6822 -0.8800
18271SOL    HW256682   8.337   2.918   8.511  0.7678  1.4965  2.3659
18272SOL     OW56683   8.629   3.083   0.516  0.1459  0.1664  0.3284
18272SOL    HW156684   8.675   3.140   0.577  1.6591  0.5923 -1.1463
18272SOL    HW256685   8.605   3.139   0.443  1.6267 -0.9938 -1.1408
18273SOL     OW56686   1.295   2.942   6.309  0.2072 -0.2632 -0.4017
18273SOL    HW156687   1.268   2.967   6.220 -0.7207 -0.3947 -0.1581
18273SOL    HW256688   1.292   2.846   6.309  0.4406 -0.2718 -0.2956
18274SOL     OW56689   8.842   3.016   8.534 -0.3386  0.2308 -0.0198
18274SOL    HW156690   8.890   3.004   8.451 -0.1452  0.3656  0.0695
18274SOL    HW256691   8.789   2.938   8.543 -0.7450  0.4410 -0.5314
18275SOL     OW56692   7.444   0.951   2.710  0.3006  0.1672 -0.7770
18275SOL    HW156693   7.518   0.900   2.678  1.1260  1.4358 -0.9896
18275SOL    HW256694   7.405   0.990   2.632 -2.1001 -2.2978 -0.9616
18276SOL     OW56695   1.523   3.038   1.146  0.0071  0.7137  0.4149
18276SOL    HW156696   1.564   3.092   1.078  2.0063  0.6011  1.4430
18276SOL    HW256697   1.479   3.100   1.203 -0.7759  0.8956 -0.3537
18277SOL     OW56698   8.702   1.274   1.398 -0.9337  0.6772  0.3361
18277SOL    HW156699   8.671   1.364   1.406 -1.6347  0.2827  3.3306
18277SOL    HW256700   8.622   1.222   1.383 -0.4985  0.5133 -1.7496
18278SOL     OW56701   1.133   2.081   5.858  0.1914 -0.4373 -0.6384
18278SOL    HW156702   1.063   2.092   5.793 -1.1796  0.3423  0.8992
18278SOL    HW256703   1.206   2.132   5.822 -1.4825  2.4574 -0.2981
18279SOL     OW56704   0.303   5.826   4.051 -0.3299 -0.4628  0.1741
18279SOL    HW156705   0.254   5.744   4.042 -1.2511  0.3410 -3.7124
18279SOL    HW256706   0.240   5.894   4.029  1.2926  1.0139 -0.0591
18280SOL     OW56707   1.328   6.837   6.079  0.4456 -0.0796 -0.1407
18280SOL    HW156708   1.266   6.808   6.146  0.4352  1.7552  0.7123
18280SOL    HW256709   1.273   6.868   6.008  0.4030  0.2072  0.0156
18281SOL     OW56710   6.190   6.175   2.355 -0.3693 -0.0789  0.1983
18281SOL    HW156711   6.164   6.241   2.419 -0.4854 -0.4557  0.5511
18281SOL    HW256712   6.132   6.188   2.281 -0.4809  0.1261  0.3219
18282SOL     OW56713   0.440   4.745   2.884  0.1375  0.0500  0.3570
18282SOL    HW156714   0.379   4.794   2.939 -0.3943 -0.9286  0.6712
18282SOL    HW256715   0.385   4.699   2.821  0.6631  0.2448 -0.2608
18283SOL     OW56716   6.946   2.156   4.636 -0.1211 -0.1926 -0.6787
18283SOL    HW156717   6.975   2.168   4.545 -0.5069 -0.1204 -0.7920
18283SOL    HW256718   6.924   2.063   4.641  1.8296 -0.6839 -0.0975
18284SOL     OW56719   4.321   8.876   2.130  0.4550 -0.3361  0.5316
18284SOL    HW156720   4.332   8.930   2.209  1.2781  0.0488  0.1682
18284SOL    HW256721   4.313   8.939   2.059  0.5115 -0.6932  0.2047
18285SOL     OW56722   8.004   7.873   8.364  0.0073 -0.1245  0.1027
18285SOL    HW156723   7.936   7.808   8.347 -0.5798  0.2501  0.9625
18285SOL    HW256724   7.961   7.958   8.353  0.1578  0.1170  1.2297
18286SOL     OW56725   8.844   6.039   0.585 -0.2639  0.8209 -0.2294
18286SOL    HW156726   8.796   6.053   0.503  0.0567 -2.3017 -1.0717
18286SOL    HW256727   8.785   5.987   0.639  0.9718 -0.4945 -0.0872
18287SOL     OW56728   6.309   2.223   8.048  0.7202 -0.2503  0.3261
18287SOL    HW156729   6.221   2.240   8.013  0.6942  3.5895  1.6940
18287SOL    HW256730   6.299   2.233   8.143  2.7204  1.3499  0.4385
18288SOL     OW56731   0.123   6.024   4.308  0.2451  0.0202  0.1897
18288SOL    HW156732   0.087   5.938   4.329 -0.2542  0.0464 -0.5099
18288SOL    HW256733   0.175   6.048   4.384 -3.2200  1.1343  2.3952
18289SOL     OW56734   4.757   8.762   3.309 -0.4367 -0.4829 -0.0361
18289SOL    HW156735   4.771   8.854   3.332 -2.5165  0.0658 -0.7536
18289SOL    HW256736   4.843   8.731   3.280 -0.0147  1.7139 -1.3492
18290SOL     OW56737   1.295   4.244   4.042  0.2118 -0.0638 -0.2685
18290SOL    HW156738   1.241   4.222   3.967 -0.5811 -0.9738  0.5507
18290SOL    HW256739   1.258   4.327   4.074 -0.5097 -0.5203  0.1001
18291SOL     OW56740   8.374   6.982   5.982 -0.3976 -0.4673 -0.1486
18291SOL    HW156741   8.280   7.001   5.983 -0.3356  0.6011 -3.3019
18291SOL    HW256742   8.413   7.050   6.036 -1.3913 -1.0030  1.3142
18292SOL     OW56743   5.879   1.875   4.602 -0.0408 -0.2500 -0.2194
18292SOL    HW156744   5.970   1.903   4.599  0.1192 -0.6732  0.4700
18292SOL    HW256745   5.833   1.935   4.543  0.9447 -1.0828 -1.8921
18293SOL     OW56746   5.040   0.466   2.991 -0.5442 -0.8009 -0.2188
18293SOL    HW156747   5.051   0.426   2.904 -0.6439 -0.2470 -0.4901
18293SOL    HW256748   5.062   0.396   3.052  0.4298 -0.9340 -0.6980
18294SOL     OW56749   7.797   7.937   3.207 -0.0226  0.7590 -0.4508
18294SOL    HW156750   7.831   8.025   3.219 -1.4864  1.3343 -0.2666
18294SOL    HW256751   7.721   7.932   3.266  1.7148 -1.6668  1.7981
18295SOL     OW56752   7.673   7.166   7.400  0.1625 -0.5053 -0.4196
18295SOL    HW156753   7.658   7.101   7.469  1.5877  1.8904  2.3746
18295SOL    HW256754   7.718   7.118   7.330 -0.2010 -2.8038  0.8452
18296SOL     OW56755   3.776   8.161   0.222  0.1124  0.0052  0.2156
18296SOL    HW156756   3.805   8.209   0.300  0.7648  1.9091 -1.0984
18296SOL    HW256757   3.843   8.094   0.209  0.7907  0.6131  0.4943
18297SOL     OW56758   1.130   8.558   5.166 -0.0946 -0.1288 -0.2863
18297SOL    HW156759   1.108   8.466   5.149  0.5685 -0.1892 -0.8840
18297SOL    HW256760   1.144   8.563   5.261 -1.6021 -0.3035 -0.0307
18298SOL     OW56761   0.094   5.401   0.474 -0.3936 -0.2377 -0.1510
18298SOL    HW156762   0.178   5.387   0.429  0.1384  0.0713  0.7209
18298SOL    HW256763   0.081   5.496   0.471 -1.9872 -0.4543 -2.4979
18299SOL     OW56764   5.125   6.833   1.938  0.4151  0.2589  0.0577
18299SOL    HW156765   5.125   6.747   1.980 -0.9427  1.0979  1.9320
18299SOL    HW256766   5.104   6.816   1.847 -2.9521 -1.2189  0.9674
18300SOL     OW56767   1.085   5.212   1.358  0.2029  0.4764  0.1718
18300SOL    HW156768   1.084   5.116   1.358 -0.5449  0.4832 -0.3709
18300SOL    HW256769   1.090   5.236   1.266 -1.1027  0.9656  0.2190
18301SOL     OW56770   3.254   2.627   1.065  0.4339  0.2930 -0.3619
18301SOL    HW156771   3.201   2.648   0.988  0.6747 -2.9101 -1.5662
18301SOL    HW256772   3.339   2.666   1.047  0.8943 -1.5209 -2.4574
18302SOL     OW56773   8.445   6.760   6.710  0.2344  0.0716 -0.1870
18302SOL    HW156774   8.394   6.694   6.662 -0.6708 -0.3620  1.3023
18302SOL    HW256775   8.381   6.828   6.731  0.2304 -0.4537  1.6757
18303SOL     OW56776   0.998   7.779   1.393  0.3959  0.1100  0.1663
18303SOL    HW156777   0.979   7.837   1.320  0.0211 -2.7485 -2.2250
18303SOL    HW256778   0.912   7.755   1.428  0.3693 -1.0002 -0.6133
18304SOL     OW56779   1.184   5.174   7.119 -0.7504  0.1911  0.3429
18304SOL    HW156780   1.173   5.239   7.188 -0.1804 -0.1894  0.7999
18304SOL    HW256781   1.239   5.218   7.054 -0.9505  0.4113  0.3228
18305SOL     OW56782   6.706   0.594   5.458 -0.3812 -0.2798  0.5607
18305SOL    HW156783   6.731   0.676   5.416 -1.5452 -0.9674 -1.6854
18305SOL    HW256784   6.771   0.581   5.527  0.4884  1.9379  0.2445
18306SOL     OW56785   6.130   8.039   8.396  0.3273  0.1520  0.6517
18306SOL    HW156786   6.166   8.011   8.312  0.5953 -1.4148  1.2484
18306SOL    HW256787   6.195   8.098   8.432  0.2626  0.7451 -0.1794
18307SOL     OW56788   3.792   3.858   2.719  0.0252  0.0440  0.1131
18307SOL    HW156789   3.870   3.804   2.729 -0.3695 -1.1997 -2.5348
18307SOL    HW256790   3.825   3.946   2.704  1.1064 -0.6873 -2.3601
18308SOL     OW56791   4.237   1.062   4.715  0.3491 -0.0325  0.5301
18308SOL    HW156792   4.239   1.157   4.715  2.2806 -0.0471  0.3259
18308SOL    HW256793   4.160   1.040   4.768 -1.0233  1.6045 -0.6912
18309SOL     OW56794   6.102   5.207   0.281  0.0043  0.0247 -0.1567
18309SOL    HW156795   6.180   5.163   0.317  0.3258  1.3115  0.7947
18309SOL    HW256796   6.060   5.140   0.228 -0.4329 -2.0055  2.5165
18310SOL     OW56797   0.494   3.324   5.847 -0.9125 -0.2380  0.3787
18310SOL    HW156798   0.441   3.329   5.768  0.4245 -0.7688 -0.5883
18310SOL    HW256799   0.575   3.370   5.824  0.0491 -1.5922  0.9566
18311SOL     OW56800   0.519   4.106   6.634  0.0219  0.5824  0.5165
18311SOL    HW156801   0.477   4.177   6.683  2.0350  1.9179  0.4578
18311SOL    HW256802   0.486   4.026   6.673 -0.5600  1.5854  2.1768
18312SOL     OW56803   2.372   3.757   0.133  0.8937  0.4816  0.3910
18312SOL    HW156804   2.279   3.742   0.152  0.6864  0.7132 -0.4034
18312SOL    HW256805   2.399   3.678   0.085  0.9960  0.6082  0.2418
18313SOL     OW56806   1.599   6.325   6.634  0.4136 -0.5072  0.5401
18313SOL    HW156807   1.566   6.398   6.688 -0.6800 -0.2336 -0.4467
18313SOL    HW256808   1.591   6.248   6.690  0.1514 -0.0925  1.0863
18314SOL     OW56809   2.631   7.764   2.534 -0.0246  0.0206 -0.1112
18314SOL    HW156810   2.699   7.801   2.479 -1.3762  0.3347 -1.6292
18314SOL    HW256811   2.656   7.789   2.623  2.2769 -0.6284 -0.5194
18315SOL     OW56812   6.428   2.381   2.179  0.3534  0.5175  0.1055
18315SOL    HW156813   6.432   2.286   2.178 -0.9736  0.4302 -1.1865
18315SOL    HW256814   6.336   2.401   2.200  0.7196  1.5216  0.8252
18316SOL     OW56815   0.876   4.165   3.814  0.3042  0.7461 -0.1748
18316SOL    HW156816   0.969   4.152   3.801  0.2528  0.5421 -0.3491
18316SOL    HW256817   0.850   4.227   3.746  0.8128  2.9314  1.5009
18317SOL     OW56818   4.444   6.106   5.535 -0.7316  0.2117 -0.4599
18317SOL    HW156819   4.470   6.028   5.488  2.6054 -0.3055  1.8547
18317SOL    HW256820   4.396   6.074   5.612  0.5232  0.3733  0.4228
18318SOL     OW56821   2.924   1.987   4.114 -0.3009  0.4473  0.0548
18318SOL    HW156822   2.875   2.067   4.097  0.0341  0.9570  1.3227
18318SOL    HW256823   2.977   2.007   4.191  0.2271 -0.8103  0.0554
18319SOL     OW56824   3.122   1.528   7.881 -0.0028  0.1385 -0.1913
18319SOL    HW156825   3.176   1.470   7.828  0.5844  1.3440 -0.9327
18319SOL    HW256826   3.085   1.591   7.819  0.2646  1.2418  0.7326
18320SOL     OW56827   2.694   1.961   7.000 -0.5578 -0.5337  0.0987
18320SOL    HW156828   2.733   2.038   6.958  1.6888 -0.3094  2.3550
18320SOL    HW256829   2.613   1.995   7.039 -0.7216  0.1451 -0.7960
18321SOL     OW56830   6.586   5.960   8.353 -0.7546 -0.4748  0.1950
18321SOL    HW156831   6.623   5.876   8.381 -1.0759 -0.9792 -0.8428
18321SOL    HW256832   6.628   6.024   8.410  0.6965 -1.1692 -0.0358
18322SOL     OW56833   3.273   3.492   7.261 -0.7193 -0.2727  0.2715
18322SOL    HW156834   3.323   3.426   7.214  0.8348  0.3953  0.9316
18322SOL    HW256835   3.247   3.555   7.194  1.5269  0.7082  0.2407
18323SOL     OW56836   4.897   3.540   0.709  0.0253  0.0175  0.1225
18323SOL    HW156837   4.978   3.589   0.694 -0.4073  1.3726  1.8405
18323SOL    HW256838   4.828   3.597   0.675 -0.3018 -0.7288 -0.5000
18324SOL     OW56839   6.387   2.466   7.448  0.1070  0.2021 -0.5266
18324SOL    HW156840   6.394   2.378   7.484  0.6009 -0.2510 -1.6962
18324SOL    HW256841   6.295   2.474   7.422  0.4018 -0.5790 -1.8916
18325SOL     OW56842   8.422   3.103   2.703  0.0893  0.5832  0.2602
18325SOL    HW156843   8.452   3.049   2.776  1.4887  1.7269  0.5900
18325SOL    HW256844   8.466   3.066   2.626  0.1704  0.5610  0.3169
18326SOL     OW56845   4.301   3.814   6.498  0.1876 -0.0503  0.1990
18326SOL    HW156846   4.305   3.825   6.403  0.1624  1.2323  0.3241
18326SOL    HW256847   4.208   3.802   6.517  0.1430  0.1122  0.0902
18327SOL     OW56848   5.269   0.894   3.069  0.7619  0.1448  0.5098
18327SOL    HW156849   5.189   0.890   3.016  0.3145  0.3087  1.1539
18327SOL    HW256850   5.326   0.955   3.023  0.6838 -0.2932 -0.1763
18328SOL     OW56851   4.582   2.826   4.660  0.2232  0.2763  0.1147
18328SOL    HW156852   4.571   2.907   4.710 -2.5930 -0.3401  0.6923
18328SOL    HW256853   4.532   2.840   4.580  1.5774 -0.1314 -0.8418
18329SOL     OW56854   5.053   8.409   0.555 -0.0904 -0.3995  0.2844
18329SOL    HW156855   5.009   8.373   0.477  2.0573 -1.4100 -0.5369
18329SOL    HW256856   5.067   8.501   0.534 -1.0416 -0.2550  0.2224
18330SOL     OW56857   4.790   3.398   3.116  0.2405 -0.8794 -0.1572
18330SOL    HW156858   4.719   3.365   3.060 -1.0519  0.5739  0.5520
18330SOL    HW256859   4.822   3.321   3.162 -0.9331 -1.5622 -0.4455
18331SOL     OW56860   8.908   8.774   7.447 -0.4100  0.2788 -0.0853
18331SOL    HW156861   8.874   8.771   7.537 -1.4282  0.6178 -0.4428
18331SOL    HW256862   8.935   8.684   7.430 -1.8625 -0.1968 -0.0332
18332SOL     OW56863   4.299   5.490   6.548 -0.4465  0.4491 -0.1867
18332SOL    HW156864   4.264   5.579   6.553 -0.8714  0.2604  0.3540
18332SOL    HW256865   4.348   5.479   6.630 -4.1885 -1.3541  2.0947
18333SOL     OW56866   3.034   4.438   4.123 -0.1162 -0.3948  0.5011
18333SOL    HW156867   3.054   4.518   4.073 -0.3603  0.6989  2.0674
18333SOL    HW256868   3.114   4.421   4.173 -0.6654 -0.0849  1.5042
18334SOL     OW56869   5.566   4.892   2.464  0.7795  0.4156  0.7024
18334SOL    HW156870   5.579   4.986   2.478  0.8696  0.3429  1.1309
18334SOL    HW256871   5.587   4.852   2.549 -0.7586  0.1396  0.9678
18335SOL     OW56872   7.230   8.638   7.506 -0.7469  0.5713 -0.3375
18335SOL    HW156873   7.237   8.542   7.502  0.6919  0.4111  2.8873
18335SOL    HW256874   7.294   8.669   7.442  1.1012 -0.7162  0.7848
18336SOL     OW56875   8.168   1.042   7.574  0.1508  0.3562  0.3173
18336SOL    HW156876   8.231   0.977   7.605  0.6735  0.6588 -0.0905
18336SOL    HW256877   8.083   1.001   7.587  0.4479 -0.2093  0.5234
18337SOL     OW56878   2.966   1.117   0.528  0.2671 -0.2725  0.0578
18337SOL    HW156879   2.968   1.211   0.509 -0.7907 -0.4424 -1.0408
18337SOL    HW256880   2.956   1.112   0.623 -0.6420  0.7554  0.0391
18338SOL     OW56881   3.151   0.479   4.528  0.2671 -0.0083 -0.6087
18338SOL    HW156882   3.095   0.533   4.584 -0.0539  0.9558 -1.8180
18338SOL    HW256883   3.099   0.465   4.449  1.3771  0.1213 -1.3790
18339SOL     OW56884   6.501   8.733   0.240 -0.2841 -1.0239  0.3584
18339SOL    HW156885   6.412   8.768   0.236 -0.4814 -1.4301  0.9582
18339SOL    HW256886   6.544   8.786   0.308 -0.5001 -1.7359  1.0665
18340SOL     OW56887   7.102   2.511   5.453  0.3392 -0.2940  0.0476
18340SOL    HW156888   7.065   2.439   5.401  0.2560  0.0240 -0.3332
18340SOL    HW256889   7.135   2.468   5.532 -0.7804 -0.5968  0.3723
18341SOL     OW56890   4.608   4.974   2.252  0.5994 -0.3474  0.3959
18341SOL    HW156891   4.631   4.973   2.159 -0.3978 -0.1744  0.1345
18341SOL    HW256892   4.574   5.062   2.268  0.0369 -0.6226  0.7364
18342SOL     OW56893   3.424   4.141   4.433  0.0641  0.6182  0.0335
18342SOL    HW156894   3.345   4.087   4.424  1.9266 -2.4587  0.3705
18342SOL    HW256895   3.432   4.156   4.527 -0.3686  1.3673 -0.0459
18343SOL     OW56896   3.595   6.038   8.033 -0.1635  0.6506 -0.4524
18343SOL    HW156897   3.515   6.082   8.063 -0.2155  0.1006  0.2594
18343SOL    HW256898   3.575   5.945   8.042 -0.2837  0.4313 -2.5095
18344SOL     OW56899   1.724   3.110   0.948 -0.3319 -0.2414  0.2670
18344SOL    HW156900   1.778   3.180   0.910 -1.5771  0.8355  0.3974
18344SOL    HW256901   1.698   3.056   0.873  0.9754 -0.8318  0.2163
18345SOL     OW56902   7.688   3.383   0.505  0.2795  0.2795 -0.0335
18345SOL    HW156903   7.691   3.299   0.550 -0.3736  0.4633  0.3739
18345SOL    HW256904   7.765   3.384   0.449  0.8959 -0.1236  0.7923
18346SOL     OW56905   0.050   2.454   0.064 -0.3807 -0.1345  0.1556
18346SOL    HW156906   0.115   2.385   0.082  0.8132  1.0768  0.6914
18346SOL    HW256907  -0.014   2.413   0.007  0.7245 -1.4649 -0.1723
18347SOL     OW56908   0.357   0.452   3.366  0.4400  0.2690 -0.2155
18347SOL    HW156909   0.452   0.454   3.381  0.7445  0.6654 -2.0155
18347SOL    HW256910   0.343   0.377   3.309 -0.2903  0.4528 -0.2905
18348SOL     OW56911   1.646   6.994   8.478 -0.1177  0.3791 -0.7865
18348SOL    HW156912   1.594   6.972   8.555  1.1558 -0.3725 -0.1029
18348SOL    HW256913   1.637   6.918   8.420  2.3273 -1.0411  0.5217
18349SOL     OW56914   0.575   1.723   2.478 -0.5644  0.1688  0.0219
18349SOL    HW156915   0.597   1.748   2.388 -0.9560  3.8089  0.7786
18349SOL    HW256916   0.648   1.668   2.506  0.5533  0.5562 -1.9207
18350SOL     OW56917   1.837   0.039   0.763 -0.5114 -0.3466  0.0365
18350SOL    HW156918   1.854   0.117   0.711  0.3646  0.8224  1.9602
18350SOL    HW256919   1.858  -0.034   0.705  0.2504  0.8650 -1.2771
18351SOL     OW56920   2.258   0.754   2.301  0.3052  0.1063 -0.0375
18351SOL    HW156921   2.347   0.750   2.337  0.5301  2.2176 -0.1855
18351SOL    HW256922   2.219   0.832   2.343 -1.2556 -0.4134 -0.4515
18352SOL     OW56923   2.664   4.720   4.728 -0.3456  0.1543 -0.2632
18352SOL    HW156924   2.721   4.663   4.678 -1.5225  0.4254 -2.0098
18352SOL    HW256925   2.621   4.775   4.662 -0.5176  1.8886  1.2126
18353SOL     OW56926   1.412   5.781   2.693  0.3783 -0.0325  0.0141
18353SOL    HW156927   1.456   5.726   2.628  0.3535 -1.0300  0.8191
18353SOL    HW256928   1.331   5.810   2.650  1.8825  2.1203 -1.6283
18354SOL     OW56929   5.067   5.478   1.551  0.0901 -0.2062  0.7627
18354SOL    HW156930   5.155   5.487   1.589 -0.2328  0.5982  1.3508
18354SOL    HW256931   5.024   5.412   1.606  0.5688 -1.1937 -0.0119
18355SOL     OW56932   0.444   8.501   1.102 -0.8160 -0.4702 -0.0785
18355SOL    HW156933   0.429   8.498   1.008 -0.1407 -0.4873 -0.1883
18355SOL    HW256934   0.536   8.475   1.113 -0.9482 -0.6772  0.5978
18356SOL     OW56935   8.788   5.631   4.545 -0.4280 -0.3440  0.5876
18356SOL    HW156936   8.781   5.539   4.569 -1.5172 -0.2795  0.5734
18356SOL    HW256937   8.848   5.668   4.610  1.0911 -1.3154 -0.2109
18357SOL     OW56938   8.414   1.795   8.047 -0.0994  0.0557 -0.4021
18357SOL    HW156939   8.400   1.713   7.998 -2.0036 -0.1799  0.4352
18357SOL    HW256940   8.508   1.808   8.045  0.1405 -1.5158 -1.6132
18358SOL     OW56941   2.336   6.954   2.076  0.3861 -0.3894 -0.2580
18358SOL    HW156942   2.361   6.901   2.001  0.1890 -0.1541 -0.4916
18358SOL    HW256943   2.241   6.951   2.077  0.4086 -1.1796  0.5519
18359SOL     OW56944   6.654   2.852   6.645 -0.1242 -0.5626 -0.3494
18359SOL    HW156945   6.716   2.799   6.695 -0.8471 -0.2063  0.9582
18359SOL    HW256946   6.579   2.795   6.632  0.1069 -0.6950 -1.1690
18360SOL     OW56947   1.949   4.398   2.688 -0.4592 -0.1537  0.0005
18360SOL    HW156948   1.985   4.484   2.665  0.0570  0.0853  1.5789
18360SOL    HW256949   1.983   4.339   2.621 -0.1552  0.7198 -0.6403
18361SOL     OW56950   4.562   5.254   5.546 -0.6219 -0.0556 -0.0353
18361SOL    HW156951   4.467   5.264   5.558 -0.8142  0.2400 -1.5654
18361SOL    HW256952   4.584   5.318   5.478  0.4404 -1.0576 -0.6665
18362SOL     OW56953   8.674   8.515   8.976  0.1842  1.0503  0.3572
18362SOL    HW156954   8.705   8.562   8.898 -2.1721  0.8711 -0.7894
18362SOL    HW256955   8.700   8.571   9.049  0.7942  2.2073 -0.7001
18363SOL     OW56956   4.801   2.967   3.956 -0.1288  0.3638 -0.5405
18363SOL    HW156957   4.897   2.962   3.955 -0.1311 -0.2474  0.8177
18363SOL    HW256958   4.777   2.964   4.048 -1.3834  2.6832 -0.6935
18364SOL     OW56959   2.291   4.760   3.321 -0.1996 -0.4493  0.2140
18364SOL    HW156960   2.281   4.779   3.414  1.1046 -0.2699  0.3408
18364SOL    HW256961   2.368   4.703   3.316  0.3345  0.3307 -0.8298
18365SOL     OW56962   6.870   5.246   0.178  0.0423  0.7758 -0.3038
18365SOL    HW156963   6.806   5.309   0.143 -0.0497  1.4365  0.9841
18365SOL    HW256964   6.849   5.240   0.271 -0.9436 -2.3797 -0.6090
18366SOL     OW56965   8.511   0.700   7.282 -0.3244  0.0720 -0.6980
18366SOL    HW156966   8.577   0.695   7.213 -1.7016 -0.3692 -2.0211
18366SOL    HW256967   8.444   0.758   7.248 -1.2071 -0.4353  0.1137
18367SOL     OW56968   7.780   8.444   7.024  0.0578 -0.0796  0.0490
18367SOL    HW156969   7.806   8.505   6.955  0.9045 -0.6468 -0.1555
18367SOL    HW256970   7.687   8.428   7.009 -0.3569  1.7314  0.5617
18368SOL     OW56971   8.079   8.811   8.031  0.2402  0.4216  0.9906
18368SOL    HW156972   8.085   8.859   7.948  0.3397  1.1576  1.4101
18368SOL    HW256973   8.133   8.861   8.092 -0.2791  0.2115  1.6427
18369SOL     OW56974   6.935   5.240   2.122  0.4842  0.1845  0.2969
18369SOL    HW156975   6.848   5.214   2.094  1.3451  0.6505 -3.2967
18369SOL    HW256976   6.947   5.328   2.087  2.3972  0.1332  0.6804
18370SOL     OW56977   5.080   4.932   4.680 -0.1222 -0.1169  0.1623
18370SOL    HW156978   5.043   4.864   4.736 -0.5486 -0.9971 -1.1225
18370SOL    HW256979   5.166   4.899   4.656 -0.3798 -0.2984 -0.5687
18371SOL     OW56980   7.898   3.829   4.488 -0.3748  0.0453  0.3616
18371SOL    HW156981   7.919   3.767   4.418 -0.2731  1.3127 -0.7913
18371SOL    HW256982   7.845   3.896   4.444 -1.4266  0.2018  1.8104
18372SOL     OW56983   4.765   1.906   2.807 -0.1488  0.3252  0.0919
18372SOL    HW156984   4.801   1.990   2.778  1.4150  0.1243  1.2718
18372SOL    HW256985   4.732   1.865   2.727  1.0354  1.1602 -0.8727
18373SOL     OW56986   7.968   1.985   3.213  0.1732 -0.2720  0.1585
18373SOL    HW156987   7.919   1.936   3.280 -0.1641 -3.0708 -1.9447
18373SOL    HW256988   7.906   2.052   3.184 -1.2630 -1.6686 -0.1750
18374SOL     OW56989   3.590   1.667   8.083 -0.9611  0.2748  0.1178
18374SOL    HW156990   3.496   1.666   8.067 -1.2067  1.3571  1.2849
18374SOL    HW256991   3.603   1.603   8.154 -1.0231  1.0047  0.8087
18375SOL     OW56992   8.832   7.800   0.904 -0.0289  0.0704 -0.0324
18375SOL    HW156993   8.823   7.712   0.868  0.4063 -0.3794  0.9106
18375SOL    HW256994   8.893   7.844   0.845 -0.4233 -0.1817 -0.6377
18376SOL     OW56995   4.106   1.297   8.491 -0.4622 -0.0418 -0.1674
18376SOL    HW156996   4.092   1.370   8.430 -0.2008 -0.8573 -1.2142
18376SOL    HW256997   4.021   1.254   8.496 -0.3779 -0.2164 -0.2600
18377SOL     OW56998   6.283   3.960   0.575 -0.3088  0.2339  0.0110
18377SOL    HW156999   6.248   3.946   0.663 -0.7629  0.9392 -0.0514
18377SOL    HW257000   6.374   3.931   0.581 -0.3810  0.1232  0.6670
18378SOL     OW57001   0.715   6.255   3.550  0.2404  0.3195  0.0215
18378SOL    HW157002   0.673   6.281   3.632 -0.7525  1.0421 -0.6921
18378SOL    HW257003   0.643   6.221   3.496  1.1298 -1.7451  0.0461
18379SOL     OW57004   3.063   2.026   1.582  0.0068 -0.0395 -0.0431
18379SOL    HW157005   2.977   2.040   1.620 -1.2138  0.1712 -2.6548
18379SOL    HW257006   3.084   2.108   1.538  0.8077 -0.6027 -0.7636
18380SOL     OW57007   6.527   0.086   7.377  0.5758 -0.1298  0.2183
18380SOL    HW157008   6.621   0.088   7.359  0.3831  1.7559 -0.9005
18380SOL    HW257009   6.489   0.035   7.305  0.4401  2.1741 -1.4548
18381SOL     OW57010   8.800   3.452   0.896  0.1391  0.1125 -0.2012
18381SOL    HW157011   8.853   3.532   0.897  0.4243 -0.0665 -0.5379
18381SOL    HW257012   8.710   3.482   0.895  0.2528  0.4524 -1.6084
18382SOL     OW57013   3.219   2.301   4.158 -0.0096  0.1731 -0.2430
18382SOL    HW157014   3.262   2.294   4.243  0.1054  3.5357  0.1189
18382SOL    HW257015   3.127   2.281   4.176  0.2235 -0.4027  0.3674
18383SOL     OW57016   3.434   5.622   1.843  0.1564  0.2297  0.1205
18383SOL    HW157017   3.341   5.621   1.818  0.0809 -0.0935  0.4152
18383SOL    HW257018   3.433   5.644   1.936  0.2502 -1.8353  0.6506
18384SOL     OW57019   0.241   0.149   7.368 -0.2298 -0.0072  0.3335
18384SOL    HW157020   0.310   0.086   7.346 -2.1082 -1.5740 -1.3481
18384SOL    HW257021   0.174   0.097   7.412 -1.0918  1.1650  0.4473
18385SOL     OW57022   5.752   7.208   7.278  0.6157  1.0705  0.3026
18385SOL    HW157023   5.709   7.284   7.240 -1.3302 -0.6093 -1.0758
18385SOL    HW257024   5.821   7.185   7.216  0.3332  0.9332  0.0389
18386SOL     OW57025   6.172   3.666   3.961 -0.0587  0.0194 -0.5784
18386SOL    HW157026   6.129   3.751   3.973  0.5481  0.0355  2.1305
18386SOL    HW257027   6.224   3.677   3.881 -1.5552  1.4724 -1.4250
18387SOL     OW57028   4.724   4.276   0.557  0.1028 -0.0119 -0.0428
18387SOL    HW157029   4.718   4.199   0.500 -0.1512 -1.0449  1.3243
18387SOL    HW257030   4.650   4.331   0.532  0.0869 -0.3732 -0.8108
18388SOL     OW57031   7.504   2.005   2.616  0.2532  0.1769  0.2510
18388SOL    HW157032   7.412   2.030   2.629  0.0201  0.3742 -1.5159
18388SOL    HW257033   7.543   2.080   2.571  1.2398  0.0134  0.8184
18389SOL     OW57034   1.956   2.515   0.018  0.3424  0.0409  0.2025
18389SOL    HW157035   1.905   2.595   0.027  0.1386  0.1070 -1.3308
18389SOL    HW257036   1.960   2.479   0.107 -1.0958  0.8085  0.6080
18390SOL     OW57037   5.215   2.157   4.900 -0.3480  0.4080 -0.2878
18390SOL    HW157038   5.221   2.062   4.917  2.6809  0.7014  1.0408
18390SOL    HW257039   5.199   2.195   4.986 -0.5271  1.1511 -0.6481
18391SOL     OW57040   1.219   4.192   6.038  0.3341  0.9212 -0.0508
18391SOL    HW157041   1.145   4.140   6.009  0.0337  1.0601  0.4480
18391SOL    HW257042   1.184   4.280   6.051  0.7225  1.1332 -0.3970
18392SOL     OW57043   6.150   8.015   1.483  0.2307  0.4308 -0.6326
18392SOL    HW157044   6.219   8.081   1.482  0.4774  0.1889 -0.1295
18392SOL    HW257045   6.068   8.065   1.478  0.3503  0.9005  1.2293
18393SOL     OW57046   8.090   4.383   0.620  0.1429 -0.4908  0.2871
18393SOL    HW157047   8.020   4.432   0.662  0.2873 -1.0363  1.1788
18393SOL    HW257048   8.048   4.304   0.586  0.1330 -0.3131 -0.1276
18394SOL     OW57049   7.885   0.246   7.125 -1.1332  0.7069  0.5387
18394SOL    HW157050   7.831   0.323   7.145  0.2429  1.7353  0.5095
18394SOL    HW257051   7.870   0.230   7.032 -0.0865  2.1091  0.0859
18395SOL     OW57052   4.615   6.134   4.101  0.1169  0.0935  0.3289
18395SOL    HW157053   4.536   6.187   4.100 -0.3208 -0.5506  0.5774
18395SOL    HW257054   4.678   6.184   4.048 -0.6777  0.2541 -0.4808
18396SOL     OW57055   4.955   0.574   6.122  0.2235  0.4472  0.0755
18396SOL    HW157056   4.869   0.596   6.160  0.0805  1.3085 -0.7131
18396SOL    HW257057   5.018   0.622   6.176  0.0540  1.3086 -0.4713
18397SOL     OW57058   1.168   6.757   0.044  0.7775  0.1340 -0.2281
18397SOL    HW157059   1.089   6.718   0.007  1.5685 -1.0837 -0.6929
18397SOL    HW257060   1.139   6.797   0.126 -0.0532 -1.6844  0.4113
18398SOL     OW57061   5.012   1.963   5.927 -0.4436 -0.0712 -0.8648
18398SOL    HW157062   4.968   1.896   5.980 -2.2104 -0.1786 -2.3650
18398SOL    HW257063   5.010   2.042   5.982 -0.4984 -0.6463 -0.0260
18399SOL     OW57064   8.302   8.655   5.192 -0.2033 -1.0035  0.0052
18399SOL    HW157065   8.325   8.596   5.263  0.2827 -0.1609  0.5674
18399SOL    HW257066   8.373   8.645   5.128  1.3601  0.9059  1.3178
18400SOL     OW57067   6.914   1.576   2.001 -0.1640  0.3328  0.1635
18400SOL    HW157068   6.857   1.546   2.072  0.0859  0.9526  0.6356
18400SOL    HW257069   6.973   1.503   1.984  0.0551  0.3374  0.8908
18401SOL     OW57070   8.672   5.517   1.867 -0.1318 -0.0702 -0.2465
18401SOL    HW157071   8.584   5.495   1.898 -0.0243  0.1770  0.2432
18401SOL    HW257072   8.660   5.539   1.774 -0.5523 -0.2321 -0.2325
18402SOL     OW57073   6.193   0.444   1.230  0.4566  0.1524  0.5927
18402SOL    HW157074   6.198   0.452   1.135  0.0349  1.7822  0.6722
18402SOL    HW257075   6.265   0.386   1.254 -0.0929 -1.1904 -0.7936
18403SOL     OW57076   2.419   0.822   6.516  0.0234 -0.2984 -0.7708
18403SOL    HW157077   2.502   0.866   6.501 -0.8313  2.7603  2.3051
18403SOL    HW257078   2.435   0.765   6.591 -0.5904  0.1507 -0.2899
18404SOL     OW57079   0.936   1.769   6.257 -0.3365  0.7387  0.1459
18404SOL    HW157080   0.931   1.735   6.168 -0.6503 -0.1944  0.5064
18404SOL    HW257081   0.866   1.835   6.261 -0.0233  1.1196 -0.4221
18405SOL     OW57082   6.045   6.209   4.449  0.2227 -0.0633 -0.6279
18405SOL    HW157083   6.007   6.226   4.363  0.0650 -3.2297 -1.3055
18405SOL    HW257084   6.126   6.163   4.431 -0.0046 -1.1530  0.8893
18406SOL     OW57085   2.101   6.360   0.923 -0.2389  0.6231 -0.0004
18406SOL    HW157086   2.079   6.407   0.843 -0.4513  2.5793  1.1319
18406SOL    HW257087   2.156   6.287   0.894 -0.5496  1.1084 -1.9344
18407SOL     OW57088   8.864   1.726   2.285  0.0206  0.3227 -0.1111
18407SOL    HW157089   8.794   1.662   2.304 -0.7557  1.2268  0.1490
18407SOL    HW257090   8.819   1.799   2.243  0.7498  1.0694  0.3675
18408SOL     OW57091   3.325   1.576   0.480  0.8042  0.1577  0.2542
18408SOL    HW157092   3.399   1.520   0.503  0.8409  0.1259  0.0564
18408SOL    HW257093   3.307   1.556   0.388 -0.0775 -0.5480  0.5724
18409SOL     OW57094   7.295   5.726   2.076 -0.3531  0.3375  0.4029
18409SOL    HW157095   7.319   5.779   2.000  2.4420  1.1564  1.7115
18409SOL    HW257096   7.296   5.788   2.149 -2.3073 -0.5535  1.2516
18410SOL     OW57097   8.469   6.875   5.751 -0.6369 -0.0848 -0.4302
18410SOL    HW157098   8.414   6.912   5.820  1.0838  0.0621  0.9471
18410SOL    HW257099   8.552   6.923   5.758 -0.9182  1.1533 -3.7717
18411SOL     OW57100   5.388   3.700   7.818  0.1426  0.0062  0.0448
18411SOL    HW157101   5.430   3.618   7.847 -0.4085 -1.2849 -2.5377
18411SOL    HW257102   5.350   3.736   7.898  1.0213 -1.8842  1.4072
18412SOL     OW57103   7.785   6.586   5.663  0.6372  0.5243 -0.0075
18412SOL    HW157104   7.859   6.630   5.621  0.7792 -0.9174 -1.3302
18412SOL    HW257105   7.712   6.647   5.652  1.4245  1.6515  0.7038
18413SOL     OW57106   3.344   7.506   3.606 -0.1967 -0.0506  0.2907
18413SOL    HW157107   3.436   7.521   3.584 -0.4813  1.1094 -0.2173
18413SOL    HW257108   3.328   7.415   3.582  1.0064 -0.4846  1.0921
18414SOL     OW57109   8.188   7.975   2.676  0.1759  0.4686  0.1649
18414SOL    HW157110   8.161   7.909   2.740  0.2909  0.0210 -0.2402
18414SOL    HW257111   8.105   8.006   2.638  0.1951 -0.7073 -0.8811
18415SOL     OW57112   2.837   4.827   7.128 -0.2403 -0.0466 -0.1563
18415SOL    HW157113   2.842   4.746   7.178  1.1486 -0.0464 -0.2469
18415SOL    HW257114   2.784   4.805   7.051 -1.1357 -0.4414  0.5576
18416SOL     OW57115   2.914   4.767   3.313  0.5110 -0.1796 -0.0750
18416SOL    HW157116   2.925   4.733   3.224 -0.6607 -1.5605  0.2586
18416SOL    HW257117   2.855   4.842   3.303 -0.0179 -0.6328 -0.4192
18417SOL     OW57118   7.659   4.942   2.382 -0.2787 -0.6283 -0.8846
18417SOL    HW157119   7.575   4.988   2.387  0.6459  0.9768  1.0553
18417SOL    HW257120   7.716   5.002   2.334  0.9456  0.3830  1.6776
18418SOL     OW57121   1.397   5.340   5.715 -0.0793 -0.1458  0.4137
18418SOL    HW157122   1.429   5.256   5.681  0.3901  0.2563 -0.1755
18418SOL    HW257123   1.461   5.365   5.781 -0.2483 -0.2791  0.6273
18419SOL     OW57124   3.029   5.916   1.257 -0.4734  0.2058 -0.2121
18419SOL    HW157125   2.964   5.978   1.227  0.2364  1.3244  0.5054
18419SOL    HW257126   3.108   5.938   1.208 -0.3662 -0.5285 -0.3888
18420SOL     OW57127   0.869   3.823   3.456 -0.1185  0.0288 -0.1690
18420SOL    HW157128   0.922   3.887   3.503 -0.3582  1.7239 -2.0689
18420SOL    HW257129   0.784   3.824   3.501  0.5879 -0.7559  1.2541
18421SOL     OW57130   8.369   6.150   4.593  0.1141 -0.3399 -0.0047
18421SOL    HW157131   8.396   6.168   4.503  2.1315 -1.1742  0.3796
18421SOL    HW257132   8.431   6.199   4.647  1.0352 -2.4433  0.9438
18422SOL     OW57133   1.857   7.120   0.879  0.1631 -0.3554  0.2004
18422SOL    HW157134   1.878   7.093   0.789 -0.3423 -2.5390  0.6781
18422SOL    HW257135   1.874   7.043   0.932  0.7566  0.9933  2.0777
18423SOL     OW57136   5.011   7.335   3.288 -0.2034  0.6383  0.4266
18423SOL    HW157137   4.940   7.287   3.330  0.3954  0.2853  1.0537
18423SOL    HW257138   4.998   7.320   3.194  0.2913 -1.2500  0.6180
18424SOL     OW57139   8.334   7.822   1.605  0.6763  0.0549 -0.4682
18424SOL    HW157140   8.303   7.784   1.688 -0.3886 -3.0499 -2.1021
18424SOL    HW257141   8.254   7.838   1.555  1.3431  0.3176 -1.4858
18425SOL     OW57142   6.656   8.611   6.712  0.3267 -0.1353  0.6962
18425SOL    HW157143   6.726   8.664   6.750 -0.2995  1.0415  0.2569
18425SOL    HW257144   6.585   8.673   6.695  0.7787 -0.3830 -3.0140
18426SOL     OW57145   8.185   6.377   5.010 -0.3052 -0.1623  0.4034
18426SOL    HW157146   8.198   6.297   4.958 -1.0130  0.4041 -0.6706
18426SOL    HW257147   8.090   6.385   5.019 -0.3486  1.4218 -0.9380
18427SOL     OW57148   3.918   0.778   3.517 -0.3633 -0.3512 -0.3253
18427SOL    HW157149   3.827   0.794   3.492  0.3091  0.1785 -2.7559
18427SOL    HW257150   3.935   0.841   3.587 -0.7300  2.6300 -2.7262
18428SOL     OW57151   1.283   2.655   6.871 -0.0159 -0.1562  0.0887
18428SOL    HW157152   1.209   2.597   6.855  0.3205 -0.5269 -0.1332
18428SOL    HW257153   1.341   2.641   6.796  0.1577  0.3250  0.1309
18429SOL     OW57154   5.791   8.263   0.042 -0.0711  0.5394 -0.1651
18429SOL    HW157155   5.809   8.352   0.011 -1.9043  0.4812 -1.5535
18429SOL    HW257156   5.704   8.268   0.081 -0.8199 -0.9005 -1.5511
18430SOL     OW57157   5.891   6.924   4.236 -0.6105  0.0092  0.8168
18430SOL    HW157158   5.962   6.865   4.210 -0.2219  0.3089  1.1789
18430SOL    HW257159   5.848   6.947   4.153 -0.0044  0.1748  0.5386
18431SOL     OW57160   1.221   6.842   1.491 -0.2664 -0.0212  0.2017
18431SOL    HW157161   1.315   6.845   1.475 -0.2302 -1.6006 -0.0134
18431SOL    HW257162   1.201   6.749   1.502 -1.6020  0.3704  1.5220
18432SOL     OW57163   6.124   0.410   0.110  0.1064  0.2724 -0.1394
18432SOL    HW157164   6.200   0.356   0.089 -0.1299  0.0654 -0.4794
18432SOL    HW257165   6.129   0.485   0.050 -0.2691 -0.0386 -0.5707
18433SOL     OW57166   0.657   5.992   0.442 -0.0736  0.1710 -0.1229
18433SOL    HW157167   0.666   6.083   0.414 -0.1788 -0.5468 -2.8214
18433SOL    HW257168   0.566   5.969   0.422  0.0675 -0.6298  0.1119
18434SOL     OW57169   3.551   1.454   2.992 -0.0035 -0.0276 -0.1287
18434SOL    HW157170   3.619   1.400   3.032 -0.5901 -0.8632 -0.2270
18434SOL    HW257171   3.496   1.392   2.946 -0.1799  0.7641 -1.0174
18435SOL     OW57172   4.007   2.850   5.392 -0.3900  0.0583  0.0654
18435SOL    HW157173   4.023   2.942   5.416 -2.0929  0.0078  1.6380
18435SOL    HW257174   4.092   2.817   5.365  0.9423  1.2768  2.4547
18436SOL     OW57175   8.131   8.327   8.846  0.2072 -0.2898  0.3375
18436SOL    HW157176   8.150   8.238   8.817 -0.5216 -0.7157  1.1307
18436SOL    HW257177   8.133   8.379   8.766 -2.3997 -1.5383 -0.6444
18437SOL     OW57178   1.864   6.228   7.738  0.3182 -0.0646 -0.0213
18437SOL    HW157179   1.926   6.286   7.696 -0.4381  0.2054 -0.7916
18437SOL    HW257180   1.850   6.156   7.676 -2.0854  1.1871 -1.0818
18438SOL     OW57181   6.386   8.893   7.637  0.1125 -0.4648  0.4534
18438SOL    HW157182   6.305   8.944   7.636  0.3576 -0.0194  1.6626
18438SOL    HW257183   6.364   8.815   7.689  0.0212 -1.1438 -0.5611
18439SOL     OW57184   5.087   6.493   6.690 -0.1836  0.1378  0.0108
18439SOL    HW157185   5.087   6.496   6.785  0.4353 -0.4574  0.0314
18439SOL    HW257186   5.040   6.413   6.668  0.4562 -0.1991 -0.1614
18440SOL     OW57187   3.282   8.816   4.517 -0.3449 -0.1627  0.4425
18440SOL    HW157188   3.282   8.858   4.430  2.0793  1.3793  1.0739
18440SOL    HW257189   3.375   8.811   4.540 -0.9477 -0.2323  3.0932
18441SOL     OW57190   3.813   6.481   7.689 -0.0125  0.1575 -0.2088
18441SOL    HW157191   3.816   6.507   7.597 -0.4860 -0.4315 -0.4031
18441SOL    HW257192   3.897   6.438   7.705  0.9903  2.1655  0.2548
18442SOL     OW57193   8.543   8.738   6.717  0.0089 -0.5640  0.0348
18442SOL    HW157194   8.477   8.806   6.718 -0.8480 -1.3261 -1.3953
18442SOL    HW257195   8.595   8.753   6.796 -0.6421  1.2367  0.1563
18443SOL     OW57196   4.329   2.443   6.983  0.0634 -0.1410  0.3355
18443SOL    HW157197   4.316   2.351   6.961 -0.8043 -0.0094  0.2254
18443SOL    HW257198   4.241   2.474   7.008  0.7441  0.0696  2.6856
18444SOL     OW57199   7.046   2.290   1.257  0.2138 -0.2061 -0.4782
18444SOL    HW157200   7.140   2.286   1.242  0.5129  0.3064  1.0679
18444SOL    HW257201   7.013   2.345   1.185  1.1557  0.0176 -0.7534
18445SOL     OW57202   1.978   3.084   4.217 -0.7000  0.8070 -0.6140
18445SOL    HW157203   1.896   3.065   4.171 -0.1653 -1.4331 -0.7740
18445SOL    HW257204   1.976   3.028   4.294  1.3578 -0.5747 -1.4773
18446SOL     OW57205   6.728   7.839   1.645  0.1713  0.8454 -0.3703
18446SOL    HW157206   6.688   7.768   1.694  1.6187  1.2635  1.5270
18446SOL    HW257207   6.654   7.889   1.611 -0.9020  0.3048  1.0749
18447SOL     OW57208   0.854   8.955   4.644  0.1098 -0.1782  0.1453
18447SOL    HW157209   0.896   9.014   4.706  1.5441 -0.6633 -0.3259
18447SOL    HW257210   0.854   8.870   4.688 -0.0218 -0.2696 -0.0290
18448SOL     OW57211   2.187   1.843   3.274 -0.4941 -0.5852 -0.0136
18448SOL    HW157212   2.222   1.763   3.235  2.8436  0.6168  0.1401
18448SOL    HW257213   2.235   1.913   3.230 -2.8583  1.3316  0.2968
18449SOL     OW57214   0.793   2.344   4.223 -0.1374  0.0735  0.2259
18449SOL    HW157215   0.726   2.338   4.291  0.1074 -1.7396  0.3449
18449SOL    HW257216   0.835   2.258   4.222 -0.4833 -0.1653 -2.5778
18450SOL     OW57217   5.717   5.844   4.447 -0.0780 -0.1297  0.1363
18450SOL    HW157218   5.646   5.780   4.453  0.2742 -0.7078 -1.2900
18450SOL    HW257219   5.774   5.824   4.521 -0.6104 -0.6759  0.4051
18451SOL     OW57220   2.799   6.193   5.050 -0.4047 -0.1908 -0.8396
18451SOL    HW157221   2.766   6.109   5.081 -0.9761 -0.2777 -1.6560
18451SOL    HW257222   2.809   6.246   5.129  0.3131 -1.1326 -0.2695
18452SOL     OW57223   3.570   5.999   1.965 -0.2391 -0.2365 -0.0474
18452SOL    HW157224   3.587   6.077   1.912  0.7720  0.5544  1.3751
18452SOL    HW257225   3.631   5.933   1.930 -0.7874 -0.2788 -0.9648
18453SOL     OW57226   0.033   0.937   1.212 -0.0715 -0.2061  0.0084
18453SOL    HW157227   0.090   1.013   1.226  1.2614 -0.9093 -1.3829
18453SOL    HW257228  -0.032   0.968   1.149  1.1366 -0.5000 -1.4253
18454SOL     OW57229   6.834   4.479   0.415  0.5500  0.0564 -0.1966
18454SOL    HW157230   6.750   4.493   0.459  0.3758  2.8934 -1.1913
18454SOL    HW257231   6.898   4.474   0.486 -0.2836 -0.6446  0.5227
18455SOL     OW57232   4.525   2.911   3.943  0.0536 -0.4150  0.1973
18455SOL    HW157233   4.482   2.936   3.861 -0.0562 -0.3398  0.2775
18455SOL    HW257234   4.619   2.915   3.923  0.0952  1.4246  0.5927
18456SOL     OW57235   2.054   3.525   5.552  0.2670 -0.3357  0.5675
18456SOL    HW157236   2.067   3.438   5.588 -0.5221 -0.1573  1.3272
18456SOL    HW257237   2.127   3.577   5.586 -1.1897  0.1861  3.1842
18457SOL     OW57238   3.135   5.846   2.797 -0.2668 -0.1199 -0.0512
18457SOL    HW157239   3.154   5.845   2.703 -1.4593 -0.4619 -0.3035
18457SOL    HW257240   3.106   5.757   2.816 -0.0571 -0.0414  0.6462
18458SOL     OW57241   2.048   1.548   7.410  0.2083 -0.2079  0.1056
18458SOL    HW157242   1.985   1.531   7.480  0.6108  1.4099  0.9069
18458SOL    HW257243   2.073   1.461   7.379 -1.3238 -0.9109  0.7391
18459SOL     OW57244   6.411   4.520   7.976  0.2962  0.5345 -0.5989
18459SOL    HW157245   6.468   4.500   8.050 -0.5045  2.1496  0.4946
18459SOL    HW257246   6.359   4.441   7.964 -1.4976  1.1178  2.3901
18460SOL     OW57247   3.731   1.155   5.558  0.4915  0.4697  0.8939
18460SOL    HW157248   3.762   1.066   5.544 -1.7214  0.1722 -4.3228
18460SOL    HW257249   3.799   1.210   5.520  0.0793  0.6667  0.4267
18461SOL     OW57250   1.763   4.428   1.275 -0.2497 -0.3118 -0.1262
18461SOL    HW157251   1.707   4.355   1.249 -0.4657  0.1221 -0.9380
18461SOL    HW257252   1.707   4.483   1.329 -0.0339 -0.8322  0.6314
18462SOL     OW57253   2.563   4.407   2.184  0.4175  0.2821  0.1743
18462SOL    HW157254   2.483   4.435   2.140  0.7356  1.1965  0.1626
18462SOL    HW257255   2.584   4.479   2.244  1.7350  0.4837 -0.4945
18463SOL     OW57256   7.547   5.126   8.751  0.5750  0.3714  0.5482
18463SOL    HW157257   7.581   5.136   8.840 -1.1581  0.0159  1.2949
18463SOL    HW257258   7.536   5.216   8.719 -1.4437  0.6290  1.8035
18464SOL     OW57259   1.082   1.129   6.866 -0.3366 -0.1844  0.4785
18464SOL    HW157260   1.109   1.063   6.802 -1.4596 -0.1761 -0.0222
18464SOL    HW257261   1.114   1.094   6.950 -1.4493 -1.6934  0.3137
18465SOL     OW57262   1.662   3.690   2.540 -0.7146 -0.4837 -0.0519
18465SOL    HW157263   1.752   3.688   2.509 -0.2436  1.0742  1.0985
18465SOL    HW257264   1.619   3.618   2.493  0.8465 -0.5924 -1.4024
18466SOL     OW57265   0.414   5.812   8.221  0.2133 -0.3109 -0.3744
18466SOL    HW157266   0.503   5.802   8.254  0.1081  0.9817  0.3627
18466SOL    HW257267   0.361   5.833   8.299 -1.0765 -2.7366 -0.5002
18467SOL     OW57268   8.617   5.676   6.383  0.6280  0.6409  0.0753
18467SOL    HW157269   8.642   5.761   6.419  1.3456  0.8773 -0.9477
18467SOL    HW257270   8.577   5.630   6.457 -1.4780  2.5191  0.2344
18468SOL     OW57271   3.717   5.631   7.247  0.3575 -0.3241  0.5499
18468SOL    HW157272   3.745   5.542   7.225  1.2203  0.1824 -0.5275
18468SOL    HW257273   3.753   5.646   7.334 -1.4730 -1.6995  1.6140
18469SOL     OW57274   1.007   4.971   7.240 -0.1980 -0.5024  0.0160
18469SOL    HW157275   0.926   4.941   7.198 -0.5565  0.5089 -0.0500
18469SOL    HW257276   1.051   5.023   7.173 -0.4637  0.5948  0.6694
18470SOL     OW57277   0.604   5.462   0.328 -0.3130  0.1219  0.6151
18470SOL    HW157278   0.635   5.453   0.238  1.7063  1.4491  1.1142
18470SOL    HW257279   0.534   5.528   0.324  0.3333  0.7865  0.1186
18471SOL     OW57280   8.100   7.840   5.465  0.0423  0.4361 -0.2110
18471SOL    HW157281   8.059   7.817   5.549  0.1530  0.7130 -0.0775
18471SOL    HW257282   8.031   7.885   5.417 -0.3444 -0.6532 -0.6980
18472SOL     OW57283   5.286   0.904   1.059  0.0941  0.0243 -0.4644
18472SOL    HW157284   5.214   0.911   0.997 -1.6981  2.5924  1.6652
18472SOL    HW257285   5.245   0.876   1.141  1.6102  0.8946  0.6588
18473SOL     OW57286   6.506   0.211   3.176  0.0779  0.1376  0.1165
18473SOL    HW157287   6.445   0.193   3.104  0.2065  1.0929 -0.2445
18473SOL    HW257288   6.585   0.245   3.133  0.7003 -0.6697  0.6156
18474SOL     OW57289   5.274   7.809   0.580  0.2872  0.0480  0.5095
18474SOL    HW157290   5.352   7.850   0.542 -0.1684  1.3936  0.9728
18474SOL    HW257291   5.300   7.719   0.596  0.5202 -0.6279 -2.9182
18475SOL     OW57292   5.652   1.502   6.377 -0.0720 -0.6248  0.0860
18475SOL    HW157293   5.717   1.452   6.329  0.7999  0.7004 -0.1402
18475SOL    HW257294   5.667   1.478   6.469  1.0024 -0.0441  0.0762
18476SOL     OW57295   8.251   3.126   7.298  0.4024  0.0255  0.2602
18476SOL    HW157296   8.282   3.132   7.208  2.8852 -1.4312  0.9214
18476SOL    HW257297   8.273   3.037   7.325 -1.7179 -0.0993  1.8603
18477SOL     OW57298   4.467   7.125   8.061  0.8127 -0.4075  0.5378
18477SOL    HW157299   4.395   7.139   8.122  0.1840  0.6749 -0.4287
18477SOL    HW257300   4.519   7.054   8.101  0.3026  0.1189  2.1938
18478SOL     OW57301   7.386   4.444   2.322 -0.5239 -0.4470 -0.0162
18478SOL    HW157302   7.336   4.477   2.396 -0.8831 -0.5452 -0.2092
18478SOL    HW257303   7.477   4.459   2.345 -0.5536 -1.6647  1.0247
18479SOL     OW57304   6.237   7.738   8.709  0.2022 -0.0476 -0.3311
18479SOL    HW157305   6.236   7.671   8.777  2.0539  1.0081  0.8146
18479SOL    HW257306   6.218   7.819   8.755 -0.4413  0.4520 -1.4299
18480SOL     OW57307   4.418   2.016   0.787  0.0058  0.0351 -0.4509
18480SOL    HW157308   4.496   2.019   0.841 -0.1271 -0.1949 -0.2409
18480SOL    HW257309   4.451   2.002   0.698  0.1446 -2.1551 -0.1133
18481SOL     OW57310   4.760   7.190   7.189  0.3490 -0.4091  0.5157
18481SOL    HW157311   4.753   7.101   7.153 -3.0857  0.0846 -0.4160
18481SOL    HW257312   4.842   7.224   7.153  0.1634 -2.1323 -1.7888
18482SOL     OW57313   8.469   1.056   8.641  0.6770  0.2988  0.1002
18482SOL    HW157314   8.376   1.051   8.621  0.4759  0.6919  0.8928
18482SOL    HW257315   8.477   1.017   8.727  1.5325 -1.4018 -0.7137
18483SOL     OW57316   0.603   1.840   8.548 -0.0222 -0.0325 -0.0712
18483SOL    HW157317   0.514   1.809   8.528 -0.1841 -0.3234  1.0492
18483SOL    HW257318   0.607   1.927   8.508 -1.0340  0.2433  0.3971
18484SOL     OW57319   0.932   2.569   1.657  0.1457 -0.6449  0.3632
18484SOL    HW157320   1.018   2.540   1.628  0.3737  0.0123  0.3593
18484SOL    HW257321   0.948   2.610   1.742 -0.5574 -2.8149  1.6216
18485SOL     OW57322   7.248   6.984   2.453  0.5448  0.4271  0.1627
18485SOL    HW157323   7.328   6.945   2.489 -0.2222 -1.5682 -0.1642
18485SOL    HW257324   7.193   6.999   2.530  0.5448  0.1569  0.2146
18486SOL     OW57325   7.035   4.107   2.198 -0.4585 -0.1240  0.0170
18486SOL    HW157326   7.006   4.114   2.289  2.5508 -0.5884  1.1079
18486SOL    HW257327   7.068   4.194   2.176  0.5694 -0.4849  0.0641
18487SOL     OW57328   5.107   4.173   3.636 -0.0167  0.1123 -0.1266
18487SOL    HW157329   5.013   4.185   3.642 -0.2128 -1.8749  2.6717
18487SOL    HW257330   5.144   4.260   3.650 -1.3588  0.8779 -1.0445
18488SOL     OW57331   6.651   4.471   2.505  0.5634 -0.2287  0.0604
18488SOL    HW157332   6.638   4.433   2.592  1.7943  0.0366  0.3841
18488SOL    HW257333   6.698   4.553   2.521 -0.4300  0.5395 -0.7629
18489SOL     OW57334   0.630   4.087   3.080 -0.2034  0.1263  0.2596
18489SOL    HW157335   0.571   4.139   3.026 -0.4426 -2.4084 -2.1413
18489SOL    HW257336   0.574   4.023   3.123  0.4095 -0.1634  0.6415
18490SOL     OW57337   7.702   0.939   3.440  0.2094  0.4472  0.2038
18490SOL    HW157338   7.639   0.961   3.372 -0.5723 -1.3390  0.3045
18490SOL    HW257339   7.670   0.984   3.518 -0.2127  0.5996 -0.0566
18491SOL     OW57340   8.776   0.122   6.468 -0.4472 -0.5834  0.2630
18491SOL    HW157341   8.861   0.116   6.425 -0.4839  0.1750  0.0555
18491SOL    HW257342   8.713   0.109   6.397 -0.5074  0.5878  0.0706
18492SOL     OW57343   5.549   7.187   6.828  0.1001  0.3538 -0.0602
18492SOL    HW157344   5.534   7.278   6.854  0.3714  0.8534 -1.5886
18492SOL    HW257345   5.613   7.154   6.892 -1.7377  0.4698  1.9603
18493SOL     OW57346   8.240   4.842   1.884  0.2276  0.1477 -1.0128
18493SOL    HW157347   8.262   4.760   1.927  0.6066  0.7511 -0.0054
18493SOL    HW257348   8.147   4.836   1.866 -0.1069  0.1267  0.5386
18494SOL     OW57349   6.612   5.688   1.713 -0.2621 -0.8644 -0.4321
18494SOL    HW157350   6.689   5.742   1.726  0.4538 -2.3158  2.1593
18494SOL    HW257351   6.570   5.724   1.635  1.2822  1.9931 -0.0872
18495SOL     OW57352   7.810   0.206   5.159  0.6013 -0.0144  0.5660
18495SOL    HW157353   7.764   0.170   5.235 -1.5896  1.3771 -0.0096
18495SOL    HW257354   7.885   0.148   5.147 -0.7211 -2.1410  1.8754
18496SOL     OW57355   0.484   1.458   6.256  0.0747 -0.2806 -0.4714
18496SOL    HW157356   0.531   1.449   6.339  2.4258 -1.0913 -1.8081
18496SOL    HW257357   0.400   1.414   6.271  0.2869 -0.1001  1.5461
18497SOL     OW57358   2.412   2.756   1.375  0.0001  0.4027  0.2267
18497SOL    HW157359   2.491   2.808   1.391  1.0306 -1.2419  0.6476
18497SOL    HW257360   2.444   2.671   1.345 -1.5735 -0.5334  1.0597
18498SOL     OW57361   5.375   5.369   1.932 -0.3848  0.1475 -0.5243
18498SOL    HW157362   5.458   5.330   1.960  0.0541  0.1146 -1.7784
18498SOL    HW257363   5.308   5.312   1.970  0.1469  0.4086  0.8328
18499SOL     OW57364   4.743   5.830   8.431 -0.4106  0.2525 -0.0859
18499SOL    HW157365   4.805   5.759   8.417 -1.6422 -1.0677  0.8905
18499SOL    HW257366   4.687   5.829   8.353 -2.1479 -1.7270  1.0886
18500SOL     OW57367   2.677   1.412   3.462 -0.0960 -0.2401 -0.7512
18500SOL    HW157368   2.651   1.436   3.373  0.4247  1.3347 -0.5184
18500SOL    HW257369   2.762   1.369   3.452 -0.3933 -0.7602 -1.0715
18501SOL     OW57370   7.247   0.286   6.092 -0.1224  0.1130  0.0417
18501SOL    HW157371   7.262   0.207   6.040  1.4921  0.7764 -0.5738
18501SOL    HW257372   7.160   0.274   6.129 -0.1737 -1.6611 -0.5463
18502SOL     OW57373   4.417   5.614   8.667  0.5459 -0.4385  0.7917
18502SOL    HW157374   4.400   5.621   8.573 -2.5390  1.8973  1.3816
18502SOL    HW257375   4.407   5.521   8.686  1.1230 -0.9421 -1.1293
18503SOL     OW57376   7.030   3.994   8.848 -0.7850 -0.0869 -0.0621
18503SOL    HW157377   7.037   3.947   8.765 -1.6048 -4.1419  1.8758
18503SOL    HW257378   6.936   3.992   8.868 -0.3856 -1.8854  2.1433
18504SOL     OW57379   4.902   4.501   2.673 -0.1585  0.0519  0.1525
18504SOL    HW157380   4.925   4.528   2.762  0.2370 -0.7145  0.2971
18504SOL    HW257381   4.904   4.582   2.622 -0.7963  0.5656  0.9144
18505SOL     OW57382   2.493   4.989   5.117  0.4029  0.2053  0.9466
18505SOL    HW157383   2.588   4.991   5.126  0.5342  0.0553 -0.2015
18505SOL    HW257384   2.478   4.980   5.023 -0.7446 -0.2391  1.1531
18506SOL     OW57385   6.565   1.330   7.880 -0.2190  0.1368  0.0470
18506SOL    HW157386   6.580   1.424   7.895 -0.2243 -0.0637  1.4544
18506SOL    HW257387   6.479   1.314   7.918  0.1399 -0.6030  0.5598
18507SOL     OW57388   0.099   5.340   0.736  0.3359 -0.3111 -0.2106
18507SOL    HW157389   0.068   5.418   0.781 -1.3096 -1.4220  0.6650
18507SOL    HW257390   0.087   5.359   0.643  0.7114  0.7500 -0.0639
18508SOL     OW57391   1.062   5.015   6.653 -0.2259 -0.2692 -0.2521
18508SOL    HW157392   0.992   5.067   6.616  0.6815  1.9080  0.9198
18508SOL    HW257393   1.044   5.012   6.747  0.6437 -0.6523 -0.0818
18509SOL     OW57394   1.587   0.858   8.667 -0.6219  0.2733  0.3934
18509SOL    HW157395   1.668   0.906   8.682 -0.9890  1.3136 -0.7987
18509SOL    HW257396   1.523   0.925   8.643 -1.5330 -0.6496  0.1739
18510SOL     OW57397   7.194   8.950   0.367 -0.1114 -0.2661 -0.0294
18510SOL    HW157398   7.115   8.937   0.314 -1.3918  0.3133  1.6267
18510SOL    HW257399   7.201   8.870   0.418  0.8337 -0.6230 -0.6940
18511SOL     OW57400   1.237   7.443   8.793  0.3466 -0.8193 -0.0736
18511SOL    HW157401   1.144   7.425   8.781  0.3908 -3.0236  2.1448
18511SOL    HW257402   1.278   7.418   8.710 -0.9913  0.1677 -1.0707
18512SOL     OW57403   6.100   7.497   5.297  0.2912  0.2115  0.4054
18512SOL    HW157404   6.141   7.418   5.262  1.1214  0.4891  0.7228
18512SOL    HW257405   6.024   7.512   5.241  0.8302 -0.1098 -0.4242
18513SOL     OW57406   3.896   4.989   7.188 -0.3815 -0.0202 -0.0068
18513SOL    HW157407   3.908   5.070   7.138  0.5533 -0.0916  0.0819
18513SOL    HW257408   3.816   5.004   7.238 -0.3589  0.7540 -0.1831
18514SOL     OW57409   5.356   7.644   4.983  0.3867  0.3808 -0.5360
18514SOL    HW157410   5.361   7.580   5.055 -3.2746 -0.2579 -0.6775
18514SOL    HW257411   5.426   7.706   5.002  0.9511 -0.9527  2.3729
18515SOL     OW57412   6.546   4.952   0.400 -0.2707 -0.0668 -0.1265
18515SOL    HW157413   6.628   4.979   0.439 -0.6055 -1.0482  1.3467
18515SOL    HW257414   6.566   4.869   0.356 -0.2442  0.2223 -0.6611
18516SOL     OW57415   2.640   7.743   7.802  0.3984  0.1495  0.6318
18516SOL    HW157416   2.703   7.679   7.836 -0.6278 -2.0196 -1.2776
18516SOL    HW257417   2.576   7.754   7.873  0.5124 -1.0890  0.9490
18517SOL     OW57418   1.152   3.215   8.186 -0.3834  0.6464 -0.7695
18517SOL    HW157419   1.082   3.250   8.132  0.3029 -0.2451 -2.3227
18517SOL    HW257420   1.229   3.268   8.163  0.0944 -0.2388 -1.3057
18518SOL     OW57421   0.679   8.273   7.952 -0.1944  0.0487  0.1038
18518SOL    HW157422   0.598   8.252   7.905 -0.1685 -0.0252  0.0925
18518SOL    HW257423   0.725   8.190   7.960  0.1522  0.1897 -0.4041
18519SOL     OW57424   3.771   6.772   3.028  0.0286 -0.1587  0.2855
18519SOL    HW157425   3.857   6.746   3.061 -0.6746 -0.3812  2.0840
18519SOL    HW257426   3.786   6.857   2.986  1.1533 -0.2652  0.4375
18520SOL     OW57427   5.527   8.697   7.901  0.0141 -0.3336  0.4381
18520SOL    HW157428   5.548   8.674   7.991 -0.1496 -0.9079  0.3368
18520SOL    HW257429   5.541   8.616   7.852 -0.8320 -0.2874  0.1064
18521SOL     OW57430   6.802   5.122   8.241 -0.2119  0.0223  0.3461
18521SOL    HW157431   6.741   5.112   8.168  0.9648  0.4477 -0.7348
18521SOL    HW257432   6.791   5.213   8.268  2.0593  1.1037 -1.9128
18522SOL     OW57433   6.125   0.848   8.874  0.2586  0.1103 -0.3011
18522SOL    HW157434   6.154   0.762   8.905  0.8805 -0.3663 -2.0731
18522SOL    HW257435   6.177   0.910   8.924 -0.0161 -0.5361  0.8243
18523SOL     OW57436   5.536   2.674   1.574 -0.3937 -0.3361  0.0719
18523SOL    HW157437   5.493   2.593   1.545 -0.0682 -0.5102  0.0631
18523SOL    HW257438   5.466   2.739   1.576 -0.3820 -0.2458 -1.3533
18524SOL     OW57439   1.393   4.645   1.213  0.1670  0.4381  0.0653
18524SOL    HW157440   1.434   4.560   1.228  0.1955  0.8041  2.4435
18524SOL    HW257441   1.448   4.686   1.147  1.9554 -0.2549  1.0391
18525SOL     OW57442   6.550   6.311   2.135  0.2551 -0.5581 -0.8068
18525SOL    HW157443   6.543   6.264   2.219 -2.6237  0.6691 -0.2233
18525SOL    HW257444   6.607   6.385   2.153 -0.2273 -0.3814  0.0786
18526SOL     OW57445   2.254   6.558   5.903 -0.0331 -0.1334 -1.0489
18526SOL    HW157446   2.319   6.491   5.922  0.3855  0.6389  0.3783
18526SOL    HW257447   2.189   6.513   5.849 -0.0535 -1.8689  0.3000
18527SOL     OW57448   1.251   7.849   0.781  0.3058 -0.3526 -0.0142
18527SOL    HW157449   1.326   7.811   0.736  0.4934 -0.1215  0.1037
18527SOL    HW257450   1.182   7.853   0.714  0.5813 -0.0136 -0.2807
18528SOL     OW57451   1.295   0.842   6.307 -0.1042 -0.1893 -0.1205
18528SOL    HW157452   1.389   0.839   6.288 -0.3995 -1.0611 -1.5972
18528SOL    HW257453   1.257   0.775   6.251 -1.7192  0.6826 -0.1357
18529SOL     OW57454   7.027   4.656   0.818 -0.1256 -0.2524 -0.7150
18529SOL    HW157455   7.120   4.665   0.840  0.2429  0.4515 -2.4102
18529SOL    HW257456   6.989   4.741   0.842 -0.8748 -1.2536  2.0870
18530SOL     OW57457   5.909   7.761   3.141  0.2255 -0.0134 -0.6269
18530SOL    HW157458   5.999   7.785   3.123  0.5455 -1.3182 -0.8628
18530SOL    HW257459   5.915   7.694   3.209 -0.7392  1.9694  1.5958
18531SOL     OW57460   0.116   3.562   3.172 -0.5850  0.7982 -0.1897
18531SOL    HW157461   0.166   3.486   3.143  0.8596  0.9885  1.5898
18531SOL    HW257462   0.025   3.538   3.158 -0.2167 -1.6656  1.0949
18532SOL     OW57463   6.783   0.911   4.151  0.6641  0.0264  0.0756
18532SOL    HW157464   6.780   0.856   4.229 -0.4286 -0.1225 -0.0550
18532SOL    HW257465   6.746   0.995   4.178 -1.2511 -0.5284 -0.6360
18533SOL     OW57466   8.615   1.127   4.918 -0.1096 -0.4258  0.0809
18533SOL    HW157467   8.595   1.198   4.857 -0.5685  0.5352  1.3073
18533SOL    HW257468   8.710   1.129   4.927 -0.0337 -0.6073 -0.6276
18534SOL     OW57469   8.393   5.971   6.818 -0.0601  0.3120 -0.0458
18534SOL    HW157470   8.338   5.937   6.748  0.0531 -2.8291  1.2195
18534SOL    HW257471   8.482   5.968   6.783  0.0486 -1.6959  0.3098
18535SOL     OW57472   8.817   2.689   6.847 -0.2182 -0.0935 -0.3741
18535SOL    HW157473   8.746   2.703   6.784  0.3986  0.8558 -0.8939
18535SOL    HW257474   8.867   2.616   6.812 -0.7877 -0.6004 -0.1396
18536SOL     OW57475   0.090   3.266   1.578  0.2838 -0.6096  0.3959
18536SOL    HW157476   0.045   3.349   1.595 -0.6876 -1.2290  0.8794
18536SOL    HW257477   0.023   3.209   1.540  1.1451 -0.9274 -0.7294
18537SOL     OW57478   5.851   3.344   1.835  0.6138 -0.1287 -0.2050
18537SOL    HW157479   5.853   3.346   1.740  0.8383  0.0067 -0.1958
18537SOL    HW257480   5.910   3.414   1.863 -0.4032  0.6695  0.0260
18538SOL     OW57481   6.116   2.770   4.199 -0.4496  0.4494  0.1046
18538SOL    HW157482   6.030   2.741   4.168 -0.2857 -0.7839  0.7273
18538SOL    HW257483   6.096   2.834   4.268 -1.0916 -2.6368  3.0822
18539SOL     OW57484   2.573   8.837   2.522 -0.2307 -0.0580 -0.3737
18539SOL    HW157485   2.496   8.812   2.573 -0.9820  0.3946 -1.2404
18539SOL    HW257486   2.563   8.932   2.508 -0.4103 -0.2736 -1.9072
18540SOL     OW57487   7.797   5.680   6.623 -1.2015  0.2217 -0.5673
18540SOL    HW157488   7.752   5.615   6.570 -2.4209 -0.7261  1.4894
18540SOL    HW257489   7.726   5.734   6.659 -0.8627 -1.1974  2.6050
18541SOL     OW57490   0.513   4.920   4.265  0.0013 -0.2686 -0.2067
18541SOL    HW157491   0.447   4.874   4.212 -1.7260  2.5237 -0.6608
18541SOL    HW257492   0.575   4.955   4.200 -1.4534  2.1379 -0.3918
18542SOL     OW57493   4.107   8.793   3.008  0.4811  0.7511 -0.1292
18542SOL    HW157494   4.181   8.743   2.971  2.4422  0.7628  3.3787
18542SOL    HW257495   4.046   8.726   3.038  0.5664  0.6384 -0.2032
18543SOL     OW57496   1.124   4.051   7.404  0.3830 -0.2138 -0.2049
18543SOL    HW157497   1.121   4.040   7.499  0.9163  0.3311 -0.1130
18543SOL    HW257498   1.157   4.140   7.391 -0.5979  0.0709 -0.8980
18544SOL     OW57499   7.109   2.701   0.752  0.2084 -1.2126 -0.5457
18544SOL    HW157500   7.178   2.646   0.790 -0.1922 -0.6992  1.0004
18544SOL    HW257501   7.138   2.790   0.770 -1.2511 -0.9985  0.8927
18545SOL     OW57502   8.703   5.655   7.722 -0.2498  0.3876 -0.2993
18545SOL    HW157503   8.791   5.684   7.747  0.3123  0.5912 -2.3729
18545SOL    HW257504   8.645   5.719   7.763  0.4012 -0.6330  2.4223
18546SOL     OW57505   4.109   2.781   0.012 -0.0840 -0.2463  0.2654
18546SOL    HW157506   4.018   2.799   0.034 -0.0651 -1.2648  1.3042
18546SOL    HW257507   4.107   2.692  -0.024  0.4486 -0.1391 -0.0297
18547SOL     OW57508   2.689   2.907   3.090 -0.0437 -0.2121  0.0981
18547SOL    HW157509   2.755   2.964   3.052  0.3062 -0.4358  0.3691
18547SOL    HW257510   2.711   2.820   3.057 -1.5587  0.0053 -1.7013
18548SOL     OW57511   4.297   3.492   0.140 -0.1468  0.1200 -0.5780
18548SOL    HW157512   4.327   3.415   0.187 -2.0107  0.0118  0.5104
18548SOL    HW257513   4.370   3.554   0.147  0.4062 -0.6361  0.6957
18549SOL     OW57514   4.429   0.174   1.034  0.2491 -0.0534  0.2157
18549SOL    HW157515   4.519   0.198   1.057 -0.0339  0.6733  0.6044
18549SOL    HW257516   4.392   0.140   1.116 -0.3281  1.2131  0.5090
18550SOL     OW57517   7.968   0.553   3.574 -0.7882  0.5299 -0.3514
18550SOL    HW157518   7.962   0.569   3.668 -0.8698 -0.7986 -0.1023
18550SOL    HW257519   7.887   0.587   3.538 -2.2918 -1.8480  0.5558
18551SOL     OW57520   2.226   2.727   1.585 -0.1651 -0.1959  0.1544
18551SOL    HW157521   2.301   2.705   1.529 -1.3368 -1.7140 -0.8868
18551SOL    HW257522   2.234   2.668   1.660  1.6291  2.1093  1.9168
18552SOL     OW57523   0.783   7.555   8.976  0.0372 -0.2289 -0.1862
18552SOL    HW157524   0.698   7.545   8.932  0.4316 -2.3462 -0.5741
18552SOL    HW257525   0.761   7.587   9.064 -1.2094 -1.1741 -0.1315
18553SOL     OW57526   2.586   1.627   7.975  0.1847  0.0160 -0.0208
18553SOL    HW157527   2.556   1.658   7.889  1.3260  0.2179 -0.3646
18553SOL    HW257528   2.600   1.707   8.025 -0.6883 -0.1090  0.4462
18554SOL     OW57529   1.630   7.418   4.898 -0.3738  0.3748  0.4198
18554SOL    HW157530   1.619   7.457   4.811 -0.6116  1.1338  0.7848
18554SOL    HW257531   1.698   7.352   4.886 -0.5826  0.2953 -0.4007
18555SOL     OW57532   5.211   8.955   0.291 -0.1048 -0.4648  0.1721
18555SOL    HW157533   5.191   9.030   0.347 -0.2449 -1.2911  1.2696
18555SOL    HW257534   5.132   8.942   0.238 -0.0038  0.2763 -0.1624
18556SOL     OW57535   7.172   8.936   6.652  0.0306  0.4559  0.2686
18556SOL    HW157536   7.172   8.884   6.572  0.2843  1.0393 -0.1128
18556SOL    HW257537   7.099   8.997   6.641 -1.1685 -0.7124  1.3174
18557SOL     OW57538   8.618   3.330   4.307  0.1909 -0.6400  0.3122
18557SOL    HW157539   8.631   3.374   4.222  2.1063  0.0296  0.8997
18557SOL    HW257540   8.538   3.369   4.342  0.1000  0.0335 -0.5990
18558SOL     OW57541   7.720   4.109   4.627 -0.2260  0.0142 -0.2489
18558SOL    HW157542   7.801   4.100   4.678 -0.4833  0.6330  0.2884
18558SOL    HW257543   7.742   4.172   4.558 -0.5218  0.9705  0.5098
18559SOL     OW57544   4.691   4.274   6.905 -0.6834  0.3232  0.1453
18559SOL    HW157545   4.738   4.256   6.824  0.4095  1.6026  0.4567
18559SOL    HW257546   4.601   4.246   6.888 -0.0336 -1.3193 -0.7914
18560SOL     OW57547   3.482   4.728   1.013  0.0365 -0.3053 -0.1150
18560SOL    HW157548   3.510   4.778   0.936 -1.3821 -2.1388 -1.9609
18560SOL    HW257549   3.420   4.785   1.057 -1.2666 -0.2084 -1.9534
18561SOL     OW57550   6.758   3.174   1.648 -0.3723  0.0351 -0.0728
18561SOL    HW157551   6.816   3.127   1.707 -0.1162  0.6777  0.2034
18561SOL    HW257552   6.801   3.259   1.635 -0.5825  0.0203 -0.9380
18562SOL     OW57553   8.238   4.291   5.365  0.3915  0.3046  0.1871
18562SOL    HW157554   8.172   4.222   5.377  0.8392  0.0534  1.4067
18562SOL    HW257555   8.251   4.326   5.453  1.6334  0.5872 -0.0957
18563SOL     OW57556   6.760   3.515   8.802 -0.6562  0.4817  0.1640
18563SOL    HW157557   6.750   3.433   8.851  0.0843  0.4867  0.3404
18563SOL    HW257558   6.678   3.562   8.816 -1.8021 -0.9602 -1.3326
18564SOL     OW57559   8.071   1.659   5.834  0.0812 -0.2225  0.2070
18564SOL    HW157560   8.129   1.584   5.822 -0.0175 -0.4512  1.0852
18564SOL    HW257561   7.999   1.643   5.774  0.5138 -0.3597 -0.2848
18565SOL     OW57562   1.997   8.361   3.104 -0.5322  0.4173 -0.3668
18565SOL    HW157563   1.914   8.408   3.099 -0.1026  2.1835  4.1691
18565SOL    HW257564   1.998   8.323   3.192  2.6498 -1.2777 -0.9589
18566SOL     OW57565   1.798   7.678   1.921 -0.7145  0.1296  0.4624
18566SOL    HW157566   1.853   7.718   1.853  0.2498  0.6072  1.5014
18566SOL    HW257567   1.796   7.585   1.899  0.0115  0.1981  0.0805
18567SOL     OW57568   5.381   2.679   4.255 -0.4547 -0.9346 -0.0732
18567SOL    HW157569   5.440   2.604   4.257 -1.0825 -1.5925 -2.3728
18567SOL    HW257570   5.423   2.745   4.310  0.2761 -2.8200  1.7279
18568SOL     OW57571   4.474   5.749   1.562  0.4970 -0.5651 -0.7778
18568SOL    HW157572   4.436   5.683   1.620 -0.7599  0.0546 -0.8582
18568SOL    HW257573   4.567   5.750   1.584  0.4076 -1.8341 -0.2688
18569SOL     OW57574   5.179   0.959   8.759 -0.4196 -0.7102 -0.5471
18569SOL    HW157575   5.173   0.957   8.663 -2.0828 -0.5469 -0.4768
18569SOL    HW257576   5.272   0.968   8.777 -0.0747 -0.7565 -2.1512
18570SOL     OW57577   6.936   0.101   1.718  0.3764  0.6301 -0.4672
18570SOL    HW157578   6.957   0.194   1.707  1.0808  0.4985 -0.2977
18570SOL    HW257579   6.915   0.070   1.630 -1.4820  1.3094 -0.3112
18571SOL     OW57580   1.086   0.319   8.846  0.2583 -0.1926  0.4628
18571SOL    HW157581   1.096   0.339   8.753  0.9798 -1.6206  0.1994
18571SOL    HW257582   1.147   0.246   8.861 -1.3130 -1.3340  1.5917
18572SOL     OW57583   4.933   4.615   7.469  0.1549  0.0819 -0.5053
18572SOL    HW157584   5.021   4.650   7.478  0.7966 -1.2954 -1.0911
18572SOL    HW257585   4.933   4.536   7.522 -1.1714  0.7659  0.5866
18573SOL     OW57586   1.404   4.852   3.804 -0.2889 -0.3400 -0.5524
18573SOL    HW157587   1.469   4.782   3.805 -0.0938 -0.1606 -0.7328
18573SOL    HW257588   1.427   4.906   3.729  0.1959  0.5066  0.1845
18574SOL     OW57589   5.234   1.833   8.452  0.0819  0.5366 -0.1116
18574SOL    HW157590   5.231   1.910   8.509 -0.3858  0.1485  0.3985
18574SOL    HW257591   5.258   1.868   8.366  1.7328  1.0178  0.5065
18575SOL     OW57592   8.349   4.120   3.300 -0.0594 -0.2909 -0.4956
18575SOL    HW157593   8.353   4.120   3.205  0.4037  1.3913 -0.5189
18575SOL    HW257594   8.269   4.170   3.320  0.7779  0.9058 -0.0286
18576SOL     OW57595   6.331   5.320   4.559  0.1059  0.2592  1.0237
18576SOL    HW157596   6.415   5.364   4.575 -0.0838  0.2788  1.9871
18576SOL    HW257597   6.347   5.229   4.581 -0.4955  0.5053  2.5726
18577SOL     OW57598   4.379   8.898   0.580  0.2540 -0.3536 -0.0595
18577SOL    HW157599   4.401   8.809   0.606 -0.7776 -0.1096  1.8773
18577SOL    HW257600   4.291   8.892   0.542  0.2336 -0.1805 -0.0420
18578SOL     OW57601   0.421   4.064   2.005 -0.6390 -0.2891 -0.0621
18578SOL    HW157602   0.496   4.026   1.961 -1.5261 -1.3652 -0.7070
18578SOL    HW257603   0.373   4.110   1.937 -0.7519  0.0960  0.2719
18579SOL     OW57604   7.604   0.507   8.165  0.0750  0.2997  0.2601
18579SOL    HW157605   7.650   0.526   8.246 -1.1896  0.8156  0.8868
18579SOL    HW257606   7.601   0.591   8.119  0.4930  0.0824 -0.1661
18580SOL     OW57607   0.476   4.449   1.001 -0.0231  0.8257 -0.1682
18580SOL    HW157608   0.460   4.451   1.095 -1.0359  1.5495 -0.3360
18580SOL    HW257609   0.396   4.413   0.964  0.7448 -0.3846 -0.6928
18581SOL     OW57610   1.542   1.614   7.210 -0.2885  0.2234 -0.2673
18581SOL    HW157611   1.504   1.551   7.148 -1.5168 -0.3581  1.0186
18581SOL    HW257612   1.615   1.567   7.249  2.8752  1.7884 -3.6978
18582SOL     OW57613   1.509   7.037   5.375  0.1010 -0.5295  0.0330
18582SOL    HW157614   1.418   7.035   5.346 -0.3207  1.2476  1.0942
18582SOL    HW257615   1.525   6.949   5.409 -0.9115 -1.1478 -0.9942
18583SOL     OW57616   6.461   1.016   5.401 -0.1836  0.0354 -0.0878
18583SOL    HW157617   6.535   0.957   5.414 -1.1539 -0.5896  3.3889
18583SOL    HW257618   6.492   1.101   5.433 -0.2993  0.3473 -0.7605
18584SOL     OW57619   0.788   6.535   8.105  0.4262 -0.5119  0.0724
18584SOL    HW157620   0.767   6.623   8.075 -1.0322 -0.3981  1.3226
18584SOL    HW257621   0.713   6.482   8.077 -0.4571 -0.6103  2.4394
18585SOL     OW57622   7.213   0.501   8.474 -0.3579 -0.7305 -0.8994
18585SOL    HW157623   7.163   0.544   8.404 -0.5274 -0.4260 -0.5959
18585SOL    HW257624   7.147   0.453   8.524 -0.1360 -1.5933 -1.3994
18586SOL     OW57625   5.763   5.049   7.063  0.3781  0.2792  0.8329
18586SOL    HW157626   5.755   5.074   7.155 -0.4179  1.1373  0.5445
18586SOL    HW257627   5.855   5.027   7.053  1.0195  2.4916  1.2825
18587SOL     OW57628   5.538   0.346   4.682 -0.1613  0.3406  0.4673
18587SOL    HW157629   5.506   0.399   4.609 -0.7971 -0.9645 -0.2316
18587SOL    HW257630   5.460   0.307   4.720  0.3691 -1.1106  0.1480
18588SOL     OW57631   4.004   3.372   2.676  0.4724  0.1672  0.0955
18588SOL    HW157632   3.950   3.323   2.615  0.7689  0.0961 -0.1108
18588SOL    HW257633   4.086   3.322   2.682  1.4133  1.4356 -1.3504
18589SOL     OW57634   8.159   0.858   1.248  0.2358 -0.4058  0.2270
18589SOL    HW157635   8.154   0.830   1.157  1.3554 -0.3812  0.1442
18589SOL    HW257636   8.186   0.780   1.296  0.6488 -0.1758  0.3815
18590SOL     OW57637   6.364   5.569   6.794  0.4720 -0.3058 -0.3901
18590SOL    HW157638   6.443   5.622   6.801  1.0241 -0.5044 -3.6842
18590SOL    HW257639   6.300   5.613   6.851  2.0073  1.7028 -0.1241
18591SOL     OW57640   3.678   3.415   0.358 -0.0402 -0.4171  0.1391
18591SOL    HW157641   3.686   3.388   0.267  0.2536  0.3564 -0.0795
18591SOL    HW257642   3.678   3.334   0.408 -0.3302 -0.8547 -0.5562
18592SOL     OW57643   6.674   7.782   4.386  0.4074 -0.5855 -0.2852
18592SOL    HW157644   6.631   7.795   4.471 -0.5300  0.7154 -0.9028
18592SOL    HW257645   6.760   7.822   4.396 -0.4467  1.4742 -0.4927
18593SOL     OW57646   6.038   2.506   5.943  0.1001 -0.2459  0.1726
18593SOL    HW157647   6.048   2.570   6.013 -1.9254 -0.5106  0.7656
18593SOL    HW257648   6.079   2.426   5.977  1.0264  0.2045  0.1517
18594SOL     OW57649   1.487   3.018   8.668  1.0150 -0.4692 -0.2928
18594SOL    HW157650   1.532   3.018   8.753 -0.7672 -1.3177  0.7200
18594SOL    HW257651   1.525   2.945   8.620  2.5324  0.4408 -0.5547
18595SOL     OW57652   7.783   1.506   1.643 -0.4269  0.2302 -0.0275
18595SOL    HW157653   7.855   1.557   1.606  0.3397 -0.9563 -0.2247
18595SOL    HW257654   7.793   1.514   1.737 -0.1609  0.2229 -0.0561
18596SOL     OW57655   6.003   3.055   7.072  0.1677  0.2619  0.5035
18596SOL    HW157656   6.052   3.103   7.006 -1.0871  0.3730 -0.3789
18596SOL    HW257657   6.055   3.065   7.152  0.6008  1.9941  0.0433
18597SOL     OW57658   1.154   0.744   4.718 -0.5884  0.0867 -0.0976
18597SOL    HW157659   1.167   0.827   4.672 -0.5826 -1.0063 -2.1675
18597SOL    HW257660   1.067   0.715   4.692 -0.2833 -0.9375  0.0005
18598SOL     OW57661   8.652   5.525   7.199 -0.1834 -0.3647  0.4050
18598SOL    HW157662   8.641   5.611   7.157  1.8952  0.3355  1.1641
18598SOL    HW257663   8.660   5.545   7.292 -1.3551 -1.5783  0.7965
18599SOL     OW57664   5.495   1.786   0.679  0.0472  0.2866 -0.5944
18599SOL    HW157665   5.468   1.763   0.591 -0.5065  0.8099 -0.5726
18599SOL    HW257666   5.496   1.882   0.680 -2.3579  0.3929  0.6212
18600SOL     OW57667   3.236   7.770   6.013  0.3264 -0.6416  0.3873
18600SOL    HW157668   3.247   7.677   6.033 -1.3808 -0.6422  1.5785
18600SOL    HW257669   3.152   7.794   6.054  0.4781  1.3079 -0.3062
18601SOL     OW57670   1.549   0.580   5.154 -0.0383  0.5178 -0.5262
18601SOL    HW157671   1.609   0.556   5.084 -1.1176  0.5265 -1.4807
18601SOL    HW257672   1.463   0.585   5.112 -0.7610  0.2417  0.8476
18602SOL     OW57673   7.291   6.966   2.837  0.5089  0.6725  0.6137
18602SOL    HW157674   7.201   6.998   2.839  0.6676  1.0850  1.1568
18602SOL    HW257675   7.344   7.042   2.811  0.9696  1.0896  2.6064
18603SOL     OW57676   4.530   1.655   3.493 -0.9228  0.0791 -0.0721
18603SOL    HW157677   4.544   1.671   3.587  2.6734  0.0587 -0.4712
18603SOL    HW257678   4.532   1.741   3.453 -1.0418 -0.0167 -0.2859
18604SOL     OW57679   2.965   7.658   1.973  0.3385 -0.0398  0.2892
18604SOL    HW157680   2.912   7.599   2.027  1.0477 -1.7374 -0.7565
18604SOL    HW257681   2.987   7.731   2.031 -1.6406 -0.1523  1.2565
18605SOL     OW57682   4.788   6.302   3.902 -0.1914  0.1517 -0.7617
18605SOL    HW157683   4.829   6.385   3.923  0.2823 -0.3542  0.3819
18605SOL    HW257684   4.804   6.291   3.808  1.9587  0.1747 -0.4569
18606SOL     OW57685   2.715   2.005   1.395  0.2563  0.7021 -0.1164
18606SOL    HW157686   2.709   1.934   1.331  1.7971  1.1430 -0.7917
18606SOL    HW257687   2.696   2.084   1.345  1.3013  1.0306 -0.0230
18607SOL     OW57688   3.390   4.794   5.778  0.3729  0.0034 -0.6222
18607SOL    HW157689   3.392   4.802   5.873  0.8749 -0.4637 -0.5876
18607SOL    HW257690   3.416   4.880   5.746 -3.2512  1.3570 -0.4209
18608SOL     OW57691   6.567   6.387   4.174  0.1111 -0.2338 -0.1779
18608SOL    HW157692   6.545   6.327   4.103  0.7163  0.0861 -0.6463
18608SOL    HW257693   6.491   6.445   4.181  0.8404  1.0245 -1.9510
18609SOL     OW57694   1.785   3.830   1.812 -0.2877  0.6312 -0.0029
18609SOL    HW157695   1.730   3.813   1.736 -0.5405  1.7890 -0.0968
18609SOL    HW257696   1.732   3.805   1.887  0.1855 -1.1008 -0.2016
18610SOL     OW57697   2.033   7.173   7.564 -0.1610  0.2990  0.6784
18610SOL    HW157698   1.988   7.199   7.645  1.3724 -0.0394  1.6669
18610SOL    HW257699   2.090   7.247   7.544  1.3452 -0.6416  1.3464
18611SOL     OW57700   7.532   7.932   2.074  0.0109 -0.8323  0.2346
18611SOL    HW157701   7.520   7.910   1.982 -0.4129  0.3272 -0.0006
18611SOL    HW257702   7.553   8.025   2.075  0.0040 -0.8241  1.3065
18612SOL     OW57703   4.325   2.203   7.394 -0.1461  0.0611  0.4581
18612SOL    HW157704   4.264   2.155   7.338  1.4138 -3.4857  1.5375
18612SOL    HW257705   4.366   2.266   7.335 -2.8617  0.7574 -0.8733
18613SOL     OW57706   6.100   2.267   1.383  0.0056  0.0210 -0.4928
18613SOL    HW157707   6.196   2.270   1.380  0.0105 -0.1994 -2.3826
18613SOL    HW257708   6.072   2.347   1.339 -0.6805  0.0755  0.0358
18614SOL     OW57709   1.975   1.267   7.385  0.3392 -0.0867  0.3930
18614SOL    HW157710   1.992   1.183   7.344  1.0110 -0.6376  1.7383
18614SOL    HW257711   1.887   1.258   7.423  0.2066  0.0027  0.1110
18615SOL     OW57712   7.503   3.102   8.104  0.0080 -0.7338 -0.0705
18615SOL    HW157713   7.483   3.008   8.110  2.0864 -1.2178 -0.1456
18615SOL    HW257714   7.598   3.106   8.092  0.2629  1.4703  1.9766
18616SOL     OW57715   5.841   1.478   0.406  0.2165  0.3094 -0.3654
18616SOL    HW157716   5.808   1.566   0.423  0.7110  0.6914 -1.2519
18616SOL    HW257717   5.931   1.479   0.440  0.0591 -0.0121  0.0640
18617SOL     OW57718   7.494   6.802   8.775  0.2063 -0.9328  0.2252
18617SOL    HW157719   7.536   6.718   8.793 -1.6492 -2.0848 -0.5980
18617SOL    HW257720   7.433   6.784   8.704  0.1902  1.2622 -0.3799
18618SOL     OW57721   8.098   8.130   6.937 -0.1208 -0.0836 -0.9885
18618SOL    HW157722   8.163   8.197   6.958 -0.6683 -0.0457  0.7308
18618SOL    HW257723   8.146   8.048   6.944  0.0745  0.0133 -1.1544
18619SOL     OW57724   1.127   8.078   0.969  0.4578  0.0572 -0.2311
18619SOL    HW157725   1.216   8.112   0.964  0.1524  0.8958 -0.1366
18619SOL    HW257726   1.132   7.993   0.926  1.1978  0.3128 -0.6782
18620SOL     OW57727   8.526   1.519   2.064 -0.6581 -0.2752 -0.1688
18620SOL    HW157728   8.570   1.436   2.048  0.7912  0.4901 -0.2587
18620SOL    HW257729   8.509   1.518   2.159 -0.4909 -0.5931 -0.1388
18621SOL     OW57730   6.224   5.908   7.114 -0.3534 -1.1065  0.1463
18621SOL    HW157731   6.242   5.872   7.200  0.9978  0.9227  0.7926
18621SOL    HW257732   6.309   5.909   7.070 -0.5750  0.0451 -0.3046
18622SOL     OW57733   6.316   5.922   3.883  0.0229 -0.0834 -0.8451
18622SOL    HW157734   6.286   5.850   3.938 -0.2960  1.4381  1.0622
18622SOL    HW257735   6.404   5.894   3.854 -0.9346 -2.1561 -1.9994
18623SOL     OW57736   6.672   1.016   6.346 -0.6426 -0.6053 -0.1931
18623SOL    HW157737   6.718   0.947   6.394 -0.7857 -0.1898  0.5676
18623SOL    HW257738   6.588   0.977   6.324 -0.5604 -0.8152 -0.1439
18624SOL     OW57739   0.510   5.747   1.182  0.3106  0.3509  0.3731
18624SOL    HW157740   0.554   5.806   1.243 -2.4950  1.5742  1.3833
18624SOL    HW257741   0.461   5.804   1.123 -2.0358 -0.8623  1.0252
18625SOL     OW57742   3.120   0.425   3.239  0.2668 -0.1219  0.0811
18625SOL    HW157743   3.069   0.349   3.209 -0.3955  0.5246 -0.4526
18625SOL    HW257744   3.178   0.445   3.166 -0.3023  0.5256 -0.2123
18626SOL     OW57745   6.660   1.459   5.615 -0.1368  0.1924  0.2051
18626SOL    HW157746   6.753   1.480   5.608  0.3376 -1.8379 -0.1790
18626SOL    HW257747   6.650   1.426   5.705 -0.2287 -0.7076 -0.1317
18627SOL     OW57748   4.904   8.614   5.533 -0.4880 -0.3867  0.0582
18627SOL    HW157749   4.837   8.609   5.465 -0.2198 -0.0586 -0.2349
18627SOL    HW257750   4.977   8.562   5.498 -0.3442 -0.2038  0.0907
18628SOL     OW57751   2.816   7.336   0.646 -0.3862 -0.4037  0.2357
18628SOL    HW157752   2.887   7.390   0.680  0.5886 -1.6569  0.2781
18628SOL    HW257753   2.853   7.248   0.643 -2.0483 -1.1439  0.5509
18629SOL     OW57754   0.367   4.746   5.042  0.0447 -0.5127  0.4598
18629SOL    HW157755   0.415   4.802   5.102  1.8946 -1.2598 -0.2718
18629SOL    HW257756   0.275   4.756   5.069  0.4861  1.5345  1.4047
18630SOL     OW57757   5.967   8.653   6.796 -0.0311 -0.0577  0.2358
18630SOL    HW157758   6.051   8.682   6.761 -0.3441  2.0980  1.1067
18630SOL    HW257759   5.969   8.680   6.888 -1.1123 -1.2867  0.6509
18631SOL     OW57760   5.976   6.835   8.245 -0.5604  0.4594 -0.2094
18631SOL    HW157761   5.984   6.916   8.194 -0.9706 -0.1781 -1.3452
18631SOL    HW257762   6.016   6.768   8.189 -0.1914 -0.1184  0.7242
18632SOL     OW57763   0.314   0.354   3.003 -0.4258 -0.3987  0.3396
18632SOL    HW157764   0.298   0.285   2.938 -0.3051 -1.2007  1.1418
18632SOL    HW257765   0.348   0.308   3.079  1.2071  0.7313  0.3444
18633SOL     OW57766   6.224   7.143   0.176  0.1458  0.1411 -0.3381
18633SOL    HW157767   6.303   7.105   0.137  0.1884 -0.0225 -0.0928
18633SOL    HW257768   6.248   7.159   0.267  0.2330  1.0523 -0.5149
18634SOL     OW57769   4.119   1.497   1.436 -0.0398 -0.6020  0.3909
18634SOL    HW157770   4.137   1.569   1.375  1.0600 -0.7543  0.5059
18634SOL    HW257771   4.035   1.519   1.475 -0.0705  0.2453 -0.1218
18635SOL     OW57772   8.819   0.135   7.776  0.4004 -0.2368  0.9225
18635SOL    HW157773   8.783   0.202   7.717  0.1230 -1.5054 -0.3978
18635SOL    HW257774   8.914   0.141   7.763  0.5419  1.1683  2.2692
18636SOL     OW57775   2.659   0.894   2.644  0.0871 -0.1154  0.3623
18636SOL    HW157776   2.689   0.848   2.565  0.3452  0.1754  0.2926
18636SOL    HW257777   2.685   0.836   2.716  0.3586 -0.1091  0.2704
18637SOL     OW57778   3.128   8.550   4.399 -0.7148 -0.1780  0.1415
18637SOL    HW157779   3.212   8.594   4.386  0.2433 -0.7198  3.5214
18637SOL    HW257780   3.085   8.600   4.468 -3.5108  0.4002 -1.8606
18638SOL     OW57781   8.460   5.014   1.965  0.0157 -0.3937  0.2953
18638SOL    HW157782   8.379   4.971   1.938 -0.4554  0.9868 -0.6392
18638SOL    HW257783   8.479   4.978   2.052 -0.6482 -1.9982 -0.1854
18639SOL     OW57784   0.712   0.676   3.952 -0.2452 -0.4528  0.4959
18639SOL    HW157785   0.795   0.661   3.907 -1.8350 -1.2156 -2.4714
18639SOL    HW257786   0.699   0.771   3.947 -0.2532 -0.4901 -0.4999
18640SOL     OW57787   5.275   6.368   4.547  0.0739  0.3965  0.4683
18640SOL    HW157788   5.208   6.422   4.588  0.6830  0.2579  1.6607
18640SOL    HW257789   5.347   6.428   4.528 -0.6265  0.7034 -1.5006
18641SOL     OW57790   2.041   2.620   0.313 -0.1608 -0.6741 -0.7342
18641SOL    HW157791   1.966   2.615   0.373 -0.4043 -1.8171 -1.0975
18641SOL    HW257792   2.118   2.609   0.370 -0.2415  0.7589 -0.3289
18642SOL     OW57793   8.106   5.727   3.990  0.0635  0.1692 -0.2606
18642SOL    HW157794   8.103   5.649   3.935  0.4781  0.4452 -0.6788
18642SOL    HW257795   8.020   5.768   3.978 -1.1462 -1.5174  1.9025
18643SOL     OW57796   5.128   0.331   6.488  0.1524  0.1045  0.8224
18643SOL    HW157797   5.151   0.242   6.461 -0.6709  0.1291 -0.0258
18643SOL    HW257798   5.207   0.366   6.528  0.4818 -1.0199  1.1880
18644SOL     OW57799   5.187   4.511   5.942  0.1642  0.0774 -0.0990
18644SOL    HW157800   5.282   4.508   5.954  0.1604  1.2351  0.2546
18644SOL    HW257801   5.175   4.544   5.853  0.0915 -0.3437 -0.2478
18645SOL     OW57802   3.428   0.633   5.934  0.3878  0.2729 -0.3967
18645SOL    HW157803   3.334   0.647   5.917  0.6958  2.5144 -0.5413
18645SOL    HW257804   3.461   0.593   5.853 -0.1485  1.0883 -1.0453
18646SOL     OW57805   5.934   4.458   8.463 -0.1037  0.4622 -0.8800
18646SOL    HW157806   5.995   4.454   8.536  0.0219 -0.0052 -1.0127
18646SOL    HW257807   5.957   4.384   8.407 -1.3682 -0.2847 -0.4693
18647SOL     OW57808   7.973   3.374   3.722  0.2400  0.3073  0.3082
18647SOL    HW157809   8.049   3.411   3.678  0.0412  0.1575 -0.1622
18647SOL    HW257810   7.922   3.333   3.653  0.9117 -1.6811  0.9243
18648SOL     OW57811   0.656   4.154   5.892 -0.0101  0.7767 -0.1216
18648SOL    HW157812   0.596   4.222   5.924  0.3611  1.2906 -0.4991
18648SOL    HW257813   0.634   4.144   5.800 -0.3712  0.0511  0.0405
18649SOL     OW57814   3.517   6.560   5.959 -0.6861 -0.1980 -0.3061
18649SOL    HW157815   3.443   6.501   5.945 -0.2469 -0.5692 -1.1363
18649SOL    HW257816   3.558   6.568   5.873 -1.2308  2.0258 -0.4272
18650SOL     OW57817   8.435   1.510   7.955  0.0978 -0.5320 -0.4131
18650SOL    HW157818   8.362   1.470   8.003  0.3965  0.0173  0.5236
18650SOL    HW257819   8.512   1.491   8.007  0.2608  1.2003  0.0655
18651SOL     OW57820   3.710   1.836   5.016 -0.3543 -0.2768 -0.1983
18651SOL    HW157821   3.615   1.828   5.009 -0.3265 -0.5524 -0.2667
18651SOL    HW257822   3.724   1.911   5.074 -0.6029  1.2243 -1.9621
18652SOL     OW57823   8.103   6.622   0.597 -0.3234 -0.1401 -0.0814
18652SOL    HW157824   8.087   6.528   0.596 -2.0619  0.1050 -2.1057
18652SOL    HW257825   8.047   6.657   0.528 -0.0273  2.4558  0.8713
18653SOL     OW57826   3.089   8.242   6.583 -0.2365 -0.2772  0.1202
18653SOL    HW157827   3.095   8.323   6.634 -2.0606  1.1293 -1.7224
18653SOL    HW257828   3.142   8.258   6.505 -1.4208 -0.3823 -0.7477
18654SOL     OW57829   7.237   5.815   8.264  0.4221  0.0216  0.1488
18654SOL    HW157830   7.148   5.834   8.234  0.1606 -1.4758 -0.1183
18654SOL    HW257831   7.242   5.854   8.351  0.3323  2.2160 -0.7748
18655SOL     OW57832   2.418   2.872   5.843  0.3765  0.5132  0.2841
18655SOL    HW157833   2.339   2.900   5.796  0.2364 -0.6190 -0.1878
18655SOL    HW257834   2.402   2.897   5.934 -0.4297  0.5180  0.1489
18656SOL     OW57835   5.776   4.372   1.054  0.3083 -0.0991  0.1338
18656SOL    HW157836   5.840   4.441   1.075  0.3615 -0.2200  0.3677
18656SOL    HW257837   5.800   4.344   0.966  1.1766 -0.8066  0.5810
18657SOL     OW57838   4.602   7.491   0.849  0.2526 -0.1112  0.3992
18657SOL    HW157839   4.536   7.443   0.799  0.7301  0.3635 -0.7204
18657SOL    HW257840   4.582   7.583   0.834  0.9226  0.0372  0.3559
18658SOL     OW57841   3.341   7.847   2.569 -0.0475 -0.7652 -0.4426
18658SOL    HW157842   3.325   7.912   2.638  0.4548  0.6670 -1.6125
18658SOL    HW257843   3.425   7.808   2.592 -1.6521 -3.2440  1.8793
18659SOL     OW57844   1.208   5.851   5.046 -0.2725  0.3632 -0.1519
18659SOL    HW157845   1.161   5.912   4.990 -0.5848  0.9891  0.7735
18659SOL    HW257846   1.188   5.879   5.135 -0.3748 -1.0526  0.2933
18660SOL     OW57847   0.110   1.620   8.463  0.1047  0.6863 -0.3068
18660SOL    HW157848   0.176   1.551   8.464  0.7688  1.3200  0.0010
18660SOL    HW257849   0.075   1.617   8.373 -0.1155 -0.2562 -0.2078
18661SOL     OW57850   8.363   5.950   1.472 -0.1972 -0.3286  0.8176
18661SOL    HW157851   8.363   5.860   1.441 -1.8126 -1.0334  2.6566
18661SOL    HW257852   8.379   5.943   1.566  1.8311  1.5032  0.6860
18662SOL     OW57853   3.621   2.087   0.274  0.4316 -0.6652 -0.4958
18662SOL    HW157854   3.710   2.092   0.308  0.3387  3.0670 -0.3995
18662SOL    HW257855   3.614   2.161   0.213 -2.5258 -0.9771 -0.7039
18663SOL     OW57856   7.992   2.746   1.631 -0.2340  0.6520 -0.1610
18663SOL    HW157857   7.903   2.751   1.667 -0.2556 -1.6417  0.2906
18663SOL    HW257858   8.047   2.726   1.707  0.3284 -0.1208 -0.7518
18664SOL     OW57859   2.347   1.024   8.615 -0.1001 -0.3122 -0.7393
18664SOL    HW157860   2.368   0.977   8.534  1.4220  0.4274 -0.8135
18664SOL    HW257861   2.310   1.107   8.586 -2.7819 -1.3598 -0.6069
18665SOL     OW57862   6.559   8.082   0.201  0.1443 -0.3014 -0.4117
18665SOL    HW157863   6.544   7.989   0.219  0.3036  0.1834  2.9213
18665SOL    HW257864   6.651   8.096   0.222 -0.0863  0.7374 -0.0226
18666SOL     OW57865   8.422   3.653   8.475  0.0174 -0.4696 -0.0010
18666SOL    HW157866   8.366   3.594   8.526  1.5926 -1.3134  0.8217
18666SOL    HW257867   8.507   3.610   8.474 -0.0730 -0.8929 -4.0674
18667SOL     OW57868   8.531   1.278   3.911  0.1894  0.2233 -0.2754
18667SOL    HW157869   8.554   1.343   3.977 -2.4084  0.6940  0.2603
18667SOL    HW257870   8.473   1.324   3.850 -0.2342 -1.0960 -0.9199
18668SOL     OW57871   7.011   1.689   5.795 -0.1352 -0.3786  0.2752
18668SOL    HW157872   7.094   1.641   5.795  0.2528  0.2650  0.3914
18668SOL    HW257873   7.024   1.758   5.730 -0.9538 -0.8755 -0.4268
18669SOL     OW57874   3.076   6.278   4.988 -0.4909 -0.1633  0.4816
18669SOL    HW157875   3.002   6.301   4.932 -0.4515  0.1309  0.5468
18669SOL    HW257876   3.151   6.278   4.930 -0.3012  1.0445  0.6885
18670SOL     OW57877   3.505   2.967   7.880  0.0837 -0.4046 -0.1617
18670SOL    HW157878   3.588   2.965   7.928  0.1647 -0.3557 -0.2988
18670SOL    HW257879   3.497   2.880   7.841  0.5931 -0.0780 -1.0285
18671SOL     OW57880   2.653   6.609   6.449 -0.4596  0.0152  0.1542
18671SOL    HW157881   2.617   6.616   6.537  0.0601  0.2065  0.3520
18671SOL    HW257882   2.690   6.521   6.444 -1.0491 -0.2249 -0.0893
18672SOL     OW57883   6.367   2.565   0.714  0.4190 -0.3868 -1.1553
18672SOL    HW157884   6.387   2.503   0.785 -0.6658 -1.1375 -1.4795
18672SOL    HW257885   6.440   2.555   0.653  1.3365  0.2246 -0.1924
18673SOL     OW57886   3.189   6.585   1.483 -0.1603  0.6004 -0.0435
18673SOL    HW157887   3.179   6.498   1.520 -0.4361 -0.7664 -3.0320
18673SOL    HW257888   3.123   6.590   1.414  1.0190  2.4804 -1.1442
18674SOL     OW57889   8.517   3.847   8.202 -0.1790  0.2477 -0.1526
18674SOL    HW157890   8.553   3.783   8.140  0.8363  0.8878 -0.2447
18674SOL    HW257891   8.474   3.794   8.269  1.6226 -0.5857  0.3871
18675SOL     OW57892   3.186   1.870   2.799  0.0786  0.1368 -0.1244
18675SOL    HW157893   3.222   1.929   2.732  0.4187 -0.8252 -0.8292
18675SOL    HW257894   3.230   1.786   2.782 -1.5459 -0.7457 -0.1781
18676SOL     OW57895   6.000   0.820   8.625  0.0864 -0.4986 -0.8579
18676SOL    HW157896   5.941   0.889   8.597 -0.1503 -0.2527  0.1886
18676SOL    HW257897   6.005   0.830   8.721  1.2405 -0.9759 -0.8500
18677SOL     OW57898   5.269   1.885   8.189 -0.5789  0.5087 -0.1831
18677SOL    HW157899   5.248   1.934   8.110  2.8989 -0.2671 -1.8213
18677SOL    HW257900   5.240   1.795   8.169 -0.0807  0.3993 -0.4386
18678SOL     OW57901   2.005   7.580   5.505 -0.3032  0.4165  0.4408
18678SOL    HW157902   2.054   7.622   5.576 -1.9239  1.4692  0.9843
18678SOL    HW257903   2.005   7.645   5.434 -0.6186  0.2797  0.3126
18679SOL     OW57904   2.583   2.341   0.409 -0.0421 -0.1627 -0.1933
18679SOL    HW157905   2.546   2.258   0.441  2.2915  0.0231  3.6896
18679SOL    HW257906   2.671   2.318   0.381  0.2093  0.7972 -0.2043
18680SOL     OW57907   0.841   4.673   7.000  0.2739  0.6126  0.1264
18680SOL    HW157908   0.827   4.765   7.022  0.9107  1.0010 -0.9983
18680SOL    HW257909   0.807   4.664   6.911  1.4028  0.0949 -0.2748
18681SOL     OW57910   1.916   8.491   7.540  0.4241  0.2517 -0.1133
18681SOL    HW157911   2.009   8.482   7.562  0.3032  3.0154  2.2434
18681SOL    HW257912   1.871   8.434   7.602  0.5135 -0.0834 -0.3587
18682SOL     OW57913   1.684   2.318   2.708 -0.6672  0.2898  0.0308
18682SOL    HW157914   1.669   2.323   2.614  0.2861 -1.5390 -0.2766
18682SOL    HW257915   1.772   2.353   2.720 -0.7893  0.5241  0.2490
18683SOL     OW57916   5.469   5.441   5.585  0.0290 -0.2114 -0.7130
18683SOL    HW157917   5.532   5.447   5.514 -1.6347  1.5061 -2.1379
18683SOL    HW257918   5.405   5.376   5.555  0.1710 -0.6798 -0.0371
18684SOL     OW57919   4.980   1.512   4.554 -0.9686  0.4237  0.0021
18684SOL    HW157920   4.917   1.583   4.550 -1.1505  0.3206  0.8341
18684SOL    HW257921   4.980   1.474   4.466 -1.1110  1.2378 -0.3511
18685SOL     OW57922   3.788   4.244   5.859  1.1039 -0.0450  0.1924
18685SOL    HW157923   3.848   4.191   5.806  1.1451 -0.5569  0.7301
18685SOL    HW257924   3.830   4.250   5.945  1.9141  2.3118 -0.3013
18686SOL     OW57925   4.464   3.739   4.847 -0.1779 -0.0861 -0.3438
18686SOL    HW157926   4.546   3.708   4.810  0.2054  0.3440  0.1334
18686SOL    HW257927   4.477   3.735   4.941 -0.3135  0.9988 -0.2681
18687SOL     OW57928   8.402   4.301   8.632 -0.2031 -0.4379 -0.5565
18687SOL    HW157929   8.473   4.266   8.578 -0.4711 -0.5515 -0.8348
18687SOL    HW257930   8.325   4.251   8.606 -0.2242 -0.8839  0.3220
18688SOL     OW57931   8.689   4.087   7.164 -0.2653  0.0512  0.0116
18688SOL    HW157932   8.664   4.155   7.102 -0.3444 -0.3281 -0.3737
18688SOL    HW257933   8.662   4.005   7.123  0.1914 -0.2478  0.2931
18689SOL     OW57934   7.501   4.732   5.005  0.0170 -0.3155  0.6153
18689SOL    HW157935   7.568   4.701   5.067  1.2604 -0.2562 -0.6562
18689SOL    HW257936   7.426   4.754   5.060  0.7205 -1.2431  1.9997
18690SOL     OW57937   3.482   7.779   2.129  0.2027  0.1150 -0.1213
18690SOL    HW157938   3.567   7.814   2.101 -0.0087 -0.3527 -1.4450
18690SOL    HW257939   3.504   7.704   2.184  0.6653  0.0649 -0.3641
18691SOL     OW57940   3.759   5.235   4.306  0.3982 -0.0117  0.1754
18691SOL    HW157941   3.808   5.288   4.243  0.6084  0.5317  0.7874
18691SOL    HW257942   3.668   5.263   4.295  0.3180 -0.4936 -0.4429
18692SOL     OW57943   8.227   5.204   1.396 -0.6594 -0.0339  0.0729
18692SOL    HW157944   8.135   5.227   1.384 -0.8842  0.4801  2.3991
18692SOL    HW257945   8.225   5.114   1.428 -0.0409 -1.6285 -3.7386
18693SOL     OW57946   3.056   2.140   7.174 -0.0247  0.1839  0.1616
18693SOL    HW157947   3.043   2.197   7.250 -0.3177 -0.6243  0.7320
18693SOL    HW257948   3.026   2.054   7.203 -1.3687  0.1276 -1.3032
18694SOL     OW57949   2.700   0.316   4.134  0.2651  0.4188  0.9223
18694SOL    HW157950   2.630   0.374   4.105  0.0337 -0.4820 -0.4090
18694SOL    HW257951   2.776   0.373   4.144 -0.5234  1.3265  1.9184
18695SOL     OW57952   6.532   6.485   8.821  0.0184 -0.2229  0.1287
18695SOL    HW157953   6.605   6.533   8.860 -0.0300 -0.4158  0.4627
18695SOL    HW257954   6.488   6.550   8.765  1.1901 -0.4481 -1.0978
18696SOL     OW57955   4.378   8.633   7.105 -0.1631  0.1968 -0.0169
18696SOL    HW157956   4.371   8.557   7.162 -2.4021  0.2262 -0.1894
18696SOL    HW257957   4.301   8.629   7.049  1.5463  0.5825 -2.5930
18697SOL     OW57958   8.603   8.453   7.604  0.4491  0.2813  0.1780
18697SOL    HW157959   8.570   8.536   7.639  1.2029  0.5837  0.1999
18697SOL    HW257960   8.698   8.458   7.617  0.5538 -0.3681 -0.2844
18698SOL     OW57961   1.796   4.761   0.034 -0.4797  0.0663 -0.2057
18698SOL    HW157962   1.834   4.679   0.003 -2.4050 -0.5975 -1.0142
18698SOL    HW257963   1.773   4.744   0.125  1.9886  0.8343  0.6386
18699SOL     OW57964   4.576   6.852   6.233 -0.1526 -0.1103 -0.2381
18699SOL    HW157965   4.544   6.763   6.221  0.4097 -0.7330  2.3166
18699SOL    HW257966   4.591   6.884   6.144 -1.2322 -2.2193 -1.2568
18700SOL     OW57967   1.520   2.058   8.032  0.6204  0.1651 -0.2813
18700SOL    HW157968   1.454   2.004   8.076 -1.0745  2.4962  0.2224
18700SOL    HW257969   1.480   2.080   7.948  1.0437  1.0357 -0.2674
18701SOL     OW57970   3.639   3.952   1.615 -0.4081 -0.1027 -0.4529
18701SOL    HW157971   3.726   3.914   1.613  0.3981  1.6784 -2.1178
18701SOL    HW257972   3.648   4.037   1.572 -2.7421  0.6358  0.3353
18702SOL     OW57973   4.809   0.777   2.660  0.0200 -0.3298 -0.6478
18702SOL    HW157974   4.823   0.727   2.740 -1.4720  0.6419  0.2845
18702SOL    HW257975   4.759   0.717   2.603 -1.7522  0.0121  0.4549
18703SOL     OW57976   5.612   1.322   4.239 -0.7318  0.0342  0.3071
18703SOL    HW157977   5.606   1.414   4.265  0.2117 -0.0568  0.9126
18703SOL    HW257978   5.662   1.281   4.309 -0.7490 -0.8476 -0.1882
18704SOL     OW57979   2.977   7.592   5.996 -0.3239  0.6245 -0.2334
18704SOL    HW157980   3.013   7.586   5.908 -3.2222  0.5788 -1.5309
18704SOL    HW257981   2.898   7.645   5.986 -0.8355  0.4642  2.3154
18705SOL     OW57982   7.580   5.557   7.934  0.6474  0.2992  0.5375
18705SOL    HW157983   7.633   5.625   7.893  2.8680 -1.1887  0.7947
18705SOL    HW257984   7.524   5.604   7.996  3.4040  1.7876  2.0540
18706SOL     OW57985   5.470   5.610   1.279 -0.4410  0.5570  0.0585
18706SOL    HW157986   5.466   5.521   1.316 -1.1173  0.8912  0.8151
18706SOL    HW257987   5.562   5.623   1.259 -0.1355  0.1474  1.1124
18707SOL     OW57988   0.521   2.532   6.760 -0.0836 -0.5317 -0.2142
18707SOL    HW157989   0.441   2.502   6.716  0.0719 -1.0632 -0.1334
18707SOL    HW257990   0.490   2.592   6.827 -0.5764 -2.1804  1.0858
18708SOL     OW57991   6.432   2.830   0.979 -0.1188 -0.0988 -0.3168
18708SOL    HW157992   6.488   2.907   0.987 -0.3024 -0.0267  0.3420
18708SOL    HW257993   6.380   2.847   0.901 -0.0983  0.4137 -0.2249
18709SOL     OW57994   7.683   5.430   5.007 -0.1822  0.5870 -0.1702
18709SOL    HW157995   7.774   5.426   4.976 -0.1612  2.7724 -0.5089
18709SOL    HW257996   7.630   5.416   4.928 -0.1850 -1.0305  0.0823
18710SOL     OW57997   0.469   3.541   0.612  0.0992 -0.4479  0.2125
18710SOL    HW157998   0.518   3.488   0.675 -1.2819  0.4304  2.1565
18710SOL    HW257999   0.466   3.489   0.532  3.1868 -0.9956  0.3504
18711SOL     OW58000   1.651   7.806   8.406 -0.3035  0.2887 -0.5529
18711SOL    HW158001   1.667   7.860   8.329 -0.0535  0.4413 -0.3966
18711SOL    HW258002   1.634   7.719   8.371  0.8574  0.1219 -0.7354
18712SOL     OW58003   8.611   1.200   7.324 -0.1005 -0.3456  0.3967
18712SOL    HW158004   8.532   1.169   7.368  0.4219 -3.7199 -0.8006
18712SOL    HW258005   8.681   1.189   7.389 -0.0160 -1.1123  0.1798
18713SOL     OW58006   4.418   2.717   2.403  0.4703 -0.2437  0.2250
18713SOL    HW158007   4.417   2.632   2.449 -0.2427 -0.9346 -1.0150
18713SOL    HW258008   4.339   2.716   2.350  1.0342  0.7261 -0.6660
18714SOL     OW58009   4.840   8.253   1.013 -0.0612 -0.6740 -0.3163
18714SOL    HW158010   4.926   8.213   1.028  0.8042  0.9603 -0.6476
18714SOL    HW258011   4.814   8.223   0.926  0.3478 -0.8900 -0.3674
18715SOL     OW58012   7.060   3.628   8.765 -0.2379  0.0240 -0.4268
18715SOL    HW158013   7.102   3.550   8.801 -1.0456 -0.4855 -0.5707
18715SOL    HW258014   7.129   3.670   8.712  0.6534  0.2499  0.8702
18716SOL     OW58015   0.775   5.530   7.371  0.1227  0.3421  0.4244
18716SOL    HW158016   0.742   5.452   7.415 -2.0525  1.4014  0.8046
18716SOL    HW258017   0.788   5.502   7.280 -1.0342 -0.3760  0.4556
18717SOL     OW58018   8.527   1.756   1.503 -0.0747  0.1596 -0.4083
18717SOL    HW158019   8.568   1.676   1.470 -1.5147 -1.2037  0.9016
18717SOL    HW258020   8.474   1.788   1.430 -0.2544 -0.6504 -0.6429
18718SOL     OW58021   4.481   6.923   4.343 -0.3810 -0.0570  0.3139
18718SOL    HW158022   4.463   6.959   4.429  0.3905  1.3422 -0.0761
18718SOL    HW258023   4.517   6.996   4.293  0.9584 -1.2906 -0.6259
18719SOL     OW58024   4.771   2.192   8.623 -0.1678 -0.4298 -0.1166
18719SOL    HW158025   4.772   2.118   8.684  1.8458 -0.5372 -0.2227
18719SOL    HW258026   4.837   2.252   8.657 -1.3316  1.0683 -0.3857
18720SOL     OW58027   0.320   5.818   2.364 -0.1998 -0.3201 -0.1242
18720SOL    HW158028   0.276   5.903   2.365  0.1884 -0.1183  1.7946
18720SOL    HW258029   0.248   5.754   2.363 -0.6668  0.0090  2.8944
18721SOL     OW58030   7.913   5.609   1.982 -0.7546 -0.4663  0.2979
18721SOL    HW158031   7.836   5.663   1.962 -0.3156 -0.0667 -0.3585
18721SOL    HW258032   7.910   5.597   2.077 -2.7010 -2.1041  0.0880
18722SOL     OW58033   3.113   7.696   3.010  0.4731  0.4466  0.2916
18722SOL    HW158034   3.118   7.634   3.082  1.1695  0.6549  0.4267
18722SOL    HW258035   3.043   7.661   2.954  1.7073 -1.1987 -0.3183
18723SOL     OW58036   0.288   3.301   4.064  0.2685 -0.1414  0.3725
18723SOL    HW158037   0.318   3.235   4.002 -1.1810 -0.8631  0.3787
18723SOL    HW258038   0.367   3.343   4.096  1.0950 -0.2657 -1.3887
18724SOL     OW58039   7.774   1.806   1.575  0.1257 -0.7824  0.4759
18724SOL    HW158040   7.715   1.846   1.639 -0.3329 -0.6826  0.0032
18724SOL    HW258041   7.857   1.797   1.620 -0.0772 -0.3212  0.9440
18725SOL     OW58042   3.067   5.053   3.307 -0.4049  0.1323  0.2498
18725SOL    HW158043   3.006   5.025   3.239 -1.4390 -1.9851  1.9098
18725SOL    HW258044   3.011   5.079   3.380  0.6364 -0.2856  1.2431
18726SOL     OW58045   6.922   6.716   0.180 -0.0090 -0.3304  0.0614
18726SOL    HW158046   6.902   6.717   0.087 -0.3206 -1.1166  0.1127
18726SOL    HW258047   6.929   6.623   0.202 -1.9205 -0.2385  1.2418
18727SOL     OW58048   4.956   3.428   1.599  0.2131  0.5707 -0.1259
18727SOL    HW158049   4.919   3.407   1.685 -0.9422 -0.6366 -0.8923
18727SOL    HW258050   4.892   3.395   1.536  0.6963  2.0809 -1.4656
18728SOL     OW58051   8.923   8.118   1.016 -0.4393 -0.5339 -0.1599
18728SOL    HW158052   8.967   8.043   0.976  0.3191 -0.3001  0.2231
18728SOL    HW258053   8.868   8.081   1.085  2.6062 -0.5278  2.4800
18729SOL     OW58054   1.216   7.568   0.895 -0.6526 -0.1095 -0.7844
18729SOL    HW158055   1.205   7.530   0.808  1.3553  0.5004 -1.3713
18729SOL    HW258056   1.236   7.660   0.878 -1.3121  0.2700  0.3902
18730SOL     OW58057   7.204   8.052   5.623 -0.8186 -0.1606 -0.6566
18730SOL    HW158058   7.272   8.119   5.634 -0.5533 -0.5786  0.3331
18730SOL    HW258059   7.123   8.097   5.646 -1.1194  0.7156 -3.0622
18731SOL     OW58060   5.896   2.910   6.117  0.0186 -0.0317 -0.0690
18731SOL    HW158061   5.854   2.883   6.036  1.1315 -0.4523 -0.5204
18731SOL    HW258062   5.909   2.828   6.166  1.0821 -0.0299 -0.3209
18732SOL     OW58063   8.365   0.711   0.853 -0.4888 -0.6269  0.5452
18732SOL    HW158064   8.352   0.626   0.813  0.4484 -0.4253 -0.2436
18732SOL    HW258065   8.297   0.717   0.920  0.0479 -2.4018  1.3038
18733SOL     OW58066   8.677   6.332   4.590 -0.0941 -0.0599 -0.2071
18733SOL    HW158067   8.722   6.382   4.522  0.4747  0.6219  0.6455
18733SOL    HW258068   8.695   6.380   4.670 -0.2333 -1.1832  0.5230
18734SOL     OW58069   0.862   6.474   1.291 -1.3481 -0.3985  0.3474
18734SOL    HW158070   0.780   6.449   1.333  0.0167 -0.7755  3.0652
18734SOL    HW258071   0.921   6.493   1.364  1.1324 -0.6025 -1.4710
18735SOL     OW58072   0.769   8.545   7.356 -0.0113  0.8178  0.1630
18735SOL    HW158073   0.839   8.532   7.419 -0.4922  2.6552  1.1242
18735SOL    HW258074   0.783   8.633   7.321 -1.5457  1.0440  0.0204
18736SOL     OW58075   7.639   1.875   4.552  0.3033 -0.1428  0.1724
18736SOL    HW158076   7.640   1.822   4.631  0.5890  1.3425  1.2058
18736SOL    HW258077   7.692   1.826   4.489 -0.4355 -1.6357  0.6777
18737SOL     OW58078   8.012   7.112   1.816  0.0418 -0.1909 -0.1222
18737SOL    HW158079   8.103   7.103   1.843  0.2569  0.1980 -0.6803
18737SOL    HW258080   8.015   7.179   1.747 -0.5427 -0.8091 -0.7580
18738SOL     OW58081   7.003   1.471   2.536 -0.1271 -0.1877 -0.1293
18738SOL    HW158082   6.958   1.391   2.563 -1.7808  1.2324  1.6598
18738SOL    HW258083   7.063   1.490   2.609 -1.3448  1.3104  0.5268
18739SOL     OW58084   3.995   1.252   7.140  0.1082  0.8362 -0.2255
18739SOL    HW158085   3.947   1.335   7.140 -1.0382  0.2181  1.4285
18739SOL    HW258086   3.951   1.199   7.206  2.7407  0.0363  1.0180
18740SOL     OW58087   8.387   8.600   7.400 -0.4855 -0.0980  0.2370
18740SOL    HW158088   8.412   8.565   7.315 -0.9300  0.0450  0.0445
18740SOL    HW258089   8.470   8.625   7.441 -0.1838 -1.0590  0.2451
18741SOL     OW58090   6.567   8.732   5.715 -0.2499 -0.1053 -0.2391
18741SOL    HW158091   6.633   8.691   5.658  0.9210 -1.0255  1.6610
18741SOL    HW258092   6.504   8.662   5.732 -0.9914  0.3771 -0.9547
18742SOL     OW58093   8.310   7.889   4.297  0.0197 -0.3420  0.1876
18742SOL    HW158094   8.336   7.981   4.288 -0.0654 -0.3791 -0.5359
18742SOL    HW258095   8.250   7.888   4.371 -0.9935  0.4135 -0.5940
18743SOL     OW58096   0.403   3.614   6.748 -0.0918  0.1633  0.3785
18743SOL    HW158097   0.395   3.541   6.687  0.6027 -0.6220  1.1927
18743SOL    HW258098   0.319   3.659   6.744 -0.1908 -0.1025 -0.8553
18744SOL     OW58099   1.079   2.313   1.861  0.1557  0.0747  0.5431
18744SOL    HW158100   1.171   2.290   1.870  0.4787  0.2207 -1.6893
18744SOL    HW258101   1.080   2.404   1.832 -0.6449 -0.0268  0.1554
18745SOL     OW58102   8.755   4.323   1.876  0.2034  0.2617  0.5242
18745SOL    HW158103   8.698   4.349   1.949  0.7532  2.5273  0.2473
18745SOL    HW258104   8.701   4.265   1.822 -1.1964  0.8258  1.2660
18746SOL     OW58105   1.324   4.707   3.327  0.1041  0.1144 -0.1393
18746SOL    HW158106   1.250   4.678   3.273 -0.1342 -1.3815  0.9228
18746SOL    HW258107   1.284   4.752   3.401  0.2224 -0.9022  0.5554
18747SOL     OW58108   3.589   2.659   1.910  0.1003 -0.7590 -0.3980
18747SOL    HW158109   3.642   2.647   1.989 -1.0385  1.5764  0.8513
18747SOL    HW258110   3.507   2.613   1.928 -0.7954  1.1062  0.5610
18748SOL     OW58111   8.178   6.149   1.370  0.3738  0.3999 -0.1649
18748SOL    HW158112   8.229   6.191   1.301  0.2468  0.1669 -0.4029
18748SOL    HW258113   8.216   6.061   1.377 -0.0517  0.1932 -0.4047
18749SOL     OW58114   1.454   5.241   3.135  0.4180  0.1560  0.3708
18749SOL    HW158115   1.386   5.181   3.166  0.5792 -0.6489 -0.7686
18749SOL    HW258116   1.532   5.215   3.185  0.4106 -0.3843  0.1114
18750SOL     OW58117   5.516   0.770   4.594  0.5642  0.7327 -0.6962
18750SOL    HW158118   5.435   0.810   4.564  0.4284  0.3428 -0.8547
18750SOL    HW258119   5.518   0.684   4.552 -0.9792 -1.0050  2.4235
18751SOL     OW58120   6.470   1.249   1.922 -0.3760 -0.3375  0.2887
18751SOL    HW158121   6.532   1.295   1.866  0.4341  0.6033  1.8995
18751SOL    HW258122   6.524   1.198   1.981 -1.1293  0.3018  1.5635
18752SOL     OW58123   8.182   3.221   4.825  0.7041  0.6072  0.0956
18752SOL    HW158124   8.130   3.296   4.795  2.2987  1.1791 -1.4490
18752SOL    HW258125   8.263   3.260   4.859  0.2776 -0.2673  2.3004
18753SOL     OW58126   8.572   3.740   7.541 -0.5614  0.4066  0.0649
18753SOL    HW158127   8.600   3.828   7.566 -0.8316  0.5963 -0.2996
18753SOL    HW258128   8.648   3.685   7.559 -1.2361  0.2507  2.8798
18754SOL     OW58129   0.327   3.179   0.630 -0.4109 -0.6621  0.6782
18754SOL    HW158130   0.240   3.210   0.605 -0.7077 -0.9902  1.2859
18754SOL    HW258131   0.360   3.247   0.689 -0.7917 -1.1667  1.4844
18755SOL     OW58132   7.391   5.144   2.986  0.1027  0.0923 -0.0725
18755SOL    HW158133   7.475   5.189   2.995  1.7014 -2.4029 -1.3340
18755SOL    HW258134   7.397   5.071   3.047 -1.4821  0.2370  0.2978
18756SOL     OW58135   4.779   7.785   8.288 -0.2330  0.1621 -0.4430
18756SOL    HW158136   4.808   7.809   8.376 -1.0175  1.7225 -0.5649
18756SOL    HW258137   4.742   7.866   8.253 -0.2289 -0.5210 -2.0917
18757SOL     OW58138   7.528   5.548   7.248  0.1889  0.2724 -0.0449
18757SOL    HW158139   7.457   5.610   7.231 -1.9611 -1.1782  2.7538
18757SOL    HW258140   7.586   5.594   7.308 -0.5722  0.1521  0.8054
18758SOL     OW58141   4.210   1.321   7.284  0.0944 -0.2592  0.2458
18758SOL    HW158142   4.185   1.259   7.352 -0.3479  1.6694  1.9722
18758SOL    HW258143   4.145   1.308   7.214  0.4322 -2.1420  0.2383
18759SOL     OW58144   6.394   3.554   3.421 -0.5304  0.1579  0.0515
18759SOL    HW158145   6.370   3.462   3.421  1.0049 -0.2890  1.5932
18759SOL    HW258146   6.480   3.557   3.380  0.3674  0.5749  1.8602
18760SOL     OW58147   1.257   7.112   5.606  0.2920 -0.1594  0.4386
18760SOL    HW158148   1.329   7.147   5.658  0.9261 -2.0570  0.9127
18760SOL    HW258149   1.286   7.025   5.579 -1.7922 -0.9711  0.6040
18761SOL     OW58150   0.231   2.002   4.132 -0.0212 -0.2847 -0.3886
18761SOL    HW158151   0.175   1.947   4.187 -0.5794  0.7565  0.1043
18761SOL    HW258152   0.173   2.071   4.099 -0.0253 -1.5257 -3.3305
18762SOL     OW58153   5.439   8.779   0.298  0.2225 -0.3358  0.0944
18762SOL    HW158154   5.354   8.822   0.307  0.3428 -0.1261  0.2519
18762SOL    HW258155   5.501   8.851   0.283  0.8229 -0.1394  2.9346
18763SOL     OW58156   8.901   0.829   6.437 -0.1386 -0.2900  0.6962
18763SOL    HW158157   8.983   0.858   6.476 -1.1693  2.9730  0.7277
18763SOL    HW258158   8.849   0.798   6.511  0.0541  0.2813  1.0734
18764SOL     OW58159   1.866   8.696   8.733 -0.2351  0.3828 -0.2055
18764SOL    HW158160   1.931   8.760   8.705  0.1470 -0.1260 -0.4881
18764SOL    HW258161   1.906   8.652   8.808 -1.1055  1.4890  0.9477
18765SOL     OW58162   0.719   7.702   6.318 -0.1024 -0.2681 -0.7641
18765SOL    HW158163   0.805   7.715   6.278 -0.0982  0.0060 -0.6686
18765SOL    HW258164   0.691   7.617   6.286 -1.2740  1.0246 -3.5347
18766SOL     OW58165   6.346   5.308   7.613 -0.0711  0.0295 -0.1336
18766SOL    HW158166   6.388   5.360   7.545 -0.0827 -0.1336 -0.2678
18766SOL    HW258167   6.361   5.356   7.694 -3.4297  2.3626 -0.6992
18767SOL     OW58168   2.261   0.762   6.258 -0.3165 -0.1644 -0.4874
18767SOL    HW158169   2.279   0.743   6.350  0.4448 -3.0055 -1.1122
18767SOL    HW258170   2.223   0.850   6.258 -1.1412 -0.3999  2.6188
18768SOL     OW58171   8.835   3.022   1.071  0.3308  0.5141  0.0577
18768SOL    HW158172   8.771   2.970   1.120  2.1065 -1.5075  0.3954
18768SOL    HW258173   8.835   3.107   1.114 -0.3829 -0.2194  1.5815
18769SOL     OW58174   3.204   0.935   3.794  0.2916 -0.0516 -0.2291
18769SOL    HW158175   3.164   0.960   3.877  2.0181  0.8663  0.3896
18769SOL    HW258176   3.220   0.841   3.802  1.9984  0.3157  1.2313
18770SOL     OW58177   3.827   0.739   4.452  0.1331 -0.5336 -0.4817
18770SOL    HW158178   3.805   0.681   4.524 -1.1423  0.5051 -0.0090
18770SOL    HW258179   3.837   0.681   4.376  2.3360 -1.7486  0.6244
18771SOL     OW58180   6.508   4.661   6.088 -0.0015  0.0048 -0.0302
18771SOL    HW158181   6.506   4.749   6.124 -0.4950  0.1494 -0.3944
18771SOL    HW258182   6.432   4.617   6.127 -0.1794 -0.0293 -0.4110
18772SOL     OW58183   7.871   0.993   1.077 -0.0741 -0.1851  0.5863
18772SOL    HW158184   7.829   0.910   1.102  0.0465 -0.2724  0.5027
18772SOL    HW258185   7.826   1.020   0.997  1.7548 -1.6250 -1.0122
18773SOL     OW58186   0.573   2.208   3.112 -0.8049  0.1545  0.2790
18773SOL    HW158187   0.586   2.218   3.206 -1.9255  1.0069  0.3706
18773SOL    HW258188   0.584   2.297   3.077  0.0981 -0.2390 -0.4735
18774SOL     OW58189   7.108   0.679   3.165  0.4670 -0.5349 -0.1095
18774SOL    HW158190   7.134   0.589   3.145 -0.3185 -0.6546 -0.6117
18774SOL    HW258191   7.144   0.695   3.253  0.9195 -1.2066 -0.1638
18775SOL     OW58192   7.952   5.137   6.556  0.0463  0.0881 -0.5680
18775SOL    HW158193   8.030   5.146   6.501  0.2779  0.9532 -0.1327
18775SOL    HW258194   7.981   5.081   6.629 -0.6751 -2.2946 -2.0180
18776SOL     OW58195   2.747   4.870   8.843  0.2795 -0.1560 -0.3167
18776SOL    HW158196   2.780   4.855   8.932 -1.1926 -1.9873 -0.0076
18776SOL    HW258197   2.720   4.783   8.813 -0.2109  0.5977 -2.1737
18777SOL     OW58198   1.558   6.247   6.238  0.0606 -1.2107  0.2922
18777SOL    HW158199   1.494   6.195   6.287 -0.6356 -0.0370  0.6774
18777SOL    HW258200   1.505   6.297   6.176  0.7784 -1.4525 -0.5325
18778SOL     OW58201   2.409   6.047   4.031  0.3984 -0.0003 -0.3870
18778SOL    HW158202   2.490   5.996   4.021  0.0390 -0.4936 -0.8921
18778SOL    HW258203   2.339   5.981   4.028  0.0495  0.1196  2.4925
18779SOL     OW58204   5.203   2.337   4.060 -0.1179 -1.1065 -0.1743
18779SOL    HW158205   5.289   2.333   4.019 -0.6608 -0.6264 -1.3750
18779SOL    HW258206   5.221   2.362   4.151  0.9785 -0.6614 -0.5029
18780SOL     OW58207   4.011   4.416   5.981  0.2608  0.4316 -0.4202
18780SOL    HW158208   4.058   4.334   5.989  0.2059  0.4896  0.6565
18780SOL    HW258209   4.001   4.447   6.071 -0.3101  1.2790 -0.7590
18781SOL     OW58210   6.637   8.848   1.603  0.0259  0.0925 -0.1839
18781SOL    HW158211   6.581   8.775   1.577  0.9092 -0.5599 -0.3222
18781SOL    HW258212   6.698   8.810   1.667  0.0893  0.8603  0.2181
18782SOL     OW58213   5.935   1.226   8.152  0.9690  0.4718  1.1965
18782SOL    HW158214   5.944   1.222   8.248  0.1060 -0.4196  1.2530
18782SOL    HW258215   5.964   1.140   8.122 -1.4947 -0.3154  0.9162
18783SOL     OW58216   4.025   4.248   0.327  0.1413 -0.2445 -0.2176
18783SOL    HW158217   3.974   4.168   0.344  1.3632 -0.9549  0.2699
18783SOL    HW258218   4.036   4.249   0.231 -2.5328  1.0689 -0.5774
18784SOL     OW58219   3.606   6.936   8.161 -0.1635 -0.0073  0.1094
18784SOL    HW158220   3.648   6.856   8.129  0.1368  0.3379 -0.3673
18784SOL    HW258221   3.552   6.966   8.088 -0.2820  0.2262  0.2901
18785SOL     OW58222   8.563   5.369   0.622 -0.0506 -0.4010 -0.0217
18785SOL    HW158223   8.549   5.311   0.547 -0.3555  0.3662 -0.5703
18785SOL    HW258224   8.654   5.353   0.648  0.7023  0.6953 -1.7878
18786SOL     OW58225   7.937   3.161   7.323 -0.3468  0.3243  0.8264
18786SOL    HW158226   7.946   3.256   7.336 -1.6440  0.2565  2.5930
18786SOL    HW258227   8.026   3.127   7.332  0.0103  1.2859  1.0554
18787SOL     OW58228   8.421   2.548   1.518  0.0395  0.5214  0.2724
18787SOL    HW158229   8.330   2.570   1.498 -0.3877 -0.8270  0.5803
18787SOL    HW258230   8.426   2.454   1.501  1.4484  0.6296  0.0257
18788SOL     OW58231   4.407   1.237   6.460  0.5720  0.0066  0.4239
18788SOL    HW158232   4.482   1.231   6.401 -0.0311 -0.6554 -0.2874
18788SOL    HW258233   4.445   1.264   6.544  1.5642 -0.0381  0.0019
18789SOL     OW58234   4.831   5.670   0.770  0.0783 -0.4270  0.1697
18789SOL    HW158235   4.735   5.681   0.768  0.0513 -0.5946  0.4842
18789SOL    HW258236   4.848   5.623   0.852  0.3662 -1.0876 -0.2641
18790SOL     OW58237   0.523   4.763   3.940 -0.2950  0.9292  0.0017
18790SOL    HW158238   0.525   4.698   4.009 -0.7398  0.0884 -0.7533
18790SOL    HW258239   0.430   4.784   3.930 -0.3401  0.3376 -0.9625
18791SOL     OW58240   3.998   4.285   3.957 -0.5116 -0.1480  0.1048
18791SOL    HW158241   3.979   4.350   3.890  0.2782 -0.9858 -0.9776
18791SOL    HW258242   3.948   4.208   3.931 -0.1295 -0.5090  0.4168
18792SOL     OW58243   4.667   7.592   4.188 -0.2477  0.5936 -0.0567
18792SOL    HW158244   4.670   7.659   4.256 -1.4485  1.1488 -0.5351
18792SOL    HW258245   4.663   7.640   4.106 -1.7692 -0.0287 -0.3785
18793SOL     OW58246   3.855   3.535   1.058  0.3416  0.0434  0.0050
18793SOL    HW158247   3.835   3.584   0.978 -1.4954  0.5270  0.7087
18793SOL    HW258248   3.818   3.448   1.042  0.1877  0.0667  0.2251
18794SOL     OW58249   2.306   7.563   7.414 -0.1576 -0.5399 -0.0654
18794SOL    HW158250   2.297   7.559   7.318 -0.9807  0.3605 -0.0504
18794SOL    HW258251   2.396   7.589   7.429 -0.2233  0.0317 -0.6310
18795SOL     OW58252   1.490   7.482   1.469 -0.6870  0.9369 -0.2083
18795SOL    HW158253   1.398   7.461   1.454 -1.3505  2.2172  1.6714
18795SOL    HW258254   1.538   7.414   1.422 -2.5608  0.8214 -2.0794
18796SOL     OW58255   5.642   4.793   2.926 -0.8250 -0.3986 -0.3046
18796SOL    HW158256   5.599   4.865   2.880  0.2811 -0.4411 -1.4871
18796SOL    HW258257   5.616   4.803   3.017 -2.2286  0.3557 -0.7582
18797SOL     OW58258   3.690   1.725   8.491 -0.3983  0.2531  0.3536
18797SOL    HW158259   3.699   1.681   8.576 -1.2118  0.7131  0.6874
18797SOL    HW258260   3.660   1.657   8.431  4.8147 -1.4710 -0.8802
18798SOL     OW58261   6.894   2.271   3.445 -0.3767  0.4146 -0.6036
18798SOL    HW158262   6.810   2.256   3.401 -0.3125 -0.8077 -0.3467
18798SOL    HW258263   6.900   2.199   3.508  0.2778  1.2243  0.2692
18799SOL     OW58264   0.193   3.979   5.943 -0.2371  0.6412 -0.0750
18799SOL    HW158265   0.253   4.046   5.910  0.7892  0.0627  0.5726
18799SOL    HW258266   0.124   3.974   5.877  0.4699  1.2476 -0.8770
18800SOL     OW58267   0.933   5.484   2.954 -0.3169 -0.1629 -0.2997
18800SOL    HW158268   0.886   5.414   2.910  0.2143 -0.4729 -0.3862
18800SOL    HW258269   0.988   5.439   3.018  1.0543  0.0375 -1.2883
18801SOL     OW58270   8.678   7.587   7.372 -0.1850 -0.0964 -0.1387
18801SOL    HW158271   8.666   7.632   7.456 -0.8261 -1.0147  0.2862
18801SOL    HW258272   8.635   7.643   7.308  1.1423  1.1067 -0.0347
18802SOL     OW58273   7.400   4.154   0.551  0.4835 -0.0742  0.0674
18802SOL    HW158274   7.394   4.107   0.467 -0.4223 -1.8809  1.1048
18802SOL    HW258275   7.372   4.091   0.616  0.1860  1.6342  1.6605
18803SOL     OW58276   4.506   5.105   7.244 -0.4144 -0.4014 -0.4200
18803SOL    HW158277   4.482   5.026   7.292 -0.7541  0.4080  0.7857
18803SOL    HW258278   4.485   5.177   7.304  1.7863  0.5164 -0.6738
18804SOL     OW58279   5.979   7.051   1.618 -0.5025 -0.3348  0.1302
18804SOL    HW158280   5.889   7.061   1.648 -1.2929 -1.3977 -1.7371
18804SOL    HW258281   5.978   7.085   1.528  1.1871  0.4629  0.3690
18805SOL     OW58282   7.671   2.330   5.559  0.5725  0.4926  0.5242
18805SOL    HW158283   7.726   2.329   5.481  0.3859  2.5557  0.3085
18805SOL    HW258284   7.670   2.422   5.587 -1.3478  0.2289  1.5222
18806SOL     OW58285   0.432   2.977   7.960  0.3347 -0.0179  0.0839
18806SOL    HW158286   0.353   2.965   7.907 -0.8315  0.2969  1.6841
18806SOL    HW258287   0.408   3.043   8.025  1.5037 -0.8251  1.3965
18807SOL     OW58288   0.084   3.223   1.053  0.0917  0.3054 -0.6028
18807SOL    HW158289   0.144   3.228   1.128 -0.8133 -1.0892  0.2682
18807SOL    HW258290   0.004   3.265   1.084 -0.2691 -0.2273 -0.8038
18808SOL     OW58291   2.959   6.090   2.163 -0.0484 -0.2276  0.4066
18808SOL    HW158292   2.925   6.023   2.222  1.3843 -0.9010  0.5213
18808SOL    HW258293   2.968   6.168   2.218 -1.8352  0.1290  0.2434
18809SOL     OW58294   5.834   1.480   2.442 -0.2572 -0.2656 -0.0602
18809SOL    HW158295   5.871   1.410   2.496  0.3353  0.2708  0.2335
18809SOL    HW258296   5.806   1.436   2.362  0.1379 -0.8378  0.1093
18810SOL     OW58297   2.677   2.617   0.251  0.1536 -0.1050 -0.6030
18810SOL    HW158298   2.647   2.546   0.308 -0.2279  0.6504  0.1572
18810SOL    HW258299   2.598   2.666   0.229  0.0945 -1.0564 -2.7991
18811SOL     OW58300   0.310   3.927   3.625 -0.8776 -0.1818  0.0595
18811SOL    HW158301   0.289   3.840   3.592 -2.4956 -0.5599  1.8791
18811SOL    HW258302   0.274   3.928   3.714  2.9512  0.8422  1.8068
18812SOL     OW58303   3.616   3.210   0.540  0.3900 -0.2374 -0.0590
18812SOL    HW158304   3.654   3.123   0.529 -0.4102 -0.7845  1.1890
18812SOL    HW258305   3.522   3.194   0.547  0.2484  0.7073  0.3831
18813SOL     OW58306   1.117   2.044   5.415  0.2541 -0.3737 -0.2381
18813SOL    HW158307   1.121   2.137   5.436 -0.8462 -0.1245 -1.0246
18813SOL    HW258308   1.042   2.036   5.356 -1.5592 -2.2231  2.1280
18814SOL     OW58309   8.212   0.283   0.099  0.2416 -0.5296 -1.1127
18814SOL    HW158310   8.290   0.315   0.146 -0.2082 -0.0205 -0.6920
18814SOL    HW258311   8.139   0.322   0.146 -0.2143  0.8296 -2.8487
18815SOL     OW58312   0.778   5.518   4.650  0.3043  0.2297  0.1426
18815SOL    HW158313   0.693   5.484   4.679 -0.3278  1.2387 -0.4695
18815SOL    HW258314   0.792   5.478   4.564  0.3533  0.2116  0.1592
18816SOL     OW58315   4.103   4.133   6.005  0.0736 -0.0002  0.0181
18816SOL    HW158316   4.043   4.074   6.051  0.1274 -0.3024 -0.2972
18816SOL    HW258317   4.186   4.123   6.052  0.1098 -0.2529 -0.0965
18817SOL     OW58318   4.294   3.145   0.860  0.6000 -0.5734 -0.3903
18817SOL    HW158319   4.325   3.074   0.915  2.3630 -1.2126 -2.1122
18817SOL    HW258320   4.263   3.103   0.779 -1.1729  0.3956 -0.2849
18818SOL     OW58321   5.370   0.577   7.904  0.3478  0.6992 -0.1793
18818SOL    HW158322   5.282   0.567   7.942  0.1486 -1.5171 -1.0387
18818SOL    HW258323   5.368   0.663   7.861 -1.2675  0.8536  0.1394
18819SOL     OW58324   4.595   0.029   0.234 -0.3956  0.7973 -0.5197
18819SOL    HW158325   4.567  -0.047   0.183  0.1825  1.7717 -2.3787
18819SOL    HW258326   4.513   0.076   0.251 -0.8712 -0.5880  1.3553
18820SOL     OW58327   4.174   4.984   0.060  0.2824  0.0588  0.0008
18820SOL    HW158328   4.139   5.068   0.030  0.7056 -0.4490 -2.1100
18820SOL    HW258329   4.268   5.001   0.073  0.4339 -0.1407 -0.7650
18821SOL     OW58330   4.945   1.268   1.245 -0.0675 -0.3876 -0.3365
18821SOL    HW158331   5.038   1.267   1.224 -0.2686 -1.0500 -1.2545
18821SOL    HW258332   4.902   1.297   1.164 -0.6405  0.2917  0.1903
18822SOL     OW58333   2.683   1.075   6.165 -0.6967  0.4800 -0.0217
18822SOL    HW158334   2.760   1.095   6.112 -0.3860 -0.5147  0.0335
18822SOL    HW258335   2.649   0.994   6.127 -1.4842  0.7027  0.2061
18823SOL     OW58336   8.616   8.017   8.306 -0.1827  0.2452  0.5556
18823SOL    HW158337   8.583   7.963   8.234  0.8872  0.9245 -0.5040
18823SOL    HW258338   8.582   8.105   8.287  1.5187  0.8023 -0.1587
18824SOL     OW58339   1.205   4.940   0.685  0.6534 -0.3920  0.0931
18824SOL    HW158340   1.127   4.894   0.715  1.3671 -1.6560  0.0553
18824SOL    HW258341   1.175   4.991   0.609  0.0060 -1.3528 -0.3113
18825SOL     OW58342   4.364   5.759   4.080  0.2869 -0.2006 -0.0314
18825SOL    HW158343   4.412   5.817   4.140 -0.9093 -0.6283  1.4040
18825SOL    HW258344   4.276   5.797   4.076  0.5058  0.1847 -2.0805
18826SOL     OW58345   0.213   2.673   5.801 -1.0667 -0.1562 -0.0395
18826SOL    HW158346   0.218   2.731   5.725 -0.6959  2.7363  2.0165
18826SOL    HW258347   0.122   2.644   5.804 -1.4345  0.8829 -0.7554
18827SOL     OW58348   0.816   6.315   7.805 -0.2668 -0.3399 -0.3757
18827SOL    HW158349   0.898   6.364   7.812 -0.7781  0.2719  2.5108
18827SOL    HW258350   0.791   6.323   7.713  1.4385  1.9078 -0.7170
18828SOL     OW58351   4.628   8.364   8.214 -0.0099  1.2150 -0.2385
18828SOL    HW158352   4.690   8.376   8.142 -0.0996 -3.0928 -1.3567
18828SOL    HW258353   4.543   8.356   8.171 -0.0460 -1.5607  0.1699
18829SOL     OW58354   3.331   4.036   5.172  0.5099 -0.1560 -0.3036
18829SOL    HW158355   3.246   3.994   5.157 -0.6553  1.7128  0.5884
18829SOL    HW258356   3.370   3.986   5.243  0.3144 -1.2441 -0.9475
18830SOL     OW58357   2.579   6.924   1.045  0.1167 -0.4247  0.9062
18830SOL    HW158358   2.634   6.992   1.005 -0.7360 -0.7407 -0.9031
18830SOL    HW258359   2.490   6.951   1.027 -0.3095 -0.7223  2.4550
18831SOL     OW58360   3.683   2.456   8.530  0.1959 -0.1400  0.3680
18831SOL    HW158361   3.745   2.504   8.586 -0.3308 -1.4485  2.1595
18831SOL    HW258362   3.685   2.366   8.563 -0.8753 -0.7482 -1.1194
18832SOL     OW58363   3.238   5.781   4.930  0.0494 -1.0468  0.7862
18832SOL    HW158364   3.190   5.698   4.941 -1.0665 -0.5709 -0.2483
18832SOL    HW258365   3.300   5.763   4.859 -1.5706 -0.4689 -0.8493
18833SOL     OW58366   1.344   4.725   2.308 -0.5334 -0.5148  0.5103
18833SOL    HW158367   1.434   4.693   2.295 -0.9243 -1.8266  0.9367
18833SOL    HW258368   1.308   4.668   2.376 -1.5667  0.2761  0.6445
18834SOL     OW58369   8.259   6.317   4.146  0.0780 -0.1322  0.3872
18834SOL    HW158370   8.205   6.239   4.156  0.5962 -0.6603 -0.7242
18834SOL    HW258371   8.197   6.387   4.127 -0.2784 -0.5970 -0.1979
18835SOL     OW58372   7.684   0.445   7.047  0.0984 -0.3437  0.3481
18835SOL    HW158373   7.676   0.529   7.093 -1.9186 -0.8450  1.0407
18835SOL    HW258374   7.728   0.466   6.965  0.0511  1.3151  0.7111
18836SOL     OW58375   8.430   3.089   0.723  0.3378  0.0407 -0.1263
18836SOL    HW158376   8.486   3.092   0.645  0.7478 -0.8388  0.1198
18836SOL    HW258377   8.487   3.054   0.791 -0.7393 -1.7457 -0.0924
18837SOL     OW58378   4.426   8.666   2.571 -0.7873 -0.6234  0.3328
18837SOL    HW158379   4.391   8.750   2.601 -1.3264 -0.7229 -0.0149
18837SOL    HW258380   4.452   8.683   2.480  0.5180 -0.4181  0.7157
18838SOL     OW58381   7.243   5.837   8.534 -0.0788  0.5900  0.2355
18838SOL    HW158382   7.338   5.830   8.522 -0.2679  0.0230 -1.0845
18838SOL    HW258383   7.227   5.803   8.622  0.9158  0.4672  0.3786
18839SOL     OW58384   8.478   1.301   2.474  0.0567  0.6054  0.6504
18839SOL    HW158385   8.518   1.229   2.424 -0.3981  0.8048 -0.0185
18839SOL    HW258386   8.469   1.372   2.410 -1.9767  0.3413  0.5842
18840SOL     OW58387   1.366   5.804   7.759 -0.4047  0.2288 -0.1467
18840SOL    HW158388   1.402   5.727   7.714  1.5884  1.1129 -0.1907
18840SOL    HW258389   1.392   5.792   7.850  1.3779  1.5647 -0.4170
18841SOL     OW58390   6.533   3.940   4.910  0.2153  0.4424 -0.4729
18841SOL    HW158391   6.460   3.910   4.855  0.9249 -0.1353 -1.1384
18841SOL    HW258392   6.500   3.935   4.999  0.0532 -1.7480 -0.5943
18842SOL     OW58393   7.305   5.223   2.231  0.1257  0.7920  0.1124
18842SOL    HW158394   7.377   5.192   2.177  0.0142  1.3058 -0.3351
18842SOL    HW258395   7.285   5.310   2.197 -0.6426  0.6912  0.2891
18843SOL     OW58396   1.901   8.192   2.880 -0.4404 -0.3983  0.0395
18843SOL    HW158397   1.941   8.242   2.951  0.7583 -1.1956 -0.0548
18843SOL    HW258398   1.855   8.258   2.828 -0.6067  0.3151  1.0507
18844SOL     OW58399   2.221   4.485   4.741  0.5650  0.2134 -0.0088
18844SOL    HW158400   2.314   4.470   4.759 -0.0033 -0.6403  2.5647
18844SOL    HW258401   2.212   4.580   4.744  1.3787  0.3306 -0.6136
18845SOL     OW58402   7.538   6.797   6.871 -0.1931 -0.2985  0.0427
18845SOL    HW158403   7.599   6.741   6.919  0.9015  0.2097 -0.6914
18845SOL    HW258404   7.549   6.884   6.909 -2.4667 -0.6530  1.7189
18846SOL     OW58405   6.240   7.422   1.074 -0.8593 -0.1321  0.6498
18846SOL    HW158406   6.178   7.482   1.034  0.2724  0.7765  0.1964
18846SOL    HW258407   6.190   7.376   1.142 -1.6237  1.7360  1.4108
18847SOL     OW58408   3.463   3.887   8.467  0.3507  0.1498 -1.3433
18847SOL    HW158409   3.467   3.802   8.422  1.2900  0.4785 -1.9065
18847SOL    HW258410   3.531   3.940   8.424  1.0539  0.5876  0.2491
18848SOL     OW58411   0.122   1.812   0.468  0.0171 -0.3825  0.2317
18848SOL    HW158412   0.183   1.861   0.523  1.6439 -1.7640 -0.2319
18848SOL    HW258413   0.144   1.720   0.484 -1.7763 -0.9204 -0.1764
18849SOL     OW58414   2.452   2.571   7.356  0.0579  0.1188  0.2894
18849SOL    HW158415   2.363   2.573   7.391  0.3847 -0.3097  1.1734
18849SOL    HW258416   2.494   2.498   7.401  1.6078  1.8163  1.7771
18850SOL     OW58417   1.751   0.321   0.155 -0.7193  0.0797 -0.1926
18850SOL    HW158418   1.699   0.399   0.175  0.8907  0.8199  1.4055
18850SOL    HW258419   1.733   0.262   0.228  2.2945  1.2639  1.7049
18851SOL     OW58420   7.097   4.418   7.390 -0.1949  0.4231  0.1928
18851SOL    HW158421   7.066   4.508   7.398  1.9850  1.4703 -1.7346
18851SOL    HW258422   7.128   4.412   7.299  0.0370 -2.1789  0.3727
18852SOL     OW58423   1.467   1.886   7.756  0.1682  0.2855 -0.4684
18852SOL    HW158424   1.541   1.936   7.789  1.0608  0.6790 -2.8699
18852SOL    HW258425   1.490   1.795   7.772  1.3667  0.3881 -1.4858
18853SOL     OW58426   7.367   0.042   0.965 -0.0756 -0.6113  0.1787
18853SOL    HW158427   7.401   0.020   0.878 -0.3999  2.1601 -0.7587
18853SOL    HW258428   7.438   0.019   1.025  1.5393  0.4572 -1.2172
18854SOL     OW58429   0.877   5.792   7.310  0.6082 -0.1701 -0.0736
18854SOL    HW158430   0.824   5.731   7.259  0.1453 -0.7595  1.0892
18854SOL    HW258431   0.909   5.855   7.245 -1.9234  0.5312 -0.7917
18855SOL     OW58432   7.039   6.835   3.356  0.2476  0.7805  0.1969
18855SOL    HW158433   7.050   6.830   3.451  1.3349  1.6441  0.1321
18855SOL    HW258434   6.945   6.844   3.343 -0.0836 -0.9575  1.0967
18856SOL     OW58435   1.755   6.854   1.799 -0.0217 -0.2044  0.2840
18856SOL    HW158436   1.775   6.763   1.780  1.7565  0.1504  0.2336
18856SOL    HW258437   1.661   6.863   1.780  0.4081 -1.2447 -2.9696
18857SOL     OW58438   1.903   1.324   3.402  0.0321  0.3822 -0.1368
18857SOL    HW158439   1.931   1.249   3.454  0.9215 -0.1195 -1.2982
18857SOL    HW258440   1.894   1.395   3.466  2.5744  0.1975  0.5564
18858SOL     OW58441   0.935   8.443   6.763  0.0553 -0.1043  0.1450
18858SOL    HW158442   1.030   8.451   6.777  0.1261  0.2726 -0.4732
18858SOL    HW258443   0.895   8.477   6.843  0.4403 -2.0700  1.2331
18859SOL     OW58444   7.733   2.762   1.075  0.2413 -0.0239  0.3777
18859SOL    HW158445   7.734   2.845   1.123 -2.1654 -0.0440  0.5551
18859SOL    HW258446   7.700   2.698   1.138 -0.1428 -0.6540 -0.4492
18860SOL     OW58447   3.480   2.716   7.793 -0.0884 -0.1918 -0.0598
18860SOL    HW158448   3.501   2.675   7.708 -0.3260  0.0202 -0.2210
18860SOL    HW258449   3.404   2.668   7.825  0.5187 -0.8507  0.4491
18861SOL     OW58450   3.731   1.992   5.786  0.4887 -0.0578 -0.1606
18861SOL    HW158451   3.781   1.998   5.868 -1.3571  1.0200  0.9384
18861SOL    HW258452   3.763   2.065   5.733 -0.5380  1.2038  0.9169
18862SOL     OW58453   0.229   0.758   1.229 -0.3007  0.1649  0.0656
18862SOL    HW158454   0.152   0.812   1.215 -1.2111 -0.9026  0.8049
18862SOL    HW258455   0.204   0.671   1.197  0.0011 -0.5971  1.7638
18863SOL     OW58456   7.033   8.669   5.951 -0.4187 -0.1101  0.1963
18863SOL    HW158457   7.027   8.576   5.930  2.0248 -0.4936  0.8448
18863SOL    HW258458   6.987   8.713   5.880 -1.1690 -1.7778 -0.3998
18864SOL     OW58459   7.830   0.591   7.807  0.2327 -0.1509 -0.1278
18864SOL    HW158460   7.773   0.667   7.802 -0.3123 -0.4768  0.7869
18864SOL    HW258461   7.916   0.628   7.829 -0.1032  0.1926  0.6787
18865SOL     OW58462   2.225   0.675   8.204 -0.0920 -0.2162  0.3238
18865SOL    HW158463   2.225   0.769   8.224 -0.0918 -0.2349  0.4155
18865SOL    HW258464   2.191   0.634   8.284  2.4276 -0.5160  1.3242
18866SOL     OW58465   1.946   1.500   5.842 -0.7525  0.0782 -0.2561
18866SOL    HW158466   1.872   1.552   5.872 -1.3956 -1.1232  0.3008
18866SOL    HW258467   1.947   1.423   5.899  1.9723  0.8344  0.8889
18867SOL     OW58468   4.538   5.246   1.276  0.4605 -0.0773 -0.4939
18867SOL    HW158469   4.492   5.166   1.298 -0.4730  0.5734  0.0025
18867SOL    HW258470   4.518   5.306   1.348 -1.3792  1.6039 -2.2979
18868SOL     OW58471   1.504   2.338   6.864 -0.3165  0.7795  0.0010
18868SOL    HW158472   1.569   2.388   6.815 -0.3098  0.8048  0.0358
18868SOL    HW258473   1.539   2.334   6.953 -0.0414  0.2262 -0.1299
18869SOL     OW58474   2.209   4.528   8.964  0.4326 -0.1514 -0.0182
18869SOL    HW158475   2.200   4.492   9.052  1.3034  0.0023  0.1369
18869SOL    HW258476   2.152   4.605   8.964  1.9028  0.9888  1.0463
18870SOL     OW58477   6.594   6.490   3.568  0.3913  0.1502 -0.1279
18870SOL    HW158478   6.499   6.485   3.572  0.5110 -1.9382  0.9791
18870SOL    HW258479   6.621   6.518   3.655  0.8759 -1.1626  0.1534
18871SOL     OW58480   2.895   1.074   0.843  0.4526 -0.7148  0.1869
18871SOL    HW158481   2.879   1.169   0.848 -0.6877 -0.8542 -0.4135
18871SOL    HW258482   2.911   1.048   0.933 -0.2700 -0.1098  0.5011
18872SOL     OW58483   7.220   4.657   5.465  0.0167 -0.1720 -0.3107
18872SOL    HW158484   7.288   4.607   5.420  0.6972 -0.5080  1.0252
18872SOL    HW258485   7.238   4.644   5.558 -0.3419  1.7939  0.0942
18873SOL     OW58486   8.807   8.248   6.904  0.8397  0.3090  0.0808
18873SOL    HW158487   8.836   8.330   6.943  0.8836  0.1107  0.4718
18873SOL    HW258488   8.744   8.212   6.967 -0.2057  0.6891 -0.7119
18874SOL     OW58489   0.947   1.306   6.519  0.0621  0.2581  0.4301
18874SOL    HW158490   0.940   1.335   6.610 -1.2844  0.0834  0.3940
18874SOL    HW258491   0.896   1.369   6.469 -1.4041 -1.0953  0.1356
18875SOL     OW58492   1.745   7.866   7.141 -0.3685  0.3679 -0.1340
18875SOL    HW158493   1.651   7.846   7.145  0.2987 -3.3683  0.4134
18875SOL    HW258494   1.778   7.807   7.073  1.5451  1.9967 -0.6891
18876SOL     OW58495   5.535   0.703   3.057 -0.0847 -0.1466 -0.3326
18876SOL    HW158496   5.469   0.757   3.015 -0.2283  1.0269  1.3124
18876SOL    HW258497   5.515   0.614   3.029 -2.3186  0.1882  0.0632
18877SOL     OW58498   4.671   3.571   2.373 -0.0653 -0.3474 -0.3954
18877SOL    HW158499   4.584   3.550   2.340 -0.2561  2.0482 -1.6191
18877SOL    HW258500   4.730   3.549   2.301  0.3236 -1.5163  0.2552
18878SOL     OW58501   1.870   6.601   8.671 -0.4463  0.2605  0.0046
18878SOL    HW158502   1.951   6.595   8.620 -0.5934 -1.9539 -0.0918
18878SOL    HW258503   1.849   6.510   8.692 -2.3948  0.8596  0.8700
18879SOL     OW58504   4.224   2.802   4.225 -0.4986  0.0089  0.2053
18879SOL    HW158505   4.268   2.746   4.162 -1.1561 -1.6291  1.1471
18879SOL    HW258506   4.197   2.879   4.174 -0.7930 -1.1349 -1.4382
18880SOL     OW58507   1.740   5.997   3.374 -1.1177 -0.2187 -0.0964
18880SOL    HW158508   1.702   5.991   3.461 -0.9446 -1.1456 -0.0746
18880SOL    HW258509   1.672   5.965   3.315 -0.5392 -1.5108 -0.0934
18881SOL     OW58510   2.607   6.563   8.342 -0.0349  0.1656  0.7073
18881SOL    HW158511   2.686   6.514   8.365  0.7126  0.8519 -0.3063
18881SOL    HW258512   2.596   6.627   8.411  0.3856  0.1617  0.7775
18882SOL     OW58513   0.714   4.819   4.850 -0.8016  0.0686 -0.1257
18882SOL    HW158514   0.796   4.795   4.892 -1.0375 -2.6770 -1.0639
18882SOL    HW258515   0.739   4.852   4.764 -0.5769  1.9127  0.5967
18883SOL     OW58516   3.090   4.498   5.605  0.3770 -0.1731 -0.1326
18883SOL    HW158517   3.151   4.424   5.598  0.6774 -0.0783  1.1416
18883SOL    HW258518   3.072   4.523   5.515  0.2121 -1.8473 -0.6028
18884SOL     OW58519   7.008   5.054   3.404  0.0985  0.0409 -0.1245
18884SOL    HW158520   6.999   5.077   3.312  0.3555  0.2902 -0.0875
18884SOL    HW258521   7.016   5.138   3.449  0.1037 -0.0854  0.1116
18885SOL     OW58522   6.496   4.960   4.887 -0.7679  0.3692  0.2333
18885SOL    HW158523   6.587   4.937   4.909 -0.5307 -0.7841 -1.7595
18885SOL    HW258524   6.444   4.916   4.953  0.0898  0.9830  1.3639
18886SOL     OW58525   1.401   3.791   7.938 -0.2955 -0.0037 -0.1726
18886SOL    HW158526   1.448   3.827   8.013  0.3985 -1.5934  0.1994
18886SOL    HW258527   1.330   3.853   7.922  0.2021  0.9388  1.0949
18887SOL     OW58528   8.261   4.158   7.948 -0.0527 -0.0612  0.4354
18887SOL    HW158529   8.252   4.216   8.024 -0.6936  1.1091 -0.4846
18887SOL    HW258530   8.187   4.182   7.892  0.1475 -1.2190 -0.3509
18888SOL     OW58531   4.070   2.169   2.859 -0.1436 -0.3754  0.1429
18888SOL    HW158532   4.166   2.162   2.857  0.0365  1.5964 -1.6438
18888SOL    HW258533   4.050   2.189   2.950  1.4930  2.2221  0.0466
18889SOL     OW58534   6.278   5.462   1.240 -0.3302 -0.1287 -0.1012
18889SOL    HW158535   6.365   5.453   1.202  0.3741  1.9542  0.8340
18889SOL    HW258536   6.267   5.556   1.251 -3.4436 -0.1856 -1.7521
18890SOL     OW58537   7.213   0.098   1.839  0.0530  0.3362  0.0480
18890SOL    HW158538   7.135   0.098   1.783  0.6517  0.5155 -0.8212
18890SOL    HW258539   7.260   0.018   1.814  1.0268  1.1284 -0.7379
18891SOL     OW58540   7.654   0.389   5.398  0.2742  0.3201  0.2442
18891SOL    HW158541   7.563   0.405   5.375  0.4939  1.0686 -0.1388
18891SOL    HW258542   7.705   0.430   5.327  0.8945 -0.8496 -0.0089
18892SOL     OW58543   6.457   4.800   6.636  0.1463 -0.0402 -0.3139
18892SOL    HW158544   6.364   4.778   6.630  0.2092 -0.0786 -1.5462
18892SOL    HW258545   6.458   4.896   6.633  0.1388 -0.0393 -0.2835
18893SOL     OW58546   4.254   0.623   3.210 -0.5776  0.3983 -0.6150
18893SOL    HW158547   4.281   0.655   3.124 -0.3291 -0.4708 -0.8671
18893SOL    HW258548   4.327   0.567   3.238  0.1913  2.1140  0.9737
18894SOL     OW58549   4.455   5.292   7.448 -0.4690 -0.3239  0.2210
18894SOL    HW158550   4.548   5.313   7.458  0.0345 -2.0896 -0.3527
18894SOL    HW258551   4.420   5.361   7.392  0.5208  0.2933  0.3429
18895SOL     OW58552   3.614   3.970   8.100  0.0630  0.1033 -0.5366
18895SOL    HW158553   3.519   3.974   8.111 -0.0201  1.3381 -1.4457
18895SOL    HW258554   3.635   3.877   8.108 -0.9174  0.0118  1.7695
18896SOL     OW58555   4.947   7.792   2.684  0.0572 -0.0571  0.7738
18896SOL    HW158556   4.981   7.864   2.632 -0.1804 -0.9915 -0.7617
18896SOL    HW258557   4.854   7.788   2.662 -0.5986  0.9642  3.0893
18897SOL     OW58558   7.780   1.109   0.858 -0.1444  0.6419 -0.3696
18897SOL    HW158559   7.783   1.163   0.779  0.6196  0.9184 -0.1577
18897SOL    HW258560   7.695   1.128   0.897 -0.7325  0.1555 -1.3541
18898SOL     OW58561   4.839   0.295   2.706  0.8036 -0.1626 -0.4284
18898SOL    HW158562   4.875   0.320   2.621 -0.7252  1.0193 -0.7663
18898SOL    HW258563   4.774   0.229   2.686 -0.0709  0.6302 -0.2860
18899SOL     OW58564   5.351   4.779   5.785 -0.4126  0.5307  0.0018
18899SOL    HW158565   5.427   4.770   5.729 -2.0066  0.8349 -2.3582
18899SOL    HW258566   5.380   4.834   5.858  1.1897  2.0695 -1.7048
18900SOL     OW58567   8.762   1.763   7.322 -0.1881  0.3521  0.4420
18900SOL    HW158568   8.762   1.696   7.254 -0.8422  0.8748 -0.0820
18900SOL    HW258569   8.789   1.843   7.277 -0.4053  0.6554  0.8410
18901SOL     OW58570   4.857   5.619   3.332  0.5267 -0.1110 -0.1308
18901SOL    HW158571   4.870   5.653   3.420 -0.3633 -1.0883  0.3977
18901SOL    HW258572   4.763   5.599   3.328  0.3954  0.6838 -1.5773
18902SOL     OW58573   3.277   8.714   7.221  0.3974  0.6825 -0.0564
18902SOL    HW158574   3.300   8.680   7.135  0.1604  0.2269  0.0573
18902SOL    HW258575   3.264   8.636   7.276  1.3853  0.9722  0.6187
18903SOL     OW58576   2.428   7.162   5.190  0.4287 -0.0284  0.0308
18903SOL    HW158577   2.345   7.127   5.158  1.0609 -0.8302 -0.7799
18903SOL    HW258578   2.403   7.220   5.262 -0.9815  1.0497 -1.2394
18904SOL     OW58579   2.082   6.087   2.986  0.8872 -0.2900  0.2425
18904SOL    HW158580   2.015   6.132   2.935  0.6952 -0.6162  0.2088
18904SOL    HW258581   2.147   6.155   3.005  0.4111  0.0886  0.5141
18905SOL     OW58582   5.707   5.103   2.156 -0.2448 -0.0129 -0.1095
18905SOL    HW158583   5.703   5.009   2.136  0.1000 -0.0492 -0.0260
18905SOL    HW258584   5.774   5.109   2.224 -0.2111  0.3017 -0.1713
18906SOL     OW58585   8.482   2.063   6.121  0.3959  0.3504  0.2227
18906SOL    HW158586   8.394   2.028   6.134 -0.5028  2.9232  1.6407
18906SOL    HW258587   8.530   2.037   6.200  0.5582  0.0148  0.0180
18907SOL     OW58588   1.286   4.147   7.134  0.4380 -0.4993  0.0994
18907SOL    HW158589   1.290   4.071   7.075  1.3534 -1.4731  1.3708
18907SOL    HW258590   1.377   4.178   7.138  0.1974  0.2029  0.2046
18908SOL     OW58591   2.698   8.619   0.679  0.5120  0.1928  0.1160
18908SOL    HW158592   2.682   8.542   0.733 -0.2203  0.1429 -0.1652
18908SOL    HW258593   2.749   8.587   0.605  0.2135 -0.0175  0.0033
18909SOL     OW58594   6.535   7.849   8.728  0.5778 -0.7245 -0.2318
18909SOL    HW158595   6.554   7.814   8.815 -0.8436  0.0167  0.3985
18909SOL    HW258596   6.447   7.817   8.708 -0.6929  2.1814  0.2777
18910SOL     OW58597   2.275   5.864   4.298 -0.2796  0.1992  0.6992
18910SOL    HW158598   2.242   5.867   4.208  0.7045 -2.4098  0.1651
18910SOL    HW258599   2.261   5.953   4.331  0.1641  1.5235 -2.3033
18911SOL     OW58600   7.442   8.698   2.410 -0.8570 -0.8755 -0.0206
18911SOL    HW158601   7.359   8.659   2.385 -2.1652  0.5321  1.8555
18911SOL    HW258602   7.426   8.792   2.410  1.3006 -0.4390 -1.3898
18912SOL     OW58603   7.835   7.780   8.629 -0.1039  0.0927  0.0606
18912SOL    HW158604   7.883   7.854   8.666  0.7039  0.1259 -1.0200
18912SOL    HW258605   7.862   7.705   8.682 -1.3432  0.6102  1.5266
18913SOL     OW58606   4.300   1.439   3.320 -0.1546  0.3614  0.0392
18913SOL    HW158607   4.291   1.407   3.230 -0.8606 -1.4135  0.7097
18913SOL    HW258608   4.394   1.434   3.337 -0.2473 -1.4765  0.1364
18914SOL     OW58609   0.951   5.764   6.407  0.5426 -0.3011 -0.0612
18914SOL    HW158610   0.900   5.811   6.473 -1.0619  0.1207 -1.5295
18914SOL    HW258611   0.912   5.676   6.405  1.2859 -0.6489  0.2694
18915SOL     OW58612   7.988   0.430   5.052 -0.1111 -0.3103 -0.1791
18915SOL    HW158613   7.925   0.502   5.044  0.2358 -0.1549 -1.9181
18915SOL    HW258614   7.935   0.351   5.047 -0.1163 -0.2667 -4.3193
18916SOL     OW58615   2.739   7.376   1.275  0.2858 -0.1200  0.9704
18916SOL    HW158616   2.744   7.466   1.242  1.9020  0.1574  1.8967
18916SOL    HW258617   2.816   7.333   1.239 -1.1796 -1.5944 -0.6283
18917SOL     OW58618   2.131   4.486   6.658  0.7091 -0.0689 -0.1367
18917SOL    HW158619   2.212   4.535   6.667 -0.1457  1.0489  2.5936
18917SOL    HW258620   2.143   4.409   6.713 -0.6704  1.0556  1.8438
18918SOL     OW58621   5.158   0.696   3.663 -0.1591  0.9406 -0.5509
18918SOL    HW158622   5.077   0.708   3.713  0.1446  0.6828  0.0069
18918SOL    HW258623   5.162   0.602   3.647  0.7054  0.7660  0.5847
18919SOL     OW58624   8.154   4.139   7.115 -0.1010 -1.2784 -0.3752
18919SOL    HW158625   8.095   4.065   7.101  0.1204 -1.7839  1.1078
18919SOL    HW258626   8.102   4.216   7.093 -0.4127 -1.8472 -1.7136
18920SOL     OW58627   2.071   7.870   5.630  0.5911 -0.1811  0.2657
18920SOL    HW158628   2.076   7.964   5.609  2.4674 -0.4281 -0.6270
18920SOL    HW258629   2.157   7.849   5.667 -0.2166 -1.3148  1.5652
18921SOL     OW58630   4.942   5.183   7.520 -0.2416 -0.1570 -0.0993
18921SOL    HW158631   4.956   5.111   7.581 -2.4178 -1.4759 -1.0345
18921SOL    HW258632   4.969   5.261   7.568  0.8254 -1.4287  1.4672
18922SOL     OW58633   5.961   8.631   1.702  0.3583 -0.1799  0.0231
18922SOL    HW158634   5.937   8.538   1.702  1.4784 -0.5036  1.8815
18922SOL    HW258635   5.881   8.676   1.674  0.4033 -1.7810 -3.1002
18923SOL     OW58636   4.888   0.571   8.082 -0.4526 -0.2095  0.0908
18923SOL    HW158637   4.980   0.548   8.070 -0.3671  0.0743  0.2077
18923SOL    HW258638   4.889   0.640   8.148 -0.7670 -0.3684  0.2657
18924SOL     OW58639   5.738   3.167   1.208 -0.6410 -0.1275  0.0026
18924SOL    HW158640   5.795   3.090   1.215  0.3809  0.7220  1.9323
18924SOL    HW258641   5.649   3.133   1.215 -0.2687 -1.2468 -0.5149
18925SOL     OW58642   1.642   2.845   0.175 -0.4179  0.1906 -0.6376
18925SOL    HW158643   1.716   2.836   0.235  0.0821  0.2328 -1.2433
18925SOL    HW258644   1.570   2.875   0.231  0.1624  0.6815 -0.1380
18926SOL     OW58645   2.846   0.414   1.253  0.2024 -0.4818 -0.4272
18926SOL    HW158646   2.818   0.505   1.248 -1.5314 -0.8916  0.8223
18926SOL    HW258647   2.932   0.417   1.295  0.9543  0.6467 -1.9334
18927SOL     OW58648   5.809   6.583   8.886 -0.2480 -0.1351  0.1722
18927SOL    HW158649   5.781   6.668   8.852  1.8871  1.0633  1.2726
18927SOL    HW258650   5.742   6.560   8.951 -1.2202  0.3184 -0.6306
18928SOL     OW58651   0.850   6.291   0.654  0.6916 -0.2911  0.4008
18928SOL    HW158652   0.831   6.273   0.562 -1.6593 -0.1224  0.7724
18928SOL    HW258653   0.919   6.357   0.652  1.1588 -0.7721 -1.2109
18929SOL     OW58654   2.044   2.963   5.582  0.0808  0.2259 -0.3766
18929SOL    HW158655   2.049   2.892   5.518 -0.6329 -1.0426  0.9282
18929SOL    HW258656   1.956   2.999   5.570  0.3121  0.6712 -0.7859
18930SOL     OW58657   1.887   4.345   4.761  0.2945  0.0560  0.6203
18930SOL    HW158658   1.909   4.318   4.850 -1.5193 -0.7012  0.8911
18930SOL    HW258659   1.903   4.267   4.707 -0.8215 -0.2556  0.6991
18931SOL     OW58660   8.789   7.490   6.349  0.3179  0.2956  0.0946
18931SOL    HW158661   8.785   7.395   6.334 -1.2080  0.5681 -1.4481
18931SOL    HW258662   8.729   7.527   6.285  0.1102  2.2594  1.3582
18932SOL     OW58663   5.129   0.699   6.305 -0.4773 -0.0754  0.3078
18932SOL    HW158664   5.091   0.622   6.349  0.2925 -0.4486  0.3282
18932SOL    HW258665   5.220   0.701   6.334 -0.2876  0.4052 -0.3011
18933SOL     OW58666   2.976   6.717   5.285 -0.4794 -0.4064 -0.1654
18933SOL    HW158667   3.053   6.679   5.242 -0.0323 -0.3067  0.5275
18933SOL    HW258668   2.904   6.698   5.226  0.2910  0.7407 -1.5422
18934SOL     OW58669   2.772   6.033   6.041 -0.5615  1.1244  0.7621
18934SOL    HW158670   2.848   6.047   5.984  0.4878  0.9828  2.0784
18934SOL    HW258671   2.760   6.116   6.086  0.4341  0.4128  2.4248
18935SOL     OW58672   5.750   7.923   6.465 -0.3536  0.7068 -0.0807
18935SOL    HW158673   5.711   8.008   6.446  0.4797  1.2819  0.6918
18935SOL    HW258674   5.713   7.899   6.550 -1.0729 -0.0154 -0.5798
18936SOL     OW58675   5.808   3.316   7.981 -0.2348 -0.0526 -0.1176
18936SOL    HW158676   5.731   3.269   7.950 -0.3626 -0.9785  1.5074
18936SOL    HW258677   5.787   3.339   8.072  0.2322  2.2860 -0.5206
18937SOL     OW58678   2.051   0.451   1.127 -0.0140 -0.0786  0.5880
18937SOL    HW158679   2.079   0.510   1.197  0.4658  0.7386 -0.2822
18937SOL    HW258680   2.039   0.507   1.050  0.4734 -1.1036 -0.2622
18938SOL     OW58681   4.798   4.097   3.027  0.5157  0.1694 -0.0981
18938SOL    HW158682   4.790   4.193   3.022  0.5382  0.1207 -1.7638
18938SOL    HW258683   4.754   4.066   2.948  0.3152 -1.2219  0.5489
18939SOL     OW58684   6.006   0.911   6.239  0.0148 -0.5546  0.2512
18939SOL    HW158685   5.998   1.001   6.210 -0.0292 -0.7576 -0.3884
18939SOL    HW258686   6.031   0.862   6.161  2.7205 -0.7124  1.1179
18940SOL     OW58687   0.729   3.202   6.246 -0.2040  0.1667 -0.2838
18940SOL    HW158688   0.794   3.240   6.186 -0.8619 -0.4922 -1.4394
18940SOL    HW258689   0.645   3.216   6.203 -0.6097 -1.1395  0.0424
18941SOL     OW58690   3.668   3.235   5.156 -0.4500 -0.4196  0.0950
18941SOL    HW158691   3.596   3.179   5.128 -1.4887  0.5136  0.8274
18941SOL    HW258692   3.735   3.224   5.087 -1.9332 -0.0535 -1.4783
18942SOL     OW58693   6.765   2.083   3.190  0.5881  0.3362  0.1189
18942SOL    HW158694   6.839   2.022   3.188  0.0432 -0.3621 -2.2802
18942SOL    HW258695   6.787   2.149   3.124 -1.2352 -0.3751 -1.3018
18943SOL     OW58696   1.388   2.834   2.561  0.3256 -0.0645 -0.2360
18943SOL    HW158697   1.424   2.847   2.649  0.6426 -0.7046 -0.2688
18943SOL    HW258698   1.337   2.913   2.545 -0.1827 -0.1776  0.7432
18944SOL     OW58699   6.312   6.472   3.566 -0.7440 -0.2165  0.4626
18944SOL    HW158700   6.237   6.457   3.509  0.9210  0.2709 -1.9799
18944SOL    HW258701   6.292   6.554   3.611 -0.5991  1.3733 -2.1750
18945SOL     OW58702   3.822   1.857   7.467  0.5515 -0.2037 -0.7963
18945SOL    HW158703   3.866   1.793   7.409 -2.8460 -1.4075 -2.2992
18945SOL    HW258704   3.779   1.804   7.533 -0.4102  0.7324 -0.6529
18946SOL     OW58705   0.121   2.567   0.906 -0.2315  0.2401 -0.6052
18946SOL    HW158706   0.208   2.607   0.897  0.1275 -0.4633 -0.4073
18946SOL    HW258707   0.063   2.640   0.925  0.2249  0.7908 -1.2957
18947SOL     OW58708   4.541   1.926   6.320 -0.2110  0.5829 -0.2541
18947SOL    HW158709   4.609   1.959   6.261 -0.5473 -0.4344 -1.2639
18947SOL    HW258710   4.543   1.831   6.307  1.2135  0.0010  3.0554
18948SOL     OW58711   4.254   7.899   1.199  0.0170 -0.1016 -0.3367
18948SOL    HW158712   4.340   7.929   1.169  0.4734 -1.2581 -0.2272
18948SOL    HW258713   4.253   7.921   1.293  0.4820 -0.6948 -0.1829
18949SOL     OW58714   1.964   6.183   5.349 -0.6552  0.1811  0.0716
18949SOL    HW158715   1.952   6.252   5.415 -0.6585  0.1492  0.1045
18949SOL    HW258716   2.035   6.129   5.384  0.0679  0.7692 -0.4575
18950SOL     OW58717   7.283   0.437   8.066 -0.1977  0.4637 -0.5460
18950SOL    HW158718   7.255   0.498   8.134 -0.2389  0.6185 -0.6991
18950SOL    HW258719   7.205   0.388   8.043 -0.0844  0.1038 -0.1719
18951SOL     OW58720   7.292   2.442   7.748 -0.7761 -0.4510 -0.1428
18951SOL    HW158721   7.289   2.426   7.653 -0.0465 -1.1084 -0.0689
18951SOL    HW258722   7.320   2.533   7.756 -0.3455 -0.5418 -0.5557
18952SOL     OW58723   2.311   2.578   7.802  0.0476 -0.5246 -0.2378
18952SOL    HW158724   2.295   2.518   7.874  1.0322 -0.8630 -0.2989
18952SOL    HW258725   2.328   2.662   7.845  0.8517 -0.7717 -0.0517
18953SOL     OW58726   5.484   7.386   3.585 -0.0313  0.6580  0.4691
18953SOL    HW158727   5.395   7.387   3.551 -0.0483  1.3859  0.5176
18953SOL    HW258728   5.523   7.306   3.550 -1.4511 -0.9846  2.3906
18954SOL     OW58729   4.333   4.900   8.590 -0.4686 -0.5367  0.2760
18954SOL    HW158730   4.404   4.958   8.562 -0.8731  0.0116  0.3585
18954SOL    HW258731   4.332   4.908   8.686 -0.4335 -0.7944  0.2988
18955SOL     OW58732   0.816   2.017   7.394  0.0944 -0.4958  0.2637
18955SOL    HW158733   0.812   1.994   7.301  1.0627  0.0903  0.0625
18955SOL    HW258734   0.908   2.002   7.419 -0.0182 -0.0750  0.9721
18956SOL     OW58735   5.170   4.204   6.534 -0.4270  0.2121 -0.1844
18956SOL    HW158736   5.264   4.197   6.518 -0.4701  0.2622 -0.4615
18956SOL    HW258737   5.163   4.261   6.610 -0.1888 -0.5457  0.4220
18957SOL     OW58738   5.396   8.213   8.527  0.3494 -0.0444  0.1209
18957SOL    HW158739   5.469   8.255   8.573 -1.0773  0.5307  2.0065
18957SOL    HW258740   5.421   8.121   8.520  1.9407  0.4209 -0.7591
18958SOL     OW58741   7.647   4.326   0.789  0.4576  0.0176  0.2004
18958SOL    HW158742   7.590   4.382   0.841 -1.3244 -0.8363 -0.7510
18958SOL    HW258743   7.728   4.320   0.840  0.1627  2.2008  1.0355
18959SOL     OW58744   8.021   6.849   2.079  0.4933  0.1545 -0.2593
18959SOL    HW158745   8.040   6.891   1.995  0.9218  0.7954  0.1499
18959SOL    HW258746   8.069   6.766   2.076  0.7466  0.3091 -0.5283
18960SOL     OW58747   7.889   7.940   2.008 -0.5364  0.6797 -0.2388
18960SOL    HW158748   7.819   7.875   2.015  0.0868 -0.1290 -1.1315
18960SOL    HW258749   7.969   7.891   2.025 -0.0221  1.1145 -1.2957
18961SOL     OW58750   4.366   8.801   6.080  0.3355  0.4066  0.2714
18961SOL    HW158751   4.411   8.735   6.134  1.9064  0.6411 -0.6988
18961SOL    HW258752   4.358   8.760   5.994 -0.0051  0.9377  0.0457
18962SOL     OW58753   2.965   2.479   0.941  0.0506  0.4043 -0.0644
18962SOL    HW158754   2.943   2.510   0.854  1.6475  3.6996  0.5676
18962SOL    HW258755   2.882   2.477   0.988 -0.4359  1.5692 -0.8330
18963SOL     OW58756   6.339   7.814   3.937 -0.0265 -0.0726  0.1023
18963SOL    HW158757   6.290   7.814   4.019 -0.0340  0.9178  0.1060
18963SOL    HW258758   6.374   7.725   3.931 -3.1059 -1.3945 -0.6791
18964SOL     OW58759   4.726   2.630   2.061  0.4755  0.6358  0.1498
18964SOL    HW158760   4.683   2.614   2.145  2.3588 -0.5495  0.9400
18964SOL    HW258761   4.656   2.662   2.004 -1.6570 -1.9645  1.1193
18965SOL     OW58762   4.681   5.616   7.850  0.2542 -0.8982  0.3340
18965SOL    HW158763   4.606   5.560   7.868 -1.6258  1.2228 -0.4170
18965SOL    HW258764   4.685   5.621   7.754  1.5498 -1.1643  0.3469
18966SOL     OW58765   5.799   4.014   8.840  0.3533 -0.5302  0.2504
18966SOL    HW158766   5.875   4.020   8.783 -0.1298  1.2561 -0.2602
18966SOL    HW258767   5.756   3.933   8.814  2.3850 -1.9436  1.0085
18967SOL     OW58768   4.703   0.590   5.066  0.1485 -0.5313  0.3144
18967SOL    HW158769   4.773   0.525   5.077  0.2118 -0.7304 -1.0704
18967SOL    HW258770   4.749   0.671   5.043 -0.0644 -0.7767 -1.0777
18968SOL     OW58771   7.183   1.484   7.446 -0.2339  0.1649  0.3232
18968SOL    HW158772   7.230   1.483   7.363 -0.5486  0.5269  0.1395
18968SOL    HW258773   7.252   1.481   7.512 -0.0066 -2.4945  0.0786
18969SOL     OW58774   8.967   5.224   7.527  0.4738 -0.7533 -0.8458
18969SOL    HW158775   8.952   5.173   7.606 -1.5203  1.0278  0.0252
18969SOL    HW258776   9.044   5.277   7.547 -0.9027  0.8163  0.6072
18970SOL     OW58777   5.342   7.421   6.545  0.2361  0.1872 -0.4343
18970SOL    HW158778   5.370   7.331   6.561  0.0634  0.0229 -1.0150
18970SOL    HW258779   5.250   7.422   6.570  0.2121  0.1741 -0.5201
18971SOL     OW58780   2.602   3.116   6.373  0.2614  0.3822 -0.0957
18971SOL    HW158781   2.648   3.199   6.363 -0.3560  0.7679  0.1578
18971SOL    HW258782   2.632   3.062   6.300  0.1164  1.0946 -0.6918
18972SOL     OW58783   2.424   8.825   6.230 -0.0432  0.1540 -0.0888
18972SOL    HW158784   2.473   8.869   6.161 -0.1694 -0.1346 -0.3642
18972SOL    HW258785   2.490   8.798   6.293  0.0253  0.8342  0.1434
18973SOL     OW58786   5.836   7.817   4.770 -0.3966  0.1526 -0.4831
18973SOL    HW158787   5.790   7.745   4.727  0.5967 -1.9060  1.6815
18973SOL    HW258788   5.767   7.875   4.801 -1.2939 -0.5614 -1.0978
18974SOL     OW58789   1.497   2.114   1.918 -0.6104  0.0072  0.3739
18974SOL    HW158790   1.532   2.040   1.968  0.2716 -0.0818 -0.3493
18974SOL    HW258791   1.572   2.172   1.907 -0.7172 -0.1076 -1.0899
18975SOL     OW58792   2.724   1.572   2.546  0.1139  0.5264  0.3111
18975SOL    HW158793   2.727   1.549   2.454 -0.2983 -0.6836  0.5812
18975SOL    HW258794   2.631   1.568   2.569  0.3763 -1.4697  1.2869
18976SOL     OW58795   5.139   8.368   5.544  0.1795  0.2463  0.0108
18976SOL    HW158796   5.187   8.421   5.480 -1.7192  0.4600 -1.3264
18976SOL    HW258797   5.146   8.278   5.511 -1.1805  0.4132 -0.8173
18977SOL     OW58798   0.722   6.492   7.247 -0.1373 -0.9428  0.1188
18977SOL    HW158799   0.677   6.454   7.322 -2.0642 -0.5098 -0.7446
18977SOL    HW258800   0.669   6.465   7.172 -0.5080  1.8023 -0.7120
18978SOL     OW58801   0.470   3.325   7.305 -0.4265 -0.5177 -0.0623
18978SOL    HW158802   0.563   3.317   7.284 -0.3857  1.7373 -0.9348
18978SOL    HW258803   0.425   3.303   7.223 -0.4737  2.2916 -0.8678
18979SOL     OW58804   7.510   7.472   5.111 -0.0200 -0.4830  0.2552
18979SOL    HW158805   7.460   7.470   5.193  1.7775 -2.0228  1.3864
18979SOL    HW258806   7.572   7.544   5.123 -2.3617  2.0449 -1.5186
18980SOL     OW58807   3.809   0.894   0.457  0.0524 -0.0207  0.1787
18980SOL    HW158808   3.877   0.864   0.396  0.0127  2.9662 -1.5619
18980SOL    HW258809   3.747   0.941   0.402 -1.7058  0.1577  2.1839
18981SOL     OW58810   2.060   5.684   8.097 -0.0863 -0.4690  0.1606
18981SOL    HW158811   2.117   5.672   8.173 -1.0008 -0.5505  0.8566
18981SOL    HW258812   1.984   5.629   8.116 -1.5181  1.4908  0.4220
18982SOL     OW58813   3.444   4.497   2.726 -0.5652  0.1786  0.0415
18982SOL    HW158814   3.451   4.591   2.715 -2.1560  0.1833 -1.2421
18982SOL    HW258815   3.396   4.485   2.808 -1.5268  0.5369 -0.4577
18983SOL     OW58816   8.061   3.970   8.615  0.2891  0.2601  0.3526
18983SOL    HW158817   8.084   3.925   8.697 -1.6618  0.1096  0.8784
18983SOL    HW258818   8.136   4.025   8.596  1.9604 -1.7357  0.7457
18984SOL     OW58819   1.600   1.151   2.351  0.6125  0.3238  0.0602
18984SOL    HW158820   1.630   1.205   2.424  0.9906 -0.8461  0.7981
18984SOL    HW258821   1.681   1.118   2.311  0.3845  0.2398 -0.3374
18985SOL     OW58822   8.437   0.228   6.467  0.4222  0.0308 -0.2218
18985SOL    HW158823   8.472   0.144   6.496  0.4454  0.2510  0.3864
18985SOL    HW258824   8.391   0.207   6.385  0.0753 -0.6447  0.1397
18986SOL     OW58825   4.623   3.110   2.699 -0.1208 -0.2020  0.8304
18986SOL    HW158826   4.551   3.092   2.637  0.4848 -2.6863  0.7662
18986SOL    HW258827   4.687   3.159   2.647 -1.2989  1.2443  0.6413
18987SOL     OW58828   4.908   0.443   1.031 -0.2922  0.1693  0.4923
18987SOL    HW158829   4.902   0.446   0.936 -1.3431  0.5023  0.5559
18987SOL    HW258830   4.990   0.397   1.049 -0.6564 -0.9320 -0.5647
18988SOL     OW58831   0.851   0.306   6.855  0.0831 -0.5848  0.2602
18988SOL    HW158832   0.758   0.324   6.846  0.4840  0.4755 -3.3573
18988SOL    HW258833   0.882   0.370   6.919 -1.4251 -0.0364  0.4738
18989SOL     OW58834   8.392   7.356   5.137 -0.3008  0.4579  0.3216
18989SOL    HW158835   8.377   7.296   5.209 -1.6677 -0.7570 -0.9116
18989SOL    HW258836   8.481   7.390   5.151 -1.1135  1.5965  3.4772
18990SOL     OW58837   6.365   7.499   2.663  0.1287  0.2474 -0.0779
18990SOL    HW158838   6.457   7.472   2.654  0.2742  0.4128  0.7934
18990SOL    HW258839   6.368   7.573   2.723 -0.6257 -0.0457  0.3258
18991SOL     OW58840   3.120   0.010   5.600  1.1914 -0.2716  0.2367
18991SOL    HW158841   3.100  -0.083   5.598 -1.5187  0.1512 -3.4066
18991SOL    HW258842   3.075   0.043   5.677 -0.8484 -1.5206 -0.3590
18992SOL     OW58843   1.150   5.800   2.595  0.1691 -0.1924 -0.4003
18992SOL    HW158844   1.070   5.749   2.606 -0.4477  1.1836  2.6019
18992SOL    HW258845   1.120   5.888   2.572  0.6596  0.6097  1.7983
18993SOL     OW58846   5.178   4.749   8.668 -0.1487  0.2700  0.6039
18993SOL    HW158847   5.273   4.752   8.677 -0.2254 -0.2349  1.6770
18993SOL    HW258848   5.155   4.836   8.635  0.6862  0.3804  0.2914
18994SOL     OW58849   3.545   5.235   3.688 -0.4103  0.1802 -0.1769
18994SOL    HW158850   3.506   5.311   3.732 -1.4863 -0.2048 -0.4269
18994SOL    HW258851   3.555   5.263   3.597 -1.5893 -0.2219 -0.4585
18995SOL     OW58852   6.604   5.139   4.496  0.2560 -0.8786 -0.2581
18995SOL    HW158853   6.667   5.079   4.456  1.2625  0.7900 -1.3105
18995SOL    HW258854   6.654   5.219   4.512 -1.3986  0.2192 -0.3309
18996SOL     OW58855   6.383   3.096   1.139  0.5935  0.2849 -0.1412
18996SOL    HW158856   6.305   3.097   1.083 -1.0474 -1.3425  1.9176
18996SOL    HW258857   6.383   3.183   1.180  1.3109  1.1676 -1.9309
18997SOL     OW58858   0.935   8.472   0.766 -0.3786  0.0787  0.2474
18997SOL    HW158859   0.840   8.486   0.765 -0.6347 -1.3336 -2.2941
18997SOL    HW258860   0.945   8.382   0.795  0.3056  0.5395  1.5357
18998SOL     OW58861   4.467   0.799   8.148 -0.0439  0.1178  0.5877
18998SOL    HW158862   4.395   0.786   8.085 -1.1669  1.2156  1.5870
18998SOL    HW258863   4.435   0.761   8.229  1.3741 -1.2252  0.5481
18999SOL     OW58864   0.715   4.572   6.396  0.3206  0.4128  0.3280
18999SOL    HW158865   0.688   4.568   6.304  0.9206 -3.8871  0.1108
18999SOL    HW258866   0.635   4.595   6.444 -1.3447 -2.1550 -0.9983
19000SOL     OW58867   7.727   1.681   3.165  0.0377 -0.4137 -0.2384
19000SOL    HW158868   7.737   1.736   3.087 -1.4070 -0.6206 -0.5881
19000SOL    HW258869   7.816   1.649   3.183  0.1898 -1.5755 -2.6804
19001SOL     OW58870   6.482   2.289   3.777  0.2646  0.2605  0.3369
19001SOL    HW158871   6.575   2.296   3.795  0.4554 -0.6355 -0.2195
19001SOL    HW258872   6.468   2.196   3.760 -0.6980  0.4131  0.2291
19002SOL     OW58873   0.373   0.837   4.364  0.0923  0.2375  0.0775
19002SOL    HW158874   0.430   0.798   4.298  1.4871  1.2435  0.6320
19002SOL    HW258875   0.423   0.911   4.399 -1.1029  0.4835  1.3937
19003SOL     OW58876   0.168   4.495   1.164 -0.4834 -0.2950  0.0140
19003SOL    HW158877   0.227   4.419   1.152 -0.4599 -0.1566 -0.8590
19003SOL    HW258878   0.113   4.494   1.086 -1.5499 -0.3266  0.7517
19004SOL     OW58879   5.459   1.417   0.584 -0.1888 -0.4424 -0.3770
19004SOL    HW158880   5.525   1.391   0.648  2.0132 -0.6640 -2.6088
19004SOL    HW258881   5.377   1.385   0.620  1.0060 -1.0022  2.0569
19005SOL     OW58882   6.907   3.701   7.096 -0.5157  0.7534  0.5345
19005SOL    HW158883   6.911   3.722   7.003 -1.5591  0.9833  0.5333
19005SOL    HW258884   6.995   3.723   7.129  1.0532 -2.4719 -1.0147
19006SOL     OW58885   1.286   7.572   3.990 -0.2660  0.6528 -0.7495
19006SOL    HW158886   1.297   7.533   3.904  0.0843  0.3847 -0.5862
19006SOL    HW258887   1.372   7.610   4.011 -0.1245  0.0627 -0.2057
19007SOL     OW58888   4.475   5.832   7.528 -0.0488 -0.1595  0.3516
19007SOL    HW158889   4.551   5.774   7.521  0.7061  0.4900  2.3247
19007SOL    HW258890   4.426   5.797   7.603 -2.2277 -1.0988 -1.4197
19008SOL     OW58891   0.690   4.650   2.169 -0.3413  0.1105 -0.4199
19008SOL    HW158892   0.614   4.595   2.188 -0.6318  0.1328 -1.4602
19008SOL    HW258893   0.740   4.601   2.104  1.0372 -0.3214  0.9049
19009SOL     OW58894   8.551   3.246   0.328 -0.8434  0.3017  0.2978
19009SOL    HW158895   8.490   3.220   0.258 -0.0101  2.2508 -1.2346
19009SOL    HW258896   8.629   3.276   0.282 -0.2385  1.6052  2.0724
19010SOL     OW58897   8.001   2.282   3.647 -0.8794  0.4196  0.1749
19010SOL    HW158898   8.076   2.255   3.700 -0.3446  0.1604 -0.6979
19010SOL    HW258899   8.038   2.296   3.560 -1.8833  0.1399 -0.2997
19011SOL     OW58900   5.847   2.597   3.065  0.9578  0.2049  0.3718
19011SOL    HW158901   5.843   2.691   3.048 -0.2695  0.3250  1.2447
19011SOL    HW258902   5.874   2.589   3.156 -0.5697 -0.2269  0.8187
19012SOL     OW58903   2.865   3.107   6.761  0.4351 -0.4111  0.2461
19012SOL    HW158904   2.857   3.075   6.671  0.9445  0.7217 -0.2357
19012SOL    HW258905   2.797   3.175   6.768  1.1234  0.2801  0.3374
19013SOL     OW58906   5.478   1.986   1.668 -0.2709 -0.2608 -0.4876
19013SOL    HW158907   5.438   2.001   1.582 -0.4021 -2.3336 -0.8495
19013SOL    HW258908   5.491   1.891   1.672  1.2501 -0.0399  1.1330
19014SOL     OW58909   0.146   0.879   8.705  0.6065 -0.4371 -0.2418
19014SOL    HW158910   0.239   0.875   8.727  0.5871  0.4871  0.0513
19014SOL    HW258911   0.122   0.789   8.686  1.7036 -0.6085 -0.9191
19015SOL     OW58912   4.258   8.763   7.818  0.0024  0.4519 -0.1062
19015SOL    HW158913   4.283   8.764   7.725 -0.2402  0.6314 -0.1695
19015SOL    HW258914   4.183   8.823   7.824 -1.5229 -1.3347 -0.2424
19016SOL     OW58915   7.501   5.935   7.336  0.6821 -0.1413 -0.0191
19016SOL    HW158916   7.573   5.995   7.312 -0.2552  1.3491  0.7560
19016SOL    HW258917   7.536   5.885   7.409  0.9597  0.5628  0.3462
19017SOL     OW58918   6.216   7.608   2.415  0.5785 -0.2034 -0.5431
19017SOL    HW158919   6.257   7.567   2.492  2.1320  0.5545 -0.9257
19017SOL    HW258920   6.158   7.675   2.452  1.2995  0.1432 -0.0155
19018SOL     OW58921   6.152   6.697   0.041 -0.0986  0.0532  0.0940
19018SOL    HW158922   6.164   6.727  -0.050  1.7311  0.1032  0.3127
19018SOL    HW258923   6.118   6.774   0.087 -2.2197 -0.3118 -0.7483
19019SOL     OW58924   5.760   0.800   7.082  0.0186 -0.3513  0.3912
19019SOL    HW158925   5.805   0.720   7.056  0.5620  0.1287 -0.2003
19019SOL    HW258926   5.710   0.825   7.005  0.2856  0.1658  0.3799
19020SOL     OW58927   7.772   2.825   5.819 -0.8318 -0.2972 -0.3936
19020SOL    HW158928   7.689   2.873   5.825 -0.2668  0.6395  0.2118
19020SOL    HW258929   7.762   2.752   5.881 -0.6218  0.7386  0.8896
19021SOL     OW58930   0.125   7.907   0.106  0.3763  0.6238 -0.4237
19021SOL    HW158931   0.106   7.829   0.159  1.2765  1.0150  0.5262
19021SOL    HW258932   0.055   7.910   0.041 -0.3301 -0.3147  0.2623
19022SOL     OW58933   7.247   5.609   1.212 -0.3659  0.2137  0.1467
19022SOL    HW158934   7.321   5.596   1.152 -0.3266 -1.5881  0.5489
19022SOL    HW258935   7.210   5.693   1.184  1.1256  0.6166 -0.8038
19023SOL     OW58936   0.353   8.390   8.704 -0.2542 -0.0806  1.1604
19023SOL    HW158937   0.432   8.402   8.651  1.9785 -1.3043  3.9874
19023SOL    HW258938   0.293   8.344   8.645  1.2948  0.4000 -0.9443
19024SOL     OW58939   5.675   8.381   3.856 -0.1862  0.1604 -0.0073
19024SOL    HW158940   5.652   8.377   3.949 -0.0984  0.8938  0.0526
19024SOL    HW258941   5.714   8.468   3.845  0.8294 -0.3410 -0.4918
19025SOL     OW58942   8.551   1.353   4.779 -0.0951  0.3470  0.2431
19025SOL    HW158943   8.564   1.356   4.684  0.2292  0.9289  0.2997
19025SOL    HW258944   8.577   1.440   4.809 -1.4889  0.6407  0.7045
19026SOL     OW58945   8.954   8.661   5.917 -0.5531 -0.6564 -0.0507
19026SOL    HW158946   9.016   8.604   5.964  1.1927  1.4348  0.3551
19026SOL    HW258947   8.978   8.651   5.825 -0.1260 -0.4503  0.0347
19027SOL     OW58948   6.267   3.533   4.180  0.0907 -0.3999 -0.0880
19027SOL    HW158949   6.244   3.603   4.241 -1.5367  0.1085 -1.2050
19027SOL    HW258950   6.243   3.567   4.094  0.7767 -1.7176 -0.8400
19028SOL     OW58951   4.100   5.789   4.271 -0.5911  0.5611  0.2813
19028SOL    HW158952   4.091   5.826   4.359 -1.0633  1.0593  0.0350
19028SOL    HW258953   4.114   5.866   4.215  1.9797  0.1004  0.1895
19029SOL     OW58954   3.702   2.624   2.874  0.0060  0.4008 -0.3547
19029SOL    HW158955   3.667   2.708   2.846 -0.3131  0.0635 -0.9905
19029SOL    HW258956   3.789   2.644   2.908 -0.3810  1.0961  0.2499
19030SOL     OW58957   1.864   7.025   8.607  0.1980 -0.3293 -0.1105
19030SOL    HW158958   1.782   7.040   8.560  0.2666 -0.9597 -0.4453
19030SOL    HW258959   1.893   7.112   8.632 -0.1989 -0.0348 -0.6382
19031SOL     OW58960   6.467   1.233   6.610  0.0843 -0.5092  0.1818
19031SOL    HW158961   6.558   1.228   6.580  0.2568 -2.0652  0.8846
19031SOL    HW258962   6.428   1.302   6.556  2.2572  1.8571  1.4163
19032SOL     OW58963   0.644   4.300   5.432  0.1630  0.2244 -0.3041
19032SOL    HW158964   0.560   4.303   5.385 -0.0634  0.5324  0.1173
19032SOL    HW258965   0.681   4.387   5.421  0.2564  0.2006 -0.1826
19033SOL     OW58966   4.278   7.471   3.743 -0.3306 -0.8563  0.1917
19033SOL    HW158967   4.261   7.524   3.666 -0.4159 -0.9091  0.1745
19033SOL    HW258968   4.246   7.522   3.817 -0.2648 -0.8135  0.1908
19034SOL     OW58969   6.003   6.006   1.644 -0.0842 -0.1353  0.5026
19034SOL    HW158970   6.080   6.014   1.588  0.1265 -0.2695  0.7781
19034SOL    HW258971   5.940   5.957   1.591  0.3245 -0.7761  0.6027
19035SOL     OW58972   7.858   2.210   6.289  0.8200  0.1330  0.1487
19035SOL    HW158973   7.836   2.251   6.373  0.6594  2.0271 -0.7679
19035SOL    HW258974   7.774   2.201   6.244  0.9236 -0.7212  0.1090
19036SOL     OW58975   1.032   5.663   8.330  0.2705 -0.3113 -0.3109
19036SOL    HW158976   1.004   5.593   8.271  0.9979  1.0462 -2.3902
19036SOL    HW258977   1.053   5.736   8.272 -0.3812  1.6402  1.7467
19037SOL     OW58978   0.298   8.016   8.376  0.6663 -0.4547  0.6596
19037SOL    HW158979   0.268   8.086   8.434  2.0101  1.4406 -0.8257
19037SOL    HW258980   0.254   7.937   8.409 -2.8404  1.4187  0.9307
19038SOL     OW58981   8.081   5.041   6.255  0.5598 -0.2769 -0.6969
19038SOL    HW158982   8.053   5.106   6.190  0.6113  0.3298 -0.1241
19038SOL    HW258983   8.160   5.079   6.294 -0.8088  0.5623  1.4389
19039SOL     OW58984   3.892   3.888   0.712 -0.3465  0.0062 -0.0629
19039SOL    HW158985   3.843   3.970   0.714  1.7197  1.3109  0.4919
19039SOL    HW258986   3.867   3.846   0.630 -2.2122  0.6560  0.1263
19040SOL     OW58987   8.705   3.506   8.832 -0.4475  0.3019 -0.9713
19040SOL    HW158988   8.762   3.435   8.861  1.3519  1.2042 -2.0827
19040SOL    HW258989   8.684   3.485   8.741  0.7235  1.5164 -1.5552
19041SOL     OW58990   5.857   0.610   0.923 -0.4036  0.1076  0.6303
19041SOL    HW158991   5.905   0.624   1.004 -0.6170  2.2218  0.4440
19041SOL    HW258992   5.839   0.698   0.890  0.4460 -0.6461 -2.1737
19042SOL     OW58993   7.015   2.890   7.648  0.1907  0.4255 -0.1617
19042SOL    HW158994   7.025   2.968   7.702 -0.5234  1.7787 -1.8688
19042SOL    HW258995   7.098   2.882   7.601  0.6288 -0.4612  0.7181
19043SOL     OW58996   5.341   5.245   5.182 -0.4737 -0.1537 -0.1060
19043SOL    HW158997   5.269   5.307   5.171 -0.5168 -0.0919  0.4866
19043SOL    HW258998   5.384   5.243   5.097 -0.7263  0.3724 -0.2507
19044SOL     OW58999   2.630   7.902   6.281  0.0254  0.3949  0.1458
19044SOL    HW159000   2.610   7.992   6.307  1.1602  0.9161 -0.7381
19044SOL    HW259001   2.725   7.897   6.281  0.0245 -0.3012 -1.5033
19045SOL     OW59002   1.820   5.712   3.385  0.1594  0.4197  0.4181
19045SOL    HW159003   1.750   5.694   3.447  0.2083  1.9850  0.9773
19045SOL    HW259004   1.817   5.807   3.372 -1.1665 -0.0059 -3.5701
19046SOL     OW59005   6.068   8.366   6.884 -1.0355  0.3616 -0.1950
19046SOL    HW159006   6.153   8.358   6.927 -0.2165  0.7795 -1.6620
19046SOL    HW259007   6.070   8.452   6.841 -2.2972  0.4804 -0.0544
19047SOL     OW59008   6.711   5.863   2.922 -0.2840  0.1959 -0.2475
19047SOL    HW159009   6.802   5.881   2.896  0.0669 -0.6013  0.3589
19047SOL    HW259010   6.692   5.778   2.881 -1.2971  1.0506 -1.6315
19048SOL     OW59011   8.666   3.515   6.843 -0.2242 -0.0997 -0.5080
19048SOL    HW159012   8.723   3.474   6.908 -1.9910 -0.1836  1.0303
19048SOL    HW259013   8.614   3.443   6.808 -1.0606  0.3332 -0.1652
19049SOL     OW59014   8.586   1.163   3.233 -0.4818 -0.1200 -0.2924
19049SOL    HW159015   8.663   1.210   3.201 -1.1486  1.5471  0.4281
19049SOL    HW259016   8.614   1.124   3.315 -0.0574 -0.5720 -0.6497
19050SOL     OW59017   8.917   4.350   6.546 -0.2402 -0.1167 -0.0273
19050SOL    HW159018   8.874   4.264   6.539 -0.2760 -0.0911 -0.1356
19050SOL    HW259019   8.960   4.349   6.631  0.6151 -0.6348 -0.4484
19051SOL     OW59020   3.999   6.453   7.140 -0.6954  0.3255  0.3760
19051SOL    HW159021   3.969   6.367   7.167  0.0773  0.4903  1.8708
19051SOL    HW259022   4.003   6.504   7.221  1.0028  1.0897 -0.1389
19052SOL     OW59023   8.178   1.050   3.254 -0.0881 -0.1205  0.1656
19052SOL    HW159024   8.193   0.958   3.235  0.2241  0.2133 -1.3019
19052SOL    HW259025   8.085   1.064   3.236  0.1967  0.1840 -1.1744
19053SOL     OW59026   3.358   3.439   7.797 -0.0978 -0.2520  0.2335
19053SOL    HW159027   3.337   3.492   7.720  1.7033 -1.7059 -1.3776
19053SOL    HW259028   3.307   3.478   7.868 -3.1434  0.1925 -1.9707
19054SOL     OW59029   2.075   7.545   0.781 -0.3929 -0.0689 -0.3007
19054SOL    HW159030   2.159   7.550   0.826  0.1732  0.9365 -1.4289
19054SOL    HW259031   2.040   7.635   0.786 -2.1430 -0.7544  1.4764
19055SOL     OW59032   2.752   2.090   5.946  0.7589 -0.5133 -0.5077
19055SOL    HW159033   2.798   2.024   5.894 -1.2966 -1.1710 -1.6040
19055SOL    HW259034   2.727   2.157   5.882 -2.7441 -1.8378 -0.7616
19056SOL     OW59035   7.749   1.541   2.648 -0.1667  0.1930  0.3162
19056SOL    HW159036   7.707   1.527   2.732  1.8437  0.4963  1.4424
19056SOL    HW259037   7.727   1.632   2.625 -0.8713  0.0489  0.4060
19057SOL     OW59038   7.058   0.754   6.703 -0.5867 -0.0092  0.5633
19057SOL    HW159039   7.112   0.782   6.629 -0.2614  1.8263  1.4208
19057SOL    HW259040   6.975   0.727   6.664  0.1022 -0.5442 -0.5775
19058SOL     OW59041   3.483   6.289   0.380 -0.5597 -0.7622  0.3780
19058SOL    HW159042   3.535   6.295   0.300 -1.2940  0.5267 -0.0298
19058SOL    HW259043   3.546   6.264   0.448  0.3155 -0.5982 -0.3579
19059SOL     OW59044   3.880   1.693   0.767  0.2870 -0.0806  0.2863
19059SOL    HW159045   3.806   1.643   0.734 -1.5415  0.5128  3.1045
19059SOL    HW259046   3.957   1.641   0.745 -1.1524 -1.8713 -0.7364
19060SOL     OW59047   0.410   8.842   4.655  0.4354  0.5818  0.5472
19060SOL    HW159048   0.330   8.877   4.615 -1.1687 -1.3241  1.9114
19060SOL    HW259049   0.396   8.851   4.749  0.9842 -1.4419  0.8721
19061SOL     OW59050   6.740   4.697   5.363  0.2895 -0.1476  0.0729
19061SOL    HW159051   6.810   4.694   5.428  0.3928  0.3305 -0.0108
19061SOL    HW259052   6.753   4.618   5.310  0.7841 -0.0426  0.0355
19062SOL     OW59053   8.868   7.935   2.151 -0.4071  0.6506  0.1198
19062SOL    HW159054   8.820   7.852   2.140  1.8992 -0.7208 -0.3164
19062SOL    HW259055   8.886   7.964   2.062  0.8840  0.2878  0.2377
19063SOL     OW59056   8.039   2.502   3.040 -0.5654 -0.4091  0.5951
19063SOL    HW159057   8.101   2.435   3.014 -1.6041 -0.5211 -1.8640
19063SOL    HW259058   8.010   2.542   2.958 -2.7615  0.5076  1.7112
19064SOL     OW59059   1.815   8.407   6.646  0.0033  0.0210 -0.7202
19064SOL    HW159060   1.754   8.352   6.695  0.8690  1.8086  2.6789
19064SOL    HW259061   1.759   8.468   6.599 -0.8656 -0.5021 -0.3904
19065SOL     OW59062   8.112   5.506   3.823  0.0352 -0.5589  0.2873
19065SOL    HW159063   8.067   5.480   3.743  0.7968  0.0105 -0.3423
19065SOL    HW259064   8.125   5.425   3.872  0.8286 -1.1298 -0.8286
19066SOL     OW59065   3.290   5.298   7.602  0.8998 -0.2447 -0.3473
19066SOL    HW159066   3.263   5.206   7.609  1.5764 -0.4510 -0.2851
19066SOL    HW259067   3.381   5.293   7.571  0.4334  0.4575 -1.8701
19067SOL     OW59068   3.723   4.809   3.452 -0.3459  0.0473  0.4441
19067SOL    HW159069   3.704   4.716   3.445  3.7218 -0.8428 -1.3974
19067SOL    HW259070   3.684   4.847   3.373  1.5446 -0.9389 -1.0363
19068SOL     OW59071   8.753   5.747   8.717  0.1162 -0.3307 -0.0112
19068SOL    HW159072   8.676   5.689   8.719 -0.3879  0.3161  1.9605
19068SOL    HW259073   8.827   5.688   8.731 -0.3218 -0.6283  1.1780
19069SOL     OW59074   3.405   3.288   7.152  0.2380 -0.0822  0.3442
19069SOL    HW159075   3.433   3.210   7.199  0.0468  0.2397  1.0041
19069SOL    HW259076   3.470   3.300   7.084 -0.8025 -1.9738 -1.0809
19070SOL     OW59077   4.636   7.924   8.004  0.1436 -0.0922  0.1922
19070SOL    HW159078   4.623   7.983   8.078 -0.9611  0.8661 -0.7299
19070SOL    HW259079   4.626   7.980   7.927 -2.9082 -1.7972 -0.7918
19071SOL     OW59080   8.953   8.896   4.983  0.0557 -0.2201  0.0961
19071SOL    HW159081   8.979   8.818   5.032 -0.2445 -0.2428  0.2175
19071SOL    HW259082   8.945   8.867   4.893 -1.0663 -0.5659  0.2997
19072SOL     OW59083   2.686   1.175   1.716  0.2678  0.5211 -0.0035
19072SOL    HW159084   2.680   1.090   1.673 -1.4333 -0.0708  1.3044
19072SOL    HW259085   2.759   1.219   1.672 -0.0595 -0.8361 -2.0080
19073SOL     OW59086   2.299   3.015   8.427  0.2192  0.5006 -0.2977
19073SOL    HW159087   2.269   3.065   8.503 -0.2268 -0.1834 -0.0071
19073SOL    HW259088   2.355   3.075   8.379  0.3607  1.0040  0.4773
19074SOL     OW59089   0.869   4.723   6.565  0.0279 -0.4284 -0.2974
19074SOL    HW159090   0.810   4.714   6.491  2.0369  1.8741 -2.3539
19074SOL    HW259091   0.948   4.764   6.528  0.7915  1.7058  3.2638
19075SOL     OW59092   2.097   2.679   1.221  0.5320  0.2437 -0.1142
19075SOL    HW159093   2.149   2.614   1.173  2.0181  0.6628  0.8535
19075SOL    HW259094   2.146   2.760   1.210 -0.1023  0.7254  0.5632
19076SOL     OW59095   2.740   8.324   6.908 -0.7388 -0.5559  0.1551
19076SOL    HW159096   2.776   8.413   6.899 -1.4489 -0.2362  0.3998
19076SOL    HW259097   2.652   8.338   6.943 -0.8917 -1.3565  0.0900
19077SOL     OW59098   2.600   6.479   2.820  0.3105  0.2386  0.2408
19077SOL    HW159099   2.564   6.447   2.738  0.4964  0.4398  0.0817
19077SOL    HW259100   2.629   6.399   2.865  0.9625  0.1965 -0.2446
19078SOL     OW59101   6.157   7.908   4.543  0.6069 -0.0958 -0.0677
19078SOL    HW159102   6.064   7.888   4.531 -0.1812  1.9472  1.9063
19078SOL    HW259103   6.191   7.835   4.594 -0.5381  0.2395  1.2452
19079SOL     OW59104   5.595   0.171   8.039 -0.6891  0.4911 -0.2006
19079SOL    HW159105   5.548   0.095   8.005  0.4534 -0.0203 -0.7189
19079SOL    HW259106   5.559   0.246   7.990 -0.5362  0.0310 -1.0353
19080SOL     OW59107   6.398   0.817   3.623  0.4672 -0.6885  0.1757
19080SOL    HW159108   6.320   0.785   3.579 -0.6197  1.4866  0.3844
19080SOL    HW259109   6.468   0.809   3.557  0.3572 -3.5770  0.3223
19081SOL     OW59110   5.578   2.239   2.529  0.1766  0.1819 -0.4632
19081SOL    HW159111   5.509   2.194   2.579  0.7923  0.9800  1.1711
19081SOL    HW259112   5.635   2.168   2.498  1.1201 -0.2569  2.0457
19082SOL     OW59113   1.193   3.446   5.287 -1.0175  0.0302 -0.2067
19082SOL    HW159114   1.283   3.457   5.318  0.0544 -1.4630 -2.4915
19082SOL    HW259115   1.168   3.532   5.253 -1.0686  0.8452  1.7507
19083SOL     OW59116   1.410   7.503   0.420 -0.4953  0.3613 -0.1998
19083SOL    HW159117   1.388   7.415   0.391  2.0726 -0.8024  1.0587
19083SOL    HW259118   1.490   7.525   0.372 -0.9448  1.9435 -0.3034
19084SOL     OW59119   8.349   6.661   4.926  0.3499 -0.1018 -0.1765
19084SOL    HW159120   8.357   6.610   4.845 -0.8397  0.6330 -0.7957
19084SOL    HW259121   8.373   6.600   4.995 -0.1861 -1.2494 -0.9559
19085SOL     OW59122   3.543   6.757   7.449 -0.0856 -0.2817  0.1677
19085SOL    HW159123   3.583   6.844   7.447  0.3260 -0.4411  0.9656
19085SOL    HW259124   3.459   6.768   7.405  0.2198  0.3845 -0.2639
19086SOL     OW59125   5.736   3.477   0.464  0.2789 -0.1406  0.5454
19086SOL    HW159126   5.675   3.540   0.427  2.2967  2.0233  0.7293
19086SOL    HW259127   5.808   3.472   0.402  0.7755 -1.3110  1.1678
19087SOL     OW59128   0.232   2.335   6.646 -0.4330 -0.9547 -0.3420
19087SOL    HW159129   0.249   2.273   6.717  2.0429  1.3396  1.2749
19087SOL    HW259130   0.295   2.310   6.578  1.9011  0.6785  1.0476
19088SOL     OW59131   3.161   4.118   1.916  0.2765 -0.0323 -0.2765
19088SOL    HW159132   3.096   4.118   1.987 -0.5288 -1.1964 -0.9744
19088SOL    HW259133   3.215   4.041   1.933  0.4612  0.0265 -0.5939
19089SOL     OW59134   7.360   1.267   4.688  0.1337  1.0015 -0.1557
19089SOL    HW159135   7.415   1.202   4.732  0.0741  0.6717 -0.5655
19089SOL    HW259136   7.414   1.346   4.683  0.9093  0.4197 -1.3700
19090SOL     OW59137   3.937   5.097   7.876 -0.3093  0.2066 -0.6452
19090SOL    HW159138   3.911   5.042   7.803  0.7279  0.6429 -1.3867
19090SOL    HW259139   3.904   5.184   7.853 -0.7086  0.1826 -0.1760
19091SOL     OW59140   8.778   7.797   0.076  0.3272  0.1862 -0.4440
19091SOL    HW159141   8.685   7.808   0.059  0.2132 -0.5157 -0.3197
19091SOL    HW259142   8.821   7.826  -0.005 -0.0459 -0.2207 -0.7934
19092SOL     OW59143   2.754   7.537   2.324 -0.0471  0.5302  0.5836
19092SOL    HW159144   2.735   7.627   2.350  1.8792  0.9215  0.7677
19092SOL    HW259145   2.742   7.486   2.404  1.3473  1.0396  1.1472
19093SOL     OW59146   2.249   2.647   5.490  0.3929 -0.1379  0.0281
19093SOL    HW159147   2.270   2.573   5.547  0.8434 -0.5549 -0.6729
19093SOL    HW259148   2.268   2.616   5.401  3.3831  1.7271 -0.1149
19094SOL     OW59149   2.536   1.556   5.092 -0.3872  0.2678  0.1588
19094SOL    HW159150   2.616   1.548   5.144 -0.4445 -2.6581 -0.0061
19094SOL    HW259151   2.566   1.561   5.001 -0.3631  0.4015  0.1745
19095SOL     OW59152   7.257   3.025   6.177  0.1519 -0.1621  0.4378
19095SOL    HW159153   7.166   2.997   6.189 -0.7155  2.0469 -0.5242
19095SOL    HW259154   7.291   2.966   6.110 -1.3159  0.3874 -0.8442
19096SOL     OW59155   2.628   4.599   2.377  0.0187 -0.3189 -0.3436
19096SOL    HW159156   2.650   4.596   2.470 -0.3769 -0.3973 -0.2498
19096SOL    HW259157   2.711   4.617   2.333  0.0006  1.0959  0.1277
19097SOL     OW59158   1.212   4.364   8.703 -0.0397  0.0811 -0.4124
19097SOL    HW159159   1.298   4.401   8.724 -1.2279  1.6358  2.2659
19097SOL    HW259160   1.230   4.273   8.682  2.2147  0.1842  0.7451
19098SOL     OW59161   6.623   0.761   1.621  0.2917  0.0661 -0.2035
19098SOL    HW159162   6.629   0.679   1.670 -0.9949  0.9041  1.4883
19098SOL    HW259163   6.535   0.759   1.584  0.8995 -0.0992 -1.6801
19099SOL     OW59164   3.220   5.656   0.393 -0.8684  0.0513  0.1540
19099SOL    HW159165   3.210   5.699   0.478 -2.2727 -2.1239  1.1698
19099SOL    HW259166   3.246   5.727   0.334 -0.5934  1.7832  2.2084
19100SOL     OW59167   2.495   4.190   4.438  0.1700  0.4002 -0.5947
19100SOL    HW159168   2.509   4.285   4.445 -1.2917  0.9399 -3.5055
19100SOL    HW259169   2.409   4.176   4.477  0.1679  0.3473 -0.6186
19101SOL     OW59170   7.631   3.904   8.003 -0.0955  0.1221 -0.1109
19101SOL    HW159171   7.636   3.978   8.064 -1.8310  1.1852 -1.1680
19101SOL    HW259172   7.719   3.897   7.967  0.0184  2.0742 -0.3666
19102SOL     OW59173   6.714   2.539   5.428  0.1651  0.2736  0.1901
19102SOL    HW159174   6.713   2.503   5.517 -1.6285  1.0707  0.5407
19102SOL    HW259175   6.660   2.479   5.377 -0.3793  0.8221  0.0996
19103SOL     OW59176   8.007   2.983   8.721 -0.4168 -0.7057 -0.2150
19103SOL    HW159177   8.098   2.963   8.746  0.1529  0.2303 -1.4489
19103SOL    HW259178   8.014   3.018   8.632 -2.0106 -0.7237 -0.3656
19104SOL     OW59179   2.032   8.268   0.720  0.1968 -0.4045  0.7560
19104SOL    HW159180   2.048   8.246   0.629  1.8525 -0.4292  1.0221
19104SOL    HW259181   2.107   8.322   0.746 -1.0170  0.9271  1.6799
19105SOL     OW59182   6.862   0.571   5.673  0.0970 -0.0374 -0.5275
19105SOL    HW159183   6.850   0.479   5.649 -1.3170 -0.1557  0.5190
19105SOL    HW259184   6.955   0.576   5.698 -0.2649 -1.7498  1.5148
19106SOL     OW59185   3.902   3.512   4.038  0.4040 -0.0752 -0.3822
19106SOL    HW159186   3.834   3.498   3.972  1.5760  0.0238 -1.6802
19106SOL    HW259187   3.982   3.529   3.986  1.1584  1.0665  1.0713
19107SOL     OW59188   8.563   5.789   5.527  0.2679 -0.1643 -0.4033
19107SOL    HW159189   8.474   5.764   5.551  1.0584 -1.9795  0.9037
19107SOL    HW259190   8.614   5.773   5.606  1.9012  0.0200 -1.3755
19108SOL     OW59191   2.223   0.446   4.187 -0.0146  0.0647 -0.1674
19108SOL    HW159192   2.183   0.466   4.102 -0.4327 -0.3460 -0.0715
19108SOL    HW259193   2.157   0.471   4.251  0.4709  0.7814  0.0628
19109SOL     OW59194   0.692   3.285   6.552  0.5188 -0.2787 -0.4803
19109SOL    HW159195   0.782   3.286   6.584  0.6449 -0.5194 -0.8247
19109SOL    HW259196   0.700   3.275   6.457  0.0956 -2.4399 -0.3326
19110SOL     OW59197   6.626   3.621   7.885  0.1622 -0.2888 -0.7699
19110SOL    HW159198   6.633   3.596   7.978  0.3405 -0.1211 -0.7392
19110SOL    HW259199   6.669   3.550   7.838 -1.6661 -1.4201 -0.8707
19111SOL     OW59200   3.488   2.679   6.694 -0.3635 -0.0485 -0.3702
19111SOL    HW159201   3.459   2.625   6.768 -1.8287 -2.2017 -2.3477
19111SOL    HW259202   3.570   2.718   6.723 -0.0256 -2.1189  1.7845
19112SOL     OW59203   5.490   2.499   6.832  0.0231 -0.2521 -0.3485
19112SOL    HW159204   5.518   2.418   6.789  1.0622 -1.4150  2.2769
19112SOL    HW259205   5.536   2.499   6.916 -2.1230  1.6620  0.9634
19113SOL     OW59206   5.063   6.614   5.903  0.1773  0.3810 -0.3961
19113SOL    HW159207   5.097   6.656   5.824  3.0976  1.2844  1.2103
19113SOL    HW259208   5.117   6.648   5.974 -1.8189 -0.9810  1.9430
19114SOL     OW59209   3.928   2.182   8.073 -0.1472 -0.0722 -0.2106
19114SOL    HW159210   4.016   2.142   8.073  0.2639  0.5920  2.9470
19114SOL    HW259211   3.942   2.269   8.036  1.2205  1.0779  2.6846
19115SOL     OW59212   0.279   4.359   7.290  0.6998  0.9093  0.0351
19115SOL    HW159213   0.374   4.359   7.276  0.4317  1.0756 -2.0657
19115SOL    HW259214   0.253   4.449   7.274  0.2084  0.9492  0.9915
19116SOL     OW59215   2.377   1.151   5.076 -0.0503  0.1849 -0.2768
19116SOL    HW159216   2.398   1.083   5.140  1.1549  1.4526  0.7471
19116SOL    HW259217   2.452   1.150   5.016 -0.1234  0.4731 -0.3734
19117SOL     OW59218   6.706   4.181   7.259 -0.1850  0.5285  0.2635
19117SOL    HW159219   6.641   4.120   7.292  0.6010 -0.2601  0.3776
19117SOL    HW259220   6.744   4.222   7.337 -0.4913  0.9494  0.1990
19118SOL     OW59221   4.923   8.154   6.633  0.6777 -0.0646 -0.3233
19118SOL    HW159222   4.950   8.242   6.658  1.4023 -0.5038  0.5157
19118SOL    HW259223   4.839   8.166   6.588  0.7912  1.0468 -0.2642
19119SOL     OW59224   8.977   2.529   5.246  0.5595  0.2169 -0.7058
19119SOL    HW159225   8.912   2.469   5.208 -0.1430  0.3251  0.3040
19119SOL    HW259226   9.059   2.480   5.240 -0.2896 -1.7408  1.8875
19120SOL     OW59227   8.745   6.752   5.477 -0.6082 -0.2808 -0.4351
19120SOL    HW159228   8.836   6.778   5.458 -0.4567  0.0560  0.6871
19120SOL    HW259229   8.712   6.718   5.393  0.0768  0.9621 -1.2511
19121SOL     OW59230   4.653   0.148   4.074  0.8962 -0.1703  0.0746
19121SOL    HW159231   4.584   0.172   4.012  0.7243  2.1556  1.0576
19121SOL    HW259232   4.727   0.204   4.049  2.1268 -1.8916 -0.3162
19122SOL     OW59233   6.096   1.823   0.688  0.4549  0.1479 -0.3984
19122SOL    HW159234   6.003   1.831   0.666  0.3033  0.5350  0.3396
19122SOL    HW259235   6.104   1.737   0.729  0.3789  0.1972 -0.2785
19123SOL     OW59236   1.300   0.548   2.660  0.3002 -0.1752 -0.3301
19123SOL    HW159237   1.228   0.500   2.619  1.6598 -0.2407 -2.8168
19123SOL    HW259238   1.300   0.633   2.617  1.7692 -0.2339 -0.4951
19124SOL     OW59239   6.415   6.721   1.521 -0.5268 -0.4226 -0.3248
19124SOL    HW159240   6.411   6.644   1.577 -1.0628 -0.4796 -0.4394
19124SOL    HW259241   6.507   6.726   1.493 -0.4479 -0.8929 -0.1503
19125SOL     OW59242   6.056   7.148   4.333  0.1916 -0.3053  0.7514
19125SOL    HW159243   6.128   7.156   4.270 -0.4294  0.6143  0.1173
19125SOL    HW259244   6.015   7.064   4.311  0.0175 -0.0240 -0.0548
19126SOL     OW59245   1.447   1.402   7.718 -0.3533  0.2976 -0.0903
19126SOL    HW159246   1.363   1.435   7.685  0.3086  0.7977 -1.3261
19126SOL    HW259247   1.492   1.480   7.752  0.1975  0.2724 -0.7513
19127SOL     OW59248   7.931   7.581   1.298 -0.2438  0.1090  1.0533
19127SOL    HW159249   7.937   7.557   1.390  1.9026  0.8979  1.1628
19127SOL    HW259250   8.011   7.630   1.280  0.3330 -1.5969 -1.7011
19128SOL     OW59251   7.764   4.960   6.530 -0.0705  0.3340  0.6630
19128SOL    HW159252   7.836   5.019   6.553  0.5674 -0.0798 -0.2366
19128SOL    HW259253   7.754   4.905   6.607  0.0916  0.8586  1.0723
19129SOL     OW59254   6.345   5.059   3.347 -0.5350 -0.1532  0.3411
19129SOL    HW159255   6.298   4.984   3.383  0.7515 -1.9862 -1.5528
19129SOL    HW259256   6.295   5.084   3.269 -0.6698  0.6567  0.6755
19130SOL     OW59257   4.217   7.524   2.535 -0.2891  0.3941  0.3017
19130SOL    HW159258   4.279   7.466   2.491 -1.0529 -0.1917 -0.0375
19130SOL    HW259259   4.246   7.527   2.626  1.5487  1.9260 -0.2726
19131SOL     OW59260   3.053   1.441   4.863 -0.5122  0.2320 -0.4233
19131SOL    HW159261   3.146   1.462   4.876 -0.1954 -1.4972  0.5418
19131SOL    HW259262   3.047   1.414   4.772 -0.6853  3.0178 -1.3088
19132SOL     OW59263   7.061   8.649   0.795  0.6026  0.1236 -0.2447
19132SOL    HW159264   7.150   8.657   0.829  0.2042  1.4964  0.5712
19132SOL    HW259265   7.048   8.727   0.741 -0.4471  0.5444  0.5576
19133SOL     OW59266   2.939   2.008   0.024 -0.5105 -0.2505 -0.1070
19133SOL    HW159267   2.970   2.060  -0.050 -0.8923 -1.3671 -1.0914
19133SOL    HW259268   2.995   1.930   0.023 -2.1780 -1.5054 -0.8854
19134SOL     OW59269   3.154   5.324   4.358 -0.0156 -0.0995  0.1666
19134SOL    HW159270   3.167   5.415   4.333 -0.2736  0.2612  1.2682
19134SOL    HW259271   3.178   5.321   4.451  0.8034 -1.3346 -0.0477
19135SOL     OW59272   7.681   7.630   5.911  0.1284 -0.5735 -0.1050
19135SOL    HW159273   7.609   7.586   5.866 -0.9267  1.4492 -0.5160
19135SOL    HW259274   7.637   7.682   5.979  1.3098 -0.1123  0.3226
19136SOL     OW59275   7.085   2.733   1.955  0.0658 -0.4833  0.5660
19136SOL    HW159276   7.078   2.710   1.863  0.1299 -1.5988  0.8295
19136SOL    HW259277   7.001   2.706   1.993 -0.5640  1.3371  0.5704
19137SOL     OW59278   3.260   6.278   1.256  0.1816 -0.4539 -0.6937
19137SOL    HW159279   3.306   6.362   1.246  0.1736 -0.1950  1.2195
19137SOL    HW259280   3.176   6.301   1.294 -0.0114 -1.3062 -0.5829
19138SOL     OW59281   6.117   7.702   2.837 -0.9695 -0.8913  0.6391
19138SOL    HW159282   6.177   7.652   2.893  0.4140 -0.8889 -0.7795
19138SOL    HW259283   6.136   7.794   2.856  0.4233 -0.8700 -0.7186
19139SOL     OW59284   7.870   3.180   3.234  0.2423  0.0633  0.5274
19139SOL    HW159285   7.902   3.093   3.211 -1.1369 -0.7442  1.4979
19139SOL    HW259286   7.831   3.214   3.154  1.9180  0.3508 -0.2026
19140SOL     OW59287   8.630   3.107   8.093 -0.7370 -0.6635 -0.2700
19140SOL    HW159288   8.602   3.016   8.083 -1.5270 -0.2729 -1.8635
19140SOL    HW259289   8.552   3.158   8.073 -0.1060  0.3801 -0.1213
19141SOL     OW59290   1.573   4.716   8.848  0.2459  0.4097 -0.1613
19141SOL    HW159291   1.667   4.722   8.831 -0.1358  1.0049 -2.4258
19141SOL    HW259292   1.543   4.645   8.792 -0.5149 -0.5890  1.4370
19142SOL     OW59293   8.355   0.844   2.684  0.4051 -0.2144  0.5216
19142SOL    HW159294   8.397   0.784   2.746  1.2114  1.0262  1.2346
19142SOL    HW259295   8.353   0.928   2.730  0.1744  0.5313 -0.7915
19143SOL     OW59296   5.146   7.381   8.222  0.1040  0.0250  0.2931
19143SOL    HW159297   5.051   7.386   8.208  0.1271  0.6250  0.3358
19143SOL    HW259298   5.164   7.445   8.291  0.0778 -2.4544  2.7879
19144SOL     OW59299   2.347   8.927   5.630 -0.1686  0.1460  0.0053
19144SOL    HW159300   2.348   9.008   5.681 -0.5437 -0.8661  1.6995
19144SOL    HW259301   2.258   8.893   5.642  0.1605 -0.8145 -0.1968
19145SOL     OW59302   2.059   2.007   8.678  0.1748 -0.9250 -0.5766
19145SOL    HW159303   2.109   1.934   8.714  1.2494 -0.7156 -1.5757
19145SOL    HW259304   1.988   2.021   8.741  1.0066 -1.6381  0.5582
19146SOL     OW59305   6.087   4.193   3.315  0.7416 -0.4109 -0.9527
19146SOL    HW159306   6.087   4.254   3.242  1.5773  0.5782 -0.1747
19146SOL    HW259307   6.048   4.241   3.387 -0.6941 -1.5988 -0.8888
19147SOL     OW59308   0.149   5.802   6.483 -0.4382  0.2860  0.0231
19147SOL    HW159309   0.180   5.892   6.467 -3.2288  1.5122  0.8869
19147SOL    HW259310   0.098   5.781   6.405 -1.3601  0.2074  0.6457
19148SOL     OW59311   7.917   4.997   4.149  0.6024  0.6219  0.2243
19148SOL    HW159312   7.938   4.908   4.177  1.3113 -0.6754 -3.7005
19148SOL    HW259313   7.821   4.999   4.144  0.5156  0.5744  1.5452
19149SOL     OW59314   8.885   2.286   2.218  0.3686  0.1981 -0.0070
19149SOL    HW159315   8.798   2.252   2.197 -0.0479  1.7333 -0.9199
19149SOL    HW259316   8.922   2.221   2.277 -1.5907 -0.2541  0.8249
19150SOL     OW59317   4.655   8.746   5.859 -0.6955 -0.6739  0.3099
19150SOL    HW159318   4.602   8.693   5.799 -0.0288  0.3026 -1.2202
19150SOL    HW259319   4.697   8.810   5.802  1.4914 -0.9005  1.5801
19151SOL     OW59320   6.452   1.685   6.600  0.5150 -0.0554  0.1641
19151SOL    HW159321   6.418   1.633   6.672  1.2481 -1.3014 -0.3497
19151SOL    HW259322   6.547   1.674   6.606  0.7848  2.1383  0.6892
19152SOL     OW59323   8.623   7.919   6.427 -0.1699 -0.4214  0.0675
19152SOL    HW159324   8.641   7.875   6.344 -1.1355  0.1825 -0.4812
19152SOL    HW259325   8.597   7.848   6.486  0.5249 -0.8541 -0.1349
19153SOL     OW59326   8.005   3.118   8.455  0.3369  0.1741  0.1571
19153SOL    HW159327   8.068   3.169   8.403 -0.1779 -0.3636 -1.0366
19153SOL    HW259328   7.988   3.040   8.402 -0.5907 -0.1515  0.9083
19154SOL     OW59329   6.677   0.121   5.440  0.0969 -0.3736  0.3163
19154SOL    HW159330   6.660   0.050   5.501  1.5625 -1.7354 -0.7763
19154SOL    HW259331   6.598   0.126   5.386  0.3242 -1.7893 -0.1642
19155SOL     OW59332   7.149   1.097   7.016 -0.5974  0.3295 -0.6816
19155SOL    HW159333   7.168   1.164   6.950  0.1625 -0.0468 -0.8598
19155SOL    HW259334   7.060   1.116   7.045 -1.2824 -0.0344 -2.4529
19156SOL     OW59335   8.689   7.319   4.948 -0.0925  0.0473  0.3622
19156SOL    HW159336   8.672   7.363   5.031 -1.2721 -0.5451  0.4489
19156SOL    HW259337   8.686   7.226   4.969  0.0655 -0.0996 -0.2557
19157SOL     OW59338   0.494   2.500   8.441  0.4581 -0.3269 -0.0686
19157SOL    HW159339   0.432   2.427   8.446  2.1273 -1.8750 -0.9316
19157SOL    HW259340   0.561   2.471   8.379  1.3744  1.8218 -0.1837
19158SOL     OW59341   2.525   5.862   8.809 -0.2117 -0.1661  0.4286
19158SOL    HW159342   2.502   5.850   8.717  1.4765  0.3359 -0.1051
19158SOL    HW259343   2.442   5.858   8.856 -1.2835  1.0689 -1.2656
19159SOL     OW59344   3.964   3.522   6.082 -0.2299  0.0922  0.0802
19159SOL    HW159345   3.870   3.506   6.086  0.0291 -1.2843  2.4245
19159SOL    HW259346   3.972   3.612   6.049 -2.3676  0.3702  0.2045
19160SOL     OW59347   0.633   5.866   3.356  0.7523 -0.6712  0.4747
19160SOL    HW159348   0.615   5.773   3.373 -0.5586 -0.8063 -1.3404
19160SOL    HW259349   0.707   5.865   3.296  0.5087 -0.5890  0.1653
19161SOL     OW59350   7.240   1.333   1.076 -0.0566 -0.1276  0.3040
19161SOL    HW159351   7.279   1.405   1.028 -0.6902 -0.3979 -0.6320
19161SOL    HW259352   7.156   1.367   1.108 -0.6864 -0.6506 -0.7433
19162SOL     OW59353   2.408   4.515   7.052 -0.2358 -0.1729 -0.4384
19162SOL    HW159354   2.482   4.510   7.113  1.4182  2.9510 -1.9175
19162SOL    HW259355   2.395   4.425   7.024  0.0898 -1.4902  3.0671
19163SOL     OW59356   7.935   8.186   2.100  0.2604 -0.0847 -0.2614
19163SOL    HW159357   8.030   8.179   2.112  0.1877 -0.8584 -0.0961
19163SOL    HW259358   7.906   8.096   2.086 -0.8677 -0.2913  2.7253
19164SOL     OW59359   2.138   5.697   8.570 -0.2999 -0.0362  0.0465
19164SOL    HW159360   2.090   5.777   8.550 -0.2831  0.0594  0.3926
19164SOL    HW259361   2.080   5.648   8.629 -0.7468 -0.7379 -0.9401
19165SOL     OW59362   4.958   8.309   3.231 -0.3161  0.1756 -0.3270
19165SOL    HW159363   4.891   8.302   3.299  0.2496  1.6898  0.4277
19165SOL    HW259364   5.028   8.360   3.272  0.2201  0.7587 -1.9148
19166SOL     OW59365   2.301   7.952   8.147  0.0893  0.0068 -0.0486
19166SOL    HW159366   2.209   7.974   8.163 -0.3036 -1.4495 -0.1354
19166SOL    HW259367   2.335   7.932   8.234  0.1960  0.1166 -0.0665
19167SOL     OW59368   2.028   7.323   0.956 -0.0769  0.0872 -0.4867
19167SOL    HW159369   1.960   7.265   0.923  0.4361 -0.5184 -0.5015
19167SOL    HW259370   2.061   7.369   0.879 -0.8722  0.8229 -0.3952
19168SOL     OW59371   8.894   7.839   4.831  0.0880  0.2825 -0.1821
19168SOL    HW159372   8.901   7.853   4.737 -1.0524  0.6750 -0.2172
19168SOL    HW259373   8.852   7.918   4.865 -1.4793 -0.7385  0.3522
19169SOL     OW59374   5.083   2.922   3.871  0.8871 -0.4497  0.0756
19169SOL    HW159375   5.060   2.868   3.795 -0.6584  0.6391 -0.2706
19169SOL    HW259376   5.118   2.859   3.934 -0.2046 -1.7876 -0.5738
19170SOL     OW59377   5.831   1.876   4.236  0.1105 -0.1674 -0.7908
19170SOL    HW159378   5.879   1.866   4.153 -0.1556 -1.2384 -0.8243
19170SOL    HW259379   5.896   1.913   4.296 -0.3696  3.2294 -2.1216
19171SOL     OW59380   2.051   0.012   8.867  0.1079 -0.0193  0.0314
19171SOL    HW159381   2.050   0.107   8.857  0.4003  0.0561  0.6537
19171SOL    HW259382   2.033  -0.003   8.960 -0.2044 -0.5818 -0.1142
19172SOL     OW59383   4.699   5.369   2.452  0.6503 -0.1414  0.2094
19172SOL    HW159384   4.717   5.432   2.383  0.1641  0.5634  0.7092
19172SOL    HW259385   4.783   5.329   2.471  0.6830 -0.8438 -1.2518
19173SOL     OW59386   1.932   8.466   0.279  0.2105  0.3488  0.7721
19173SOL    HW159387   1.865   8.407   0.315 -1.0700  1.3707  0.1596
19173SOL    HW259388   2.004   8.408   0.255  0.0644 -0.6633  2.5678
19174SOL     OW59389   0.563   5.404   4.786  0.6877 -0.1778  0.5971
19174SOL    HW159390   0.578   5.444   4.872 -0.9544  2.1113 -0.0931
19174SOL    HW259391   0.523   5.320   4.806 -2.7839  1.6479  2.1650
19175SOL     OW59392   7.650   7.007   6.483 -0.1869  0.4083 -0.0805
19175SOL    HW159393   7.612   7.048   6.405  1.3485  0.8507 -0.6132
19175SOL    HW259394   7.658   6.915   6.461 -1.8457  0.0988  0.4184
19176SOL     OW59395   5.840   4.296   6.528 -0.3812 -0.1329  0.1580
19176SOL    HW159396   5.905   4.269   6.463 -0.1215  1.7439 -0.4327
19176SOL    HW259397   5.778   4.223   6.532  0.4413 -0.9426 -1.0474
19177SOL     OW59398   3.271   6.550   8.053  0.0450 -0.2672  0.0087
19177SOL    HW159399   3.280   6.644   8.067 -0.4907 -0.1151 -0.5848
19177SOL    HW259400   3.357   6.522   8.022  0.8328 -0.3702  2.1572
19178SOL     OW59401   2.917   4.393   7.866 -0.6139 -0.3238  0.9200
19178SOL    HW159402   2.911   4.314   7.919  0.1717 -0.0490  1.4271
19178SOL    HW259403   2.997   4.382   7.815 -0.4764  0.1685  1.0275
19179SOL     OW59404   7.220   5.433   1.677  0.5374 -0.2927  0.0020
19179SOL    HW159405   7.260   5.520   1.674 -0.6138  0.2356 -0.7860
19179SOL    HW259406   7.205   5.411   1.585  0.5025 -1.1843  0.2141
19180SOL     OW59407   3.402   8.820   0.469 -0.4317 -0.0716 -0.3441
19180SOL    HW159408   3.339   8.758   0.434  0.6042 -1.7714  0.6840
19180SOL    HW259409   3.350   8.899   0.486 -1.2937  0.4141 -4.1602
19181SOL     OW59410   2.647   4.715   0.864 -0.8396 -0.2912 -0.1365
19181SOL    HW159411   2.644   4.640   0.923  1.7648 -1.4921 -1.3848
19181SOL    HW259412   2.728   4.760   0.886 -0.2685 -0.2464 -2.1494
19182SOL     OW59413   4.056   7.781   8.255  0.5083 -0.5796  0.9149
19182SOL    HW159414   4.149   7.778   8.231  0.2182 -2.2552 -0.1312
19182SOL    HW259415   4.011   7.736   8.183 -1.0234 -0.6421  1.8723
19183SOL     OW59416   6.991   6.884   0.980  0.5803 -0.0086  0.0879
19183SOL    HW159417   6.987   6.790   1.002  0.4725 -0.2806 -1.0197
19183SOL    HW259418   6.903   6.905   0.951  1.1874 -0.1977 -2.0279
19184SOL     OW59419   1.287   2.436   3.014  0.2030 -0.0898  0.2573
19184SOL    HW159420   1.229   2.360   3.009  0.3306 -0.1175 -1.1066
19184SOL    HW259421   1.329   2.439   2.929  1.5063  0.4963  0.9052
19185SOL     OW59422   6.269   6.533   4.161 -0.1625 -0.4595  0.4479
19185SOL    HW159423   6.178   6.505   4.147 -0.5409  0.4191  1.0667
19185SOL    HW259424   6.287   6.512   4.252  0.1559 -0.3477  0.4130
19186SOL     OW59425   1.109   3.567   6.360 -0.3348 -0.3871 -0.5845
19186SOL    HW159426   1.184   3.610   6.401 -1.3556  1.6483 -0.7298
19186SOL    HW259427   1.033   3.609   6.399 -1.4133 -1.7159 -1.1665
19187SOL     OW59428   4.980   5.657   6.604  0.7537 -0.3894  0.3608
19187SOL    HW159429   5.012   5.726   6.546  1.1136 -0.2229  0.7569
19187SOL    HW259430   4.982   5.695   6.691 -2.6192  0.4014  0.2315
19188SOL     OW59431   6.021   8.715   1.078 -0.4371 -0.3013 -0.4967
19188SOL    HW159432   6.003   8.805   1.052 -1.8756 -0.0199  1.2751
19188SOL    HW259433   6.104   8.694   1.036 -0.6215  1.4555 -1.8517
19189SOL     OW59434   2.591   3.254   7.999 -0.3392 -0.0209 -0.2724
19189SOL    HW159435   2.674   3.212   7.975 -0.9732 -0.7065 -1.3520
19189SOL    HW259436   2.555   3.286   7.916 -0.4469  1.6447  0.3733
19190SOL     OW59437   5.285   5.427   2.690  0.4819  0.2297  0.3186
19190SOL    HW159438   5.301   5.445   2.782 -0.7428  0.4752  0.4999
19190SOL    HW259439   5.253   5.337   2.689 -0.1893  0.4620  0.2273
19191SOL     OW59440   1.898   1.528   8.870  0.5741  0.0404  0.0421
19191SOL    HW159441   1.858   1.528   8.784 -1.8425  2.0360  1.0447
19191SOL    HW259442   1.838   1.479   8.926  1.4338 -0.1073  0.8817
19192SOL     OW59443   0.549   0.179   7.187  0.4816  0.1153 -0.3728
19192SOL    HW159444   0.488   0.105   7.192 -1.7558  1.6330 -2.8600
19192SOL    HW259445   0.609   0.157   7.116  1.1801 -0.2143  0.3091
19193SOL     OW59446   0.592   7.076   5.501  0.2288 -0.0207  0.0005
19193SOL    HW159447   0.640   7.126   5.568 -1.3082  2.1228 -0.3775
19193SOL    HW259448   0.569   6.994   5.544 -1.3848  1.6003  2.4623
19194SOL     OW59449   4.808   7.379   5.807  0.3132 -0.4414 -0.5259
19194SOL    HW159450   4.831   7.412   5.894  0.6264 -0.6552 -0.5266
19194SOL    HW259451   4.773   7.291   5.823 -0.6060 -0.0820 -0.5144
19195SOL     OW59452   6.329   0.500   3.040 -0.2929  0.0765  0.7052
19195SOL    HW159453   6.248   0.542   3.012 -2.0205 -3.7034 -0.7028
19195SOL    HW259454   6.320   0.492   3.135 -0.8173  1.0524  0.7557
19196SOL     OW59455   6.567   5.839   2.608  0.4866 -0.3784 -0.2559
19196SOL    HW159456   6.527   5.753   2.594  0.4477 -0.6123  1.1737
19196SOL    HW259457   6.657   5.829   2.576  0.8005 -1.2753  0.8552
19197SOL     OW59458   8.825   7.504   4.801  0.3188 -0.0479  0.5257
19197SOL    HW159459   8.786   7.453   4.872 -0.3013  0.7152  0.7524
19197SOL    HW259460   8.893   7.556   4.844 -0.2483  0.6289  0.6366
19198SOL     OW59461   6.233   6.804   7.984 -0.5203 -0.2493 -0.3922
19198SOL    HW159462   6.143   6.823   7.956 -0.3665 -0.5136 -1.0930
19198SOL    HW259463   6.255   6.876   8.044 -1.5224 -0.6982  0.5405
19199SOL     OW59464   7.157   4.944   4.555 -0.0353 -0.2244  0.9975
19199SOL    HW159465   7.158   4.990   4.472  0.7008 -1.9071  0.0158
19199SOL    HW259466   7.162   4.851   4.531  0.6882 -0.7344  2.9219
19200SOL     OW59467   3.800   7.823   3.300  0.0936  0.6461 -0.0213
19200SOL    HW159468   3.859   7.763   3.345  0.8015  1.2862 -0.0692
19200SOL    HW259469   3.855   7.864   3.233  0.1837  2.7545  1.2387
19201SOL     OW59470   2.437   3.919   3.682 -0.7413 -0.1093 -0.6656
19201SOL    HW159471   2.417   3.985   3.616  1.9157  2.5527  0.9186
19201SOL    HW259472   2.531   3.903   3.671 -0.1705  0.5173  2.4055
19202SOL     OW59473   5.030   2.223   2.482 -0.4373  0.0301  0.9088
19202SOL    HW159474   5.092   2.245   2.552  1.5244 -0.9516 -0.4351
19202SOL    HW259475   5.047   2.287   2.413  0.4172 -1.3226 -0.1918
19203SOL     OW59476   7.394   2.019   4.608 -0.1801  0.1212 -0.0862
19203SOL    HW159477   7.340   2.033   4.531  0.6330  2.0310 -0.3493
19203SOL    HW259478   7.476   1.983   4.573 -0.4482 -0.6828  0.0894
19204SOL     OW59479   8.498   1.184   7.774 -0.1901 -0.0988 -0.1629
19204SOL    HW159480   8.502   1.092   7.799 -0.2017  0.0859  0.5350
19204SOL    HW259481   8.510   1.232   7.856 -0.7837  0.5182 -0.4258
19205SOL     OW59482   6.062   7.117   5.213 -0.1751  0.0711 -0.4055
19205SOL    HW159483   6.119   7.187   5.180  0.4285 -0.8970 -1.4645
19205SOL    HW259484   6.078   7.043   5.155 -1.3128 -0.7471  0.2844
19206SOL     OW59485   7.402   2.588   1.577  0.3469  0.2420  0.3497
19206SOL    HW159486   7.418   2.545   1.493  0.6512  0.0281  0.5129
19206SOL    HW259487   7.451   2.535   1.641 -0.5270 -0.0621  0.7798
19207SOL     OW59488   6.250   8.293   5.855  0.1370  0.2847 -0.3318
19207SOL    HW159489   6.192   8.344   5.913  0.8444  0.6495  0.0631
19207SOL    HW259490   6.211   8.206   5.854 -0.6791  0.6353 -0.4289
19208SOL     OW59491   2.128   7.097   7.080  0.2479 -0.2580 -0.3744
19208SOL    HW159492   2.089   7.136   7.002 -1.2889 -0.3907  0.3090
19208SOL    HW259493   2.090   7.009   7.084  1.5224 -0.8279 -0.3305
19209SOL     OW59494   8.068   2.801   4.744  0.4094 -0.1221 -0.3900
19209SOL    HW159495   8.013   2.832   4.672 -0.5451  0.8208  0.7153
19209SOL    HW259496   8.126   2.875   4.764 -2.2455  1.3748  2.6233
19210SOL     OW59497   7.097   7.592   3.517 -0.2488  0.1654  0.4605
19210SOL    HW159498   7.004   7.572   3.522 -0.1711 -0.0750  1.0108
19210SOL    HW259499   7.118   7.583   3.424 -0.4460 -1.2805  0.5267
19211SOL     OW59500   7.150   3.270   2.697 -0.5129  0.0391 -0.0750
19211SOL    HW159501   7.099   3.325   2.757  2.5681  2.0364  0.9684
19211SOL    HW259502   7.229   3.248   2.746  0.6491 -1.0685 -2.2864
19212SOL     OW59503   0.388   8.725   5.481  0.1712  0.0916  0.4675
19212SOL    HW159504   0.332   8.802   5.489  1.7972  1.2663  0.7808
19212SOL    HW259505   0.350   8.676   5.408  0.2521  2.1752 -1.0511
19213SOL     OW59506   0.765   0.117   2.509 -0.4913 -0.0955  0.1618
19213SOL    HW159507   0.811   0.106   2.426 -1.3711 -0.1500 -0.3311
19213SOL    HW259508   0.823   0.077   2.574  0.1003 -0.2603 -0.4553
19214SOL     OW59509   5.480   2.304   8.788  0.8641 -0.4465  0.5863
19214SOL    HW159510   5.488   2.225   8.735  1.0000 -0.8614  1.2122
19214SOL    HW259511   5.441   2.369   8.729  1.4448 -0.7542 -0.1561
19215SOL     OW59512   0.901   5.854   4.849  0.5206 -0.2975 -0.0555
19215SOL    HW159513   0.900   5.759   4.861  2.5546 -0.3166  0.1811
19215SOL    HW259514   0.950   5.867   4.768  0.6292  0.5738  0.1458
19216SOL     OW59515   0.645   2.622   8.661  0.9270  0.3009 -0.2313
19216SOL    HW159516   0.718   2.562   8.672  0.4873 -0.4002 -0.9897
19216SOL    HW259517   0.584   2.575   8.603  1.6823  2.4085 -2.9630
19217SOL     OW59518   3.305   8.626   6.286 -0.1726 -0.4819 -0.0162
19217SOL    HW159519   3.278   8.644   6.196 -1.8789  1.6559  0.8420
19217SOL    HW259520   3.400   8.616   6.281  0.0896  1.9661 -1.7442
19218SOL     OW59521   4.831   3.852   5.544 -0.8080  0.1557 -0.3804
19218SOL    HW159522   4.833   3.780   5.606 -0.6273  0.1169 -0.4287
19218SOL    HW259523   4.901   3.831   5.482 -0.2790  0.7325  0.0129
19219SOL     OW59524   6.484   5.203   8.073  0.1824  0.0632 -0.0729
19219SOL    HW159525   6.400   5.158   8.082  0.1907  0.3335  1.6302
19219SOL    HW259526   6.476   5.253   7.992 -1.2299 -0.0825 -0.0444
19220SOL     OW59527   1.325   7.432   7.152  0.1131  0.0314  0.4861
19220SOL    HW159528   1.244   7.381   7.149  0.8749 -1.2037  0.0019
19220SOL    HW259529   1.312   7.503   7.089  0.1031 -1.2706 -1.0406
19221SOL     OW59530   4.185   0.240   2.794 -0.0462 -0.9171  0.5963
19221SOL    HW159531   4.114   0.304   2.795 -1.0644 -2.0163  1.2704
19221SOL    HW259532   4.258   0.284   2.836 -0.0066  0.5515 -0.9159
19222SOL     OW59533   4.949   4.963   3.384  0.0551 -0.4744  0.0483
19222SOL    HW159534   5.040   4.994   3.378 -0.7120  2.4669  1.6709
19222SOL    HW259535   4.910   5.016   3.453 -3.5993  0.2285 -2.2696
19223SOL     OW59536   7.175   2.404   2.898 -0.0831 -0.4931 -0.7673
19223SOL    HW159537   7.136   2.418   2.984  1.7184  0.0774 -0.0196
19223SOL    HW259538   7.105   2.360   2.848 -2.2805  1.8775 -0.0129
19224SOL     OW59539   6.480   5.624   4.742  0.5966  0.1770  0.0236
19224SOL    HW159540   6.525   5.548   4.703 -2.0436 -1.6720  0.3020
19224SOL    HW259541   6.518   5.632   4.829  1.2995 -0.4446 -0.2101
19225SOL     OW59542   3.823   5.168   1.994  0.3716 -0.2454  0.0274
19225SOL    HW159543   3.876   5.089   1.980  2.4432  0.5402  2.4895
19225SOL    HW259544   3.878   5.239   1.963  0.8306  0.5962  2.5704
19226SOL     OW59545   6.850   0.474   0.962  0.2019  0.3754  0.3426
19226SOL    HW159546   6.758   0.487   0.983  0.2947  1.5379  0.1027
19226SOL    HW259547   6.867   0.383   0.985 -1.1217 -0.0023 -0.0764
19227SOL     OW59548   1.113   4.692   5.470 -0.1998  0.5344  0.3266
19227SOL    HW159549   1.096   4.757   5.538  1.2939  0.6420  0.6332
19227SOL    HW259550   1.045   4.709   5.404 -0.8061  1.3528  1.1285
19228SOL     OW59551   8.086   4.436   3.312 -0.4326  0.0222 -0.2723
19228SOL    HW159552   8.097   4.531   3.304  1.1005 -0.1051  0.0614
19228SOL    HW259553   8.058   4.423   3.402 -1.3526  0.2003 -0.5238
19229SOL     OW59554   7.522   8.744   5.785  0.3771 -1.0603  0.3786
19229SOL    HW159555   7.592   8.759   5.723  1.0903 -1.2746  1.1114
19229SOL    HW259556   7.552   8.671   5.839 -1.0114 -2.0874 -0.1679
19230SOL     OW59557   2.190   2.185   0.579 -0.0889 -0.4708  0.0737
19230SOL    HW159558   2.226   2.130   0.510 -1.2843  0.3834 -1.2803
19230SOL    HW259559   2.128   2.128   0.625 -2.2424 -0.0104 -2.0914
19231SOL     OW59560   2.178   7.792   3.894 -0.4825 -0.0084 -0.0234
19231SOL    HW159561   2.222   7.711   3.870 -0.2052 -0.0573  0.6335
19231SOL    HW259562   2.197   7.803   3.987 -1.6230  0.1169  0.2141
19232SOL     OW59563   0.215   2.792   6.290 -0.0544 -0.2173 -0.3357
19232SOL    HW159564   0.265   2.866   6.323 -1.0918  0.5127 -0.3700
19232SOL    HW259565   0.275   2.748   6.229  1.1877 -0.4587  1.0020
19233SOL     OW59566   2.716   7.045   6.593  0.4463 -0.1375 -0.3724
19233SOL    HW159567   2.752   6.972   6.542 -1.2781 -1.1274 -0.2497
19233SOL    HW259568   2.764   7.041   6.676  1.2328 -0.3369 -0.8163
19234SOL     OW59569   3.553   7.091   4.324  0.2570 -0.5650  0.1700
19234SOL    HW159570   3.633   7.038   4.326  1.8318  1.7021  1.1181
19234SOL    HW259571   3.571   7.158   4.258 -1.5613 -0.9436 -0.7706
19235SOL     OW59572   0.246   5.037   5.450  0.2068  0.0333 -0.0001
19235SOL    HW159573   0.245   4.965   5.514  2.4156  0.9728  1.2243
19235SOL    HW259574   0.155   5.065   5.445 -0.0988 -0.2026  2.6589
19236SOL     OW59575   5.719   2.930   7.850 -0.1040  0.0201 -0.4604
19236SOL    HW159576   5.777   2.915   7.925  0.8763  0.3132 -1.1416
19236SOL    HW259577   5.775   2.971   7.785 -0.7632 -0.8788 -1.6311
19237SOL     OW59578   5.954   3.392   2.170  0.0648  0.4709  0.4900
19237SOL    HW159579   5.995   3.323   2.222  0.6393  1.3562  1.2507
19237SOL    HW259580   5.881   3.349   2.125  0.7950 -0.7590  0.4471
19238SOL     OW59581   0.371   1.707   2.651 -0.1117 -0.0561 -0.3275
19238SOL    HW159582   0.422   1.728   2.729  0.0315 -0.6062 -0.2650
19238SOL    HW259583   0.437   1.700   2.581 -0.1495 -0.3160 -0.3395
19239SOL     OW59584   3.628   0.746   2.580  0.0560  0.5503 -0.0354
19239SOL    HW159585   3.578   0.772   2.658  1.2459  1.9693  0.2915
19239SOL    HW259586   3.596   0.805   2.511  1.2563  1.5053  0.1892
19240SOL     OW59587   5.099   0.025   8.245 -0.4124  0.2978 -0.5651
19240SOL    HW159588   5.112   0.001   8.337 -0.5479 -0.5616 -0.7662
19240SOL    HW259589   5.150   0.105   8.235  0.1706  0.0252  0.0880
19241SOL     OW59590   5.097   5.371   4.915 -0.1965 -0.0422 -0.4486
19241SOL    HW159591   5.026   5.308   4.927 -1.2812  1.0099 -1.1148
19241SOL    HW259592   5.160   5.327   4.859 -0.9079 -0.5684 -0.8493
19242SOL     OW59593   8.712   2.227   8.675  0.5030 -0.3367  0.2191
19242SOL    HW159594   8.637   2.218   8.616  1.1874  0.9030 -0.9023
19242SOL    HW259595   8.732   2.138   8.703  0.7636 -1.1132 -2.2289
19243SOL     OW59596   0.087   3.146   7.375 -0.1671  0.7563  0.2122
19243SOL    HW159597   0.034   3.223   7.351 -1.4260  0.7548  2.7243
19243SOL    HW259598   0.164   3.183   7.417  0.3229  0.6637 -0.5807
19244SOL     OW59599   3.864   6.275   7.318  0.7570  0.3715  1.0249
19244SOL    HW159600   3.887   6.223   7.396 -1.1958 -0.9795  0.7679
19244SOL    HW259601   3.778   6.311   7.338  0.4345  0.3947 -0.3105
19245SOL     OW59602   5.670   1.171   3.043  0.4957 -0.2096  0.4959
19245SOL    HW159603   5.732   1.106   3.010 -0.8021 -0.2804 -1.9929
19245SOL    HW259604   5.694   1.252   2.998 -0.3417  0.0991  0.5934
19246SOL     OW59605   5.952   6.467   0.488  0.0141  0.7031 -0.0791
19246SOL    HW159606   6.046   6.482   0.496  0.0823  0.0884  0.3045
19246SOL    HW259607   5.923   6.529   0.421  0.1882  3.0405  1.8519
19247SOL     OW59608   5.191   5.477   0.439 -0.6028 -0.4114  0.4621
19247SOL    HW159609   5.159   5.432   0.360 -0.1942  0.0628  0.0203
19247SOL    HW259610   5.126   5.546   0.455  0.4899  1.0009 -0.8380
19248SOL     OW59611   8.762   2.464   1.688 -0.0950  0.1063  0.2819
19248SOL    HW159612   8.702   2.394   1.713 -0.0690  0.2966  0.9065
19248SOL    HW259613   8.715   2.545   1.710  0.2702  0.2621  0.5075
19249SOL     OW59614   3.757   7.903   7.105 -0.0814 -0.7517  0.1300
19249SOL    HW159615   3.719   7.925   7.191  0.0273  2.0653 -0.4435
19249SOL    HW259616   3.826   7.968   7.092  1.0058 -2.1406 -1.4275
19250SOL     OW59617   5.614   5.237   2.824 -0.4488 -0.5710 -0.1796
19250SOL    HW159618   5.694   5.228   2.876  0.4551 -1.1735 -1.6381
19250SOL    HW259619   5.602   5.332   2.816  0.5696 -0.4665 -0.6051
19251SOL     OW59620   8.398   6.694   7.812  0.6412 -0.4247 -0.1755
19251SOL    HW159621   8.462   6.716   7.880 -1.5385  1.9581  1.3172
19251SOL    HW259622   8.432   6.736   7.733  1.3123  0.1815  0.4170
19252SOL     OW59623   6.668   3.982   2.339  0.1201 -0.0988 -0.7769
19252SOL    HW159624   6.736   4.038   2.378  1.4140 -1.6972 -0.6143
19252SOL    HW259625   6.675   3.998   2.245  1.2761 -0.8115 -0.8279
19253SOL     OW59626   5.910   6.368   0.142  0.5156 -0.0629 -0.1158
19253SOL    HW159627   5.913   6.295   0.080 -1.3033 -0.5081  0.2518
19253SOL    HW259628   5.826   6.358   0.186  0.3761  2.0755  0.1955
19254SOL     OW59629   2.247   2.896   1.206 -0.5697 -0.2060  0.2532
19254SOL    HW159630   2.315   2.837   1.240  1.5650 -0.1723 -3.4035
19254SOL    HW259631   2.238   2.964   1.272  1.9863 -0.9857  1.5178
19255SOL     OW59632   5.171   1.912   1.845  0.6118  0.0610 -0.0263
19255SOL    HW159633   5.187   2.002   1.818  1.3757 -0.3850 -1.1122
19255SOL    HW259634   5.200   1.909   1.936  2.0277  0.5405 -0.4439
19256SOL     OW59635   4.908   3.183   2.600  0.9738 -0.4753  0.2862
19256SOL    HW159636   4.959   3.224   2.530  3.5250 -0.6030  1.9526
19256SOL    HW259637   4.902   3.090   2.575 -1.1724  0.0356 -1.3946
19257SOL     OW59638   3.634   4.050   2.225 -0.4541  0.1006  0.3066
19257SOL    HW159639   3.718   4.022   2.189 -0.3885 -0.6749  1.0065
19257SOL    HW259640   3.656   4.091   2.309 -0.8509 -1.3485  1.1565
19258SOL     OW59641   8.942   6.640   6.376 -0.1010 -0.3590 -0.1495
19258SOL    HW159642   8.975   6.723   6.411 -0.3907 -0.3122  0.0220
19258SOL    HW259643   8.874   6.666   6.313  0.9076 -0.4207 -1.2869
19259SOL     OW59644   0.533   4.082   1.567 -0.1852 -0.3382  0.3231
19259SOL    HW159645   0.548   4.065   1.474  1.7530  0.2922  0.4865
19259SOL    HW259646   0.541   3.996   1.609 -1.6662 -0.7222 -0.1291
19260SOL     OW59647   8.304   0.095   8.060 -0.2084 -0.0856  0.5766
19260SOL    HW159648   8.386   0.142   8.069  0.2470 -0.7367 -0.0486
19260SOL    HW259649   8.316   0.016   8.113 -1.1210  0.6700  1.9655
19261SOL     OW59650   0.116   3.765   8.368 -0.3648  0.1005 -0.2356
19261SOL    HW159651   0.171   3.797   8.296 -0.8556  0.0475 -0.6355
19261SOL    HW259652   0.177   3.718   8.425 -0.1549 -0.7925 -1.1673
19262SOL     OW59653   6.627   2.886   5.784  0.0952 -0.6338 -0.8871
19262SOL    HW159654   6.701   2.938   5.752  0.1167 -0.2900 -0.2795
19262SOL    HW259655   6.663   2.836   5.857 -0.6698  0.8281  0.5483
19263SOL     OW59656   7.814   3.772   0.839  0.1563 -0.7886  0.0356
19263SOL    HW159657   7.865   3.691   0.829  0.8263 -0.2462 -1.1839
19263SOL    HW259658   7.864   3.824   0.902  0.7672 -0.5466 -0.6319
19264SOL     OW59659   6.450   4.725   3.006 -0.2644  0.3340  0.4150
19264SOL    HW159660   6.355   4.720   3.014 -0.5965  1.9253 -1.5942
19264SOL    HW259661   6.477   4.635   2.986 -1.6273  0.1976 -0.9936
19265SOL     OW59662   8.208   1.479   6.704 -0.0840  0.1645 -0.0713
19265SOL    HW159663   8.261   1.523   6.637 -1.4867  1.0560 -0.6377
19265SOL    HW259664   8.239   1.516   6.786  1.4382 -0.7073 -0.2191
19266SOL     OW59665   7.638   6.543   8.529  0.8520 -0.4768 -0.0581
19266SOL    HW159666   7.599   6.478   8.470 -1.4185 -0.1692  0.9709
19266SOL    HW259667   7.594   6.529   8.613 -0.0235  2.5780  0.1276
19267SOL     OW59668   4.036   8.057   0.231 -0.1445 -0.3561  0.0313
19267SOL    HW159669   4.064   8.095   0.315  1.3122 -0.7474 -0.2517
19267SOL    HW259670   4.067   7.967   0.235 -2.1425 -1.0819  0.0157
19268SOL     OW59671   2.212   8.658   7.306  0.6078  0.3216  0.0812
19268SOL    HW159672   2.169   8.687   7.385 -2.9926 -0.7834 -1.2930
19268SOL    HW259673   2.181   8.718   7.238  1.3553 -0.4500 -0.9777
19269SOL     OW59674   6.955   6.930   6.191  0.0300  0.0867  0.3779
19269SOL    HW159675   6.991   7.012   6.156 -0.2835 -0.2139 -0.6625
19269SOL    HW259676   7.024   6.866   6.177 -0.7175 -0.4045 -1.2619
19270SOL     OW59677   6.013   0.159   0.011  0.2995  0.0590  0.3227
19270SOL    HW159678   6.049   0.239   0.048 -1.7684  1.0861  0.2450
19270SOL    HW259679   6.037   0.090   0.073 -0.7131  1.2953  2.1883
19271SOL     OW59680   5.999   0.202   5.225  0.3668  0.3060 -0.1072
19271SOL    HW159681   5.918   0.159   5.252 -1.1107  2.3098 -1.1139
19271SOL    HW259682   6.069   0.144   5.258 -1.3884 -0.5741  2.3888
19272SOL     OW59683   0.993   0.794   8.913 -0.4018 -0.2685  0.4051
19272SOL    HW159684   0.970   0.703   8.894  2.0492 -1.1307  1.1336
19272SOL    HW259685   0.951   0.844   8.843 -1.5675 -1.9876 -0.1946
19273SOL     OW59686   8.919   5.485   1.277 -0.1933 -0.2265  0.3840
19273SOL    HW159687   8.987   5.424   1.248  0.3080 -0.3480  1.7360
19273SOL    HW259688   8.952   5.519   1.361 -0.9431  1.1245  0.1514
19274SOL     OW59689   2.629   0.129   2.925  0.3892  0.1958  0.0179
19274SOL    HW159690   2.675   0.054   2.961  1.0097  1.2936  1.6155
19274SOL    HW259691   2.685   0.160   2.854 -0.1087 -1.0915 -0.9818
19275SOL     OW59692   1.206   6.832   7.165  0.8597 -0.4911 -0.1090
19275SOL    HW159693   1.268   6.846   7.093  0.3396 -1.0535 -0.6762
19275SOL    HW259694   1.257   6.788   7.232  0.8616 -1.8770 -0.9701
19276SOL     OW59695   6.529   0.733   2.866  0.1745 -0.1281  0.3310
19276SOL    HW159696   6.492   0.650   2.894 -0.4161 -0.1965 -0.6205
19276SOL    HW259697   6.593   0.710   2.799  0.8451  0.1093  0.8766
19277SOL     OW59698   3.276   1.038   2.937 -0.1857 -0.0118  0.3560
19277SOL    HW159699   3.219   0.972   2.898 -2.5300  0.8303  2.1406
19277SOL    HW259700   3.339   0.987   2.988 -1.8230 -0.9332  1.5462
19278SOL     OW59701   3.533   4.245   5.755  0.2078 -0.1444  0.4462
19278SOL    HW159702   3.624   4.236   5.780  0.3558  1.2570  0.5217
19278SOL    HW259703   3.489   4.277   5.834 -0.5578 -1.7262  0.6974
19279SOL     OW59704   1.942   3.648   4.697  0.6312 -0.6334 -0.2521
19279SOL    HW159705   1.905   3.561   4.709 -0.4103 -0.0320  1.3812
19279SOL    HW259706   1.874   3.697   4.652  1.4612 -0.7989 -1.7351
19280SOL     OW59707   3.836   5.064   3.541  1.1108 -0.0183 -0.2349
19280SOL    HW159708   3.754   5.113   3.536  1.7673  1.1036 -0.2580
19280SOL    HW259709   3.812   4.975   3.513 -0.4920 -0.2227  1.5496
19281SOL     OW59710   1.741   1.176   6.846  0.1427 -0.4291 -0.2842
19281SOL    HW159711   1.665   1.127   6.878  0.1262 -0.1970  0.0370
19281SOL    HW259712   1.745   1.253   6.902 -0.2309  0.2803 -1.2202
19282SOL     OW59713   5.518   7.052   5.418  0.1032  0.1957 -0.1170
19282SOL    HW159714   5.517   7.142   5.450  1.1756  0.8118 -1.6965
19282SOL    HW259715   5.570   7.004   5.481  0.8192  1.0228 -0.0667
19283SOL     OW59716   3.421   2.582   1.344 -0.4440 -0.2292 -0.2772
19283SOL    HW159717   3.339   2.586   1.296 -1.6029  0.9529  1.6694
19283SOL    HW259718   3.444   2.673   1.360  0.1508 -0.5756  0.9625
19284SOL     OW59719   3.245   6.830   8.363  0.0044  0.9675  0.7054
19284SOL    HW159720   3.261   6.798   8.452  0.5185 -1.2020 -0.1098
19284SOL    HW259721   3.280   6.919   8.363  0.2746  0.8989  2.5841
19285SOL     OW59722   5.823   1.753   0.727  0.4310  0.2948 -0.4580
19285SOL    HW159723   5.750   1.735   0.668  1.3628  3.2500 -2.8311
19285SOL    HW259724   5.861   1.668   0.746 -0.4208 -0.9553 -3.6270
19286SOL     OW59725   5.415   4.123   6.412 -0.1783 -0.4519 -0.1501
19286SOL    HW159726   5.482   4.131   6.480 -0.4161  0.6155 -0.0231
19286SOL    HW259727   5.419   4.206   6.364  0.0678 -1.2341 -1.5326
19287SOL     OW59728   7.446   6.486   4.221 -0.3033 -0.0387  0.5867
19287SOL    HW159729   7.415   6.482   4.312 -0.6099  2.6818  0.6747
19287SOL    HW259730   7.499   6.565   4.217  0.9987 -0.9325 -1.2851
19288SOL     OW59731   1.858   4.447   2.994  0.7313 -0.4411 -0.8377
19288SOL    HW159732   1.777   4.469   2.947  0.0462 -0.6374  0.2223
19288SOL    HW259733   1.907   4.529   2.998  0.0839 -0.0698 -0.5239
19289SOL     OW59734   4.368   4.808   8.171  0.0699 -0.2538 -0.3068
19289SOL    HW159735   4.447   4.753   8.168 -0.2755 -0.8768  1.0743
19289SOL    HW259736   4.383   4.868   8.244 -0.0463  0.7359 -1.0886
19290SOL     OW59737   4.303   0.057   8.018  0.2822 -0.2374  0.1917
19290SOL    HW159738   4.371   0.078   8.082  1.9435 -1.1928 -1.1736
19290SOL    HW259739   4.251  -0.012   8.060  0.5099  0.0633  1.0002
19291SOL     OW59740   1.073   4.344   3.113 -0.7323 -0.5826  0.3525
19291SOL    HW159741   1.074   4.291   3.192  1.2795 -2.2011 -0.6785
19291SOL    HW259742   1.086   4.282   3.041  0.2580  1.1199 -1.0241
19292SOL     OW59743   2.873   6.744   6.117 -0.3246  0.5082  0.2255
19292SOL    HW159744   2.813   6.739   6.043  2.5218 -2.3965 -2.1982
19292SOL    HW259745   2.933   6.815   6.093  0.8221 -0.6754 -0.5819
19293SOL     OW59746   4.964   2.561   0.591 -0.8304  0.1792 -0.4463
19293SOL    HW159747   4.946   2.593   0.679  1.2231  1.9385 -0.5825
19293SOL    HW259748   4.877   2.550   0.552 -1.7837 -0.6195  1.7440
19294SOL     OW59749   6.645   5.639   1.240 -0.8845  0.0406  0.1339
19294SOL    HW159750   6.605   5.630   1.153  1.1511  1.0113 -0.9777
19294SOL    HW259751   6.724   5.585   1.235 -1.9502 -1.8723  2.2734
19295SOL     OW59752   5.784   0.996   0.165  0.0006 -0.3759  0.0381
19295SOL    HW159753   5.788   1.091   0.176 -0.1003 -0.5587  2.0494
19295SOL    HW259754   5.691   0.978   0.150  0.3008 -0.0001 -2.8563
19296SOL     OW59755   1.767   4.526   4.035  0.3941  0.2225 -0.5559
19296SOL    HW159756   1.833   4.467   3.999  0.8799  0.5389 -0.1943
19296SOL    HW259757   1.795   4.541   4.125  0.0550  0.6833 -0.5257
19297SOL     OW59758   0.727   4.486   8.704 -0.4001  0.2996 -0.2970
19297SOL    HW159759   0.734   4.560   8.765  2.2411  0.2276 -0.3992
19297SOL    HW259760   0.690   4.525   8.624  0.9377  1.5687 -0.3439
19298SOL     OW59761   4.983   4.279   6.968  0.5253 -0.2178 -0.4445
19298SOL    HW159762   4.960   4.368   6.996 -0.8833 -0.5078 -0.6250
19298SOL    HW259763   4.923   4.260   6.896 -0.8285 -2.1860  1.1160
19299SOL     OW59764   0.366   5.932   3.220 -0.7067  0.1190 -0.0998
19299SOL    HW159765   0.448   5.884   3.230 -0.5751 -0.0027 -1.6028
19299SOL    HW259766   0.300   5.875   3.258 -0.0600  0.4307  1.5887
19300SOL     OW59767   5.841   6.464   1.659  0.4267  0.6428 -0.0106
19300SOL    HW159768   5.862   6.548   1.619  0.0885  1.2137  0.9753
19300SOL    HW259769   5.851   6.479   1.753 -0.1019 -0.2862  0.2065
19301SOL     OW59770   2.449   8.748   0.574 -0.3016  1.0001 -0.4384
19301SOL    HW159771   2.520   8.693   0.606  0.5316  2.4588  0.2858
19301SOL    HW259772   2.488   8.801   0.504 -1.4053 -0.1460 -2.0172
19302SOL     OW59773   3.224   5.287   6.935  0.4750  0.3770  0.2552
19302SOL    HW159774   3.307   5.328   6.956  1.0532 -0.7905  0.3081
19302SOL    HW259775   3.192   5.252   7.018 -0.0650  0.8094  0.2346
19303SOL     OW59776   7.792   2.524   8.715  0.8871 -0.1163  0.4065
19303SOL    HW159777   7.815   2.554   8.804 -1.0825  0.2938  0.8220
19303SOL    HW259778   7.845   2.445   8.702  2.0510  0.4392  1.4888
19304SOL     OW59779   7.034   4.006   4.506 -0.7077  0.5979  0.1221
19304SOL    HW159780   7.027   3.983   4.413 -2.2449  0.2706  0.2977
19304SOL    HW259781   7.123   3.981   4.530 -1.0388 -1.5599 -0.6863
19305SOL     OW59782   8.043   0.831   7.220  0.0707  0.5332 -0.1314
19305SOL    HW159783   7.973   0.835   7.285 -0.1857 -0.0028 -0.3667
19305SOL    HW259784   8.014   0.889   7.150 -0.5898 -0.3934 -0.6485
19306SOL     OW59785   6.557   4.433   0.515  0.3819  0.1955 -0.3074
19306SOL    HW159786   6.506   4.371   0.463  1.0662  0.1306 -0.9197
19306SOL    HW259787   6.513   4.517   0.502  1.2078  0.4052 -1.9651
19307SOL     OW59788   6.754   8.533   8.470 -0.4067  0.3490  0.2341
19307SOL    HW159789   6.671   8.495   8.440 -0.8897  0.6915  1.1146
19307SOL    HW259790   6.817   8.461   8.464 -1.0584 -0.2792  0.7831
19308SOL     OW59791   6.207   8.518   8.783 -0.5632 -0.3265 -0.4119
19308SOL    HW159792   6.293   8.507   8.741 -0.2193  2.6952 -0.7784
19308SOL    HW259793   6.218   8.478   8.870  1.1671 -0.2242 -0.5373
19309SOL     OW59794   7.036   0.081   2.407 -0.2138 -0.7873 -0.5167
19309SOL    HW159795   7.038   0.005   2.466 -1.7286  0.3582  1.1096
19309SOL    HW259796   6.943   0.089   2.383  0.1998 -0.4940 -2.1429
19310SOL     OW59797   6.635   8.303   1.127 -0.2176  0.3059 -0.7134
19310SOL    HW159798   6.662   8.229   1.183 -0.8204  0.8823  0.3762
19310SOL    HW259799   6.558   8.271   1.081 -1.0900  0.5438  0.5096
19311SOL     OW59800   4.692   5.385   4.123  0.3731  0.4354 -0.0295
19311SOL    HW159801   4.681   5.457   4.061 -0.8177  1.3417  1.1800
19311SOL    HW259802   4.783   5.393   4.151 -0.1459  2.5913  1.3345
19312SOL     OW59803   2.517   2.461   3.650  0.4103  0.5220  0.5158
19312SOL    HW159804   2.440   2.408   3.669 -0.2497  1.1687 -0.2832
19312SOL    HW259805   2.578   2.442   3.721 -0.4196 -0.1281  1.0642
19313SOL     OW59806   5.409   7.856   5.734  0.2271  0.1442  0.4169
19313SOL    HW159807   5.345   7.896   5.793 -0.3580  0.8760 -0.6952
19313SOL    HW259808   5.379   7.765   5.725 -0.3351  0.3335  0.3391
19314SOL     OW59809   4.178   4.762   2.131 -1.0800 -0.1866  0.0162
19314SOL    HW159810   4.164   4.754   2.226  0.6779  0.7877  0.4147
19314SOL    HW259811   4.099   4.725   2.092 -3.4582  2.4302  1.8933
19315SOL     OW59812   7.336   5.245   0.024  0.2134  0.2478  0.0988
19315SOL    HW159813   7.303   5.159  -0.002  0.4397  0.1361  0.1788
19315SOL    HW259814   7.267   5.306  -0.002 -0.4541 -0.0682  1.0784
19316SOL     OW59815   8.686   2.666   7.111  0.0122 -0.4442 -0.2618
19316SOL    HW159816   8.768   2.671   7.063 -0.4500 -0.0709 -1.0305
19316SOL    HW259817   8.686   2.746   7.165 -0.3933  0.1833 -1.1711
19317SOL     OW59818   2.875   4.739   6.108 -0.4773 -0.2984 -0.4844
19317SOL    HW159819   2.880   4.757   6.014 -0.8248 -1.9018 -0.8506
19317SOL    HW259820   2.791   4.693   6.119 -0.4243 -0.1683  0.6103
19318SOL     OW59821   7.180   0.315   3.419  0.0604  0.4636  0.5898
19318SOL    HW159822   7.231   0.372   3.477 -1.2804  1.0798  1.2096
19318SOL    HW259823   7.089   0.333   3.442 -0.4598 -0.3452 -0.7253
19319SOL     OW59824   7.709   2.400   7.549 -0.0201 -0.2600  0.4054
19319SOL    HW159825   7.748   2.416   7.463  0.8245 -0.0306  0.8194
19319SOL    HW259826   7.652   2.324   7.536  0.9942 -0.9605 -0.1031
19320SOL     OW59827   1.665   4.154   5.709 -0.0319 -0.0463 -0.4881
19320SOL    HW159828   1.662   4.167   5.803  1.3592 -0.0761 -0.4175
19320SOL    HW259829   1.718   4.074   5.697 -0.1693 -0.0315 -1.2893
19321SOL     OW59830   5.661   8.969   6.040 -0.2342 -0.9281  0.3030
19321SOL    HW159831   5.621   8.979   6.126  1.9089 -2.4050  1.5542
19321SOL    HW259832   5.753   8.992   6.053 -0.0555 -0.1244 -1.8739
19322SOL     OW59833   5.491   1.472   4.842  0.4643 -0.4170  0.3828
19322SOL    HW159834   5.418   1.462   4.781  0.2724 -0.9638  0.6943
19322SOL    HW259835   5.569   1.453   4.790  0.3649 -0.1286  0.1239
19323SOL     OW59836   8.968   5.383   3.543 -0.4031 -0.4425  0.2960
19323SOL    HW159837   8.901   5.442   3.578  1.2393  1.2176  0.7556
19323SOL    HW259838   8.970   5.402   3.450  2.7347  3.2552  0.8592
19324SOL     OW59839   8.274   0.890   6.905  0.0680  0.6978  0.1772
19324SOL    HW159840   8.292   0.797   6.894 -0.1417  0.4563  1.5988
19324SOL    HW259841   8.281   0.904   7.000 -1.2601  1.8322  0.1387
19325SOL     OW59842   0.088   7.568   8.948 -0.0370 -0.5668 -0.5218
19325SOL    HW159843   0.017   7.615   8.905 -0.7422 -0.3093  0.8481
19325SOL    HW259844   0.056   7.478   8.955  0.0646 -0.6023 -0.5033
19326SOL     OW59845   3.284   0.138   0.166 -0.5329  0.2387 -0.2093
19326SOL    HW159846   3.310   0.224   0.199  0.9375 -0.1381 -0.3269
19326SOL    HW259847   3.331   0.128   0.083 -0.5824 -0.7287 -0.1374
19327SOL     OW59848   0.363   2.938   1.662 -0.3320 -0.0707 -0.2109
19327SOL    HW159849   0.289   2.961   1.718 -0.8172  1.8943 -1.5500
19327SOL    HW259850   0.366   2.843   1.664 -2.6769 -0.2076  0.2036
19328SOL     OW59851   3.319   2.338   1.118 -0.2134  0.5786  0.6115
19328SOL    HW159852   3.411   2.359   1.137 -0.1547 -0.1865  1.2285
19328SOL    HW259853   3.320   2.244   1.101 -0.6805  0.7957 -0.7131
19329SOL     OW59854   0.962   2.917   7.792 -0.0352 -0.1030 -0.2908
19329SOL    HW159855   0.874   2.917   7.829  0.3593 -0.8264  0.6924
19329SOL    HW259856   0.997   3.003   7.816 -0.2453 -0.0682 -0.0967
19330SOL     OW59857   1.255   8.608   0.950 -0.4083  0.3091 -0.0594
19330SOL    HW159858   1.225   8.527   0.992 -0.6050  1.6671  2.6646
19330SOL    HW259859   1.174   8.650   0.921 -0.8542  1.5009  2.5538
19331SOL     OW59860   8.148   6.599   5.428 -0.1902 -0.0905 -0.2741
19331SOL    HW159861   8.221   6.660   5.421 -1.7154  1.7898 -0.3966
19331SOL    HW259862   8.095   6.632   5.501 -0.8904 -1.4683 -0.1225
19332SOL     OW59863   8.705   4.999   4.387  0.0036 -0.1367 -0.3319
19332SOL    HW159864   8.742   4.911   4.378  0.4218  0.0076 -0.0415
19332SOL    HW259865   8.732   5.028   4.474 -1.8193 -0.4961  0.3925
19333SOL     OW59866   6.191   3.868   3.026 -0.6226 -0.3159  0.2056
19333SOL    HW159867   6.285   3.874   3.041 -0.2866 -1.9640 -0.9540
19333SOL    HW259868   6.164   3.955   2.998  0.8324 -0.1823 -0.8455
19334SOL     OW59869   1.253   4.659   8.973  0.0292 -0.1655  0.1942
19334SOL    HW159870   1.297   4.744   8.963  1.5635 -1.0677 -1.0359
19334SOL    HW259871   1.192   4.655   8.899 -0.4916  0.0917  0.5969
19335SOL     OW59872   1.346   7.424   0.057  0.2435 -0.7518  0.2211
19335SOL    HW159873   1.276   7.417   0.122 -0.7920 -1.0644 -0.9005
19335SOL    HW259874   1.301   7.422  -0.027  1.1630  3.4785 -0.5752
19336SOL     OW59875   3.899   0.397   7.624  0.1826 -0.5130 -0.4195
19336SOL    HW159876   3.832   0.427   7.562  0.5321 -0.7404 -0.9153
19336SOL    HW259877   3.980   0.438   7.594  0.4113 -0.8641 -0.2949
19337SOL     OW59878   4.199   3.587   8.882  0.5278 -0.6701 -0.1146
19337SOL    HW159879   4.276   3.631   8.846 -0.0531 -0.7542 -1.5030
19337SOL    HW259880   4.228   3.556   8.968  1.7817  0.0327 -0.2522
19338SOL     OW59881   6.146   7.675   4.705 -0.7727 -0.0265  0.0282
19338SOL    HW159882   6.166   7.687   4.798 -1.3398  0.0074  0.1485
19338SOL    HW259883   6.054   7.648   4.704 -0.3888 -1.3696 -0.4313
19339SOL     OW59884   2.159   2.738   3.488 -0.5741 -0.2427 -0.2555
19339SOL    HW159885   2.088   2.714   3.428 -1.2461 -0.4025  0.5824
19339SOL    HW259886   2.116   2.746   3.573  0.0863  1.4632 -0.0492
19340SOL     OW59887   7.256   4.272   6.130  0.2722  0.1684  0.2196
19340SOL    HW159888   7.193   4.273   6.201  1.4697 -0.4247  1.3334
19340SOL    HW259889   7.244   4.356   6.086 -0.0243  0.8527  1.5539
19341SOL     OW59890   0.922   2.166   6.435 -0.4662  0.0173  0.4831
19341SOL    HW159891   0.863   2.094   6.415 -2.2508  1.2945  0.9309
19341SOL    HW259892   0.965   2.186   6.352  2.2365 -3.2782  0.8387
19342SOL     OW59893   7.957   2.643   0.993 -0.4542  0.8216 -0.1182
19342SOL    HW159894   8.020   2.709   0.962 -0.4416  1.5243  1.3205
19342SOL    HW259895   7.877   2.692   1.009 -0.5203  0.4488  0.7323
19343SOL     OW59896   4.402   1.909   3.968  0.3790  0.7959  0.0506
19343SOL    HW159897   4.469   1.860   4.016  2.2137  0.4605 -2.6192
19343SOL    HW259898   4.395   1.993   4.015  1.2626  0.0968  1.4830
19344SOL     OW59899   6.780   7.722   2.140  0.6178  0.3217 -0.5035
19344SOL    HW159900   6.828   7.642   2.159  0.4704  0.6625  1.4607
19344SOL    HW259901   6.813   7.749   2.054  2.0606 -0.8149 -0.3540
19345SOL     OW59902   5.035   0.571   4.714  0.2321 -0.6474 -0.6161
19345SOL    HW159903   4.986   0.623   4.650 -0.9775  1.0963  1.5518
19345SOL    HW259904   4.971   0.511   4.751  0.2055  0.1533  0.7233
19346SOL     OW59905   7.536   3.204   1.192 -0.5514  0.3976 -0.1726
19346SOL    HW159906   7.442   3.221   1.199 -0.2059  2.9875 -0.7129
19346SOL    HW259907   7.577   3.289   1.208  1.6099 -0.2150 -1.8969
19347SOL     OW59908   1.513   3.810   2.809 -0.0821 -0.0273  0.9414
19347SOL    HW159909   1.605   3.824   2.830  0.2661 -2.5106  1.3109
19347SOL    HW259910   1.497   3.718   2.829 -2.2273 -0.0766 -0.6524
19348SOL     OW59911   2.060   3.319   6.337  0.1168  0.0178  0.5582
19348SOL    HW159912   2.116   3.329   6.261  1.9692 -1.1827  1.6781
19348SOL    HW259913   2.016   3.235   6.324 -1.8462  1.1535 -0.5238
19349SOL     OW59914   3.020   7.037   4.027 -0.4416  0.3259 -0.4468
19349SOL    HW159915   3.102   6.988   4.029 -1.3995 -1.6133 -2.8075
19349SOL    HW259916   2.956   6.977   4.065 -0.9839  1.3991  0.3860
19350SOL     OW59917   0.419   1.737   8.146  0.3838  0.1810  0.4999
19350SOL    HW159918   0.509   1.710   8.125  0.3913 -0.0388  0.8079
19350SOL    HW259919   0.430   1.805   8.213  0.3347  0.3991  0.2855
19351SOL     OW59920   7.832   1.902   7.094  0.1735  0.0003 -0.3788
19351SOL    HW159921   7.899   1.942   7.039 -0.0179  2.8094  1.2392
19351SOL    HW259922   7.755   1.957   7.082 -0.6492 -0.8607  0.7116
19352SOL     OW59923   6.030   3.999   8.679 -0.3160  0.2507 -0.3258
19352SOL    HW159924   6.059   3.932   8.617  0.0945  0.2625 -0.1458
19352SOL    HW259925   6.073   3.977   8.761  0.1523  0.9673 -0.3709
19353SOL     OW59926   8.771   2.261   3.070  0.5566 -0.2816  0.5742
19353SOL    HW159927   8.835   2.195   3.097  1.4983  0.5530  0.4649
19353SOL    HW259928   8.775   2.260   2.974 -0.2429 -0.8213  0.5342
19354SOL     OW59929   3.313   4.045   2.518  0.1727  0.7813 -0.1882
19354SOL    HW159930   3.307   4.070   2.610  0.3747  0.4885 -0.0921
19354SOL    HW259931   3.405   4.021   2.505 -0.0398 -0.0749 -0.2229
19355SOL     OW59932   6.768   1.643   7.332 -0.5701 -0.0784 -0.1911
19355SOL    HW159933   6.861   1.660   7.348 -0.7313  0.5614  0.1016
19355SOL    HW259934   6.733   1.620   7.419 -0.9288  0.8898 -0.0642
19356SOL     OW59935   1.031   4.919   8.477  0.5205 -0.0271 -0.1682
19356SOL    HW159936   1.054   4.997   8.527  1.4770 -0.9498  0.8780
19356SOL    HW259937   1.081   4.926   8.396 -0.3653  1.0430 -0.6537
19357SOL     OW59938   3.426   2.989   0.417  0.2076  0.2179 -0.4192
19357SOL    HW159939   3.458   2.921   0.358 -0.5893  0.3327 -0.9985
19357SOL    HW259940   3.369   3.043   0.363 -1.4484 -0.3237  0.7150
19358SOL     OW59941   7.004   7.551   7.618 -0.2830  0.3524 -0.2978
19358SOL    HW159942   6.923   7.542   7.568 -1.1053  1.2661  0.8151
19358SOL    HW259943   7.048   7.627   7.581 -0.7464  0.8498  0.1658
19359SOL     OW59944   7.846   6.232   1.846  0.4634  0.7843  0.4975
19359SOL    HW159945   7.898   6.153   1.860 -1.6703 -0.9901 -0.8700
19359SOL    HW259946   7.842   6.241   1.750 -2.0070  0.5953  0.5201
19360SOL     OW59947   6.601   5.944   5.926  0.0514  0.3606  0.1967
19360SOL    HW159948   6.521   5.906   5.889  0.7654 -0.7461 -0.2658
19360SOL    HW259949   6.572   5.984   6.008 -1.0098  0.1610 -0.0561
19361SOL     OW59950   2.050   4.385   0.274  0.2536 -0.0445 -0.2251
19361SOL    HW159951   2.086   4.472   0.257  0.7593 -0.3042 -0.5319
19361SOL    HW259952   1.959   4.400   0.297  0.3164  0.5622 -0.3655
19362SOL     OW59953   0.973   1.757   2.106 -0.5522  0.5529  0.0556
19362SOL    HW159954   0.989   1.664   2.116  0.5927  0.6693 -0.5309
19362SOL    HW259955   0.884   1.763   2.070 -1.0362 -0.2391  1.0552
19363SOL     OW59956   4.974   1.794   3.081  0.2142 -0.1093 -0.3022
19363SOL    HW159957   4.885   1.800   3.116  0.3399 -1.3874  0.2910
19363SOL    HW259958   5.031   1.808   3.157  0.5336  0.6092 -0.6620
19364SOL     OW59959   0.917   0.397   0.991  0.2733  0.0617  0.3669
19364SOL    HW159960   0.906   0.322   1.050  0.0606  1.2263  1.8706
19364SOL    HW259961   0.909   0.474   1.048 -0.8265  1.2785 -1.3120
19365SOL     OW59962   7.594   0.802   4.703  0.0513  0.4065  0.5989
19365SOL    HW159963   7.508   0.777   4.669  0.2365  1.0289 -0.3658
19365SOL    HW259964   7.577   0.878   4.758  0.0745  1.0930 -0.3123
19366SOL     OW59965   1.046   5.058   3.782 -0.3793 -0.1375  0.1203
19366SOL    HW159966   1.042   5.113   3.704  0.9965  0.0336  0.1486
19366SOL    HW259967   1.050   5.120   3.855  0.7160 -0.2464  0.1776
19367SOL     OW59968   4.436   6.314   7.814 -0.0137  0.2920  0.1292
19367SOL    HW159969   4.509   6.354   7.766 -1.3424  0.4507 -1.8698
19367SOL    HW259970   4.445   6.349   7.903  2.7651 -0.3151  0.1914
19368SOL     OW59971   3.725   2.127   6.422  0.5060  0.2451 -0.1617
19368SOL    HW159972   3.644   2.096   6.383  0.3588 -1.1662  1.1479
19368SOL    HW259973   3.698   2.201   6.477  0.6099  1.7543 -2.0645
19369SOL     OW59974   5.551   3.858   0.892 -0.1582  0.0248  0.4351
19369SOL    HW159975   5.490   3.797   0.932  1.8289 -1.5995  1.2055
19369SOL    HW259976   5.590   3.905   0.965 -1.0429  1.6831 -0.0987
19370SOL     OW59977   6.694   6.040   5.470  0.3010  0.2675 -0.7290
19370SOL    HW159978   6.605   6.073   5.453  0.3697  0.3691 -0.8932
19370SOL    HW259979   6.743   6.119   5.494  0.6090  0.3777 -1.6946
19371SOL     OW59980   0.593   2.461   4.868  0.6412  0.2587 -0.0719
19371SOL    HW159981   0.518   2.463   4.808  1.3695  1.0294 -0.9967
19371SOL    HW259982   0.554   2.469   4.955 -0.5148 -1.8944 -0.3260
19372SOL     OW59983   5.561   3.102   8.964 -0.2824 -0.4456  0.3489
19372SOL    HW159984   5.624   3.071   8.899 -1.1318 -1.6739  0.0681
19372SOL    HW259985   5.524   3.182   8.925 -0.2698 -0.7758 -0.3586
19373SOL     OW59986   0.011   8.880   8.081 -0.0430  0.1244 -0.3117
19373SOL    HW159987  -0.037   8.962   8.093 -1.9819 -1.1388  1.3291
19373SOL    HW259988   0.085   8.887   8.140  0.2279  0.9787 -0.7381
19374SOL     OW59989   4.861   2.581   0.286  0.3085 -0.3624  0.0229
19374SOL    HW159990   4.783   2.544   0.329  0.6017 -0.7277  0.2403
19374SOL    HW259991   4.904   2.632   0.355  0.7170 -0.8549  0.1334
19375SOL     OW59992   8.025   5.348   0.530 -0.2885  0.5341  0.4074
19375SOL    HW159993   8.078   5.365   0.452 -0.2745  0.4215  0.3928
19375SOL    HW259994   8.065   5.271   0.569  1.3448  2.0751  1.9559
19376SOL     OW59995   0.230   6.891   4.675  0.1578 -0.1232  0.3504
19376SOL    HW159996   0.248   6.948   4.600  1.0702 -0.7844  0.0452
19376SOL    HW259997   0.166   6.939   4.727 -0.6849  0.2346 -0.9825
19377SOL     OW59998   4.573   0.109   5.318 -0.0988 -0.3068 -0.3093
19377SOL    HW159999   4.560   0.044   5.249  0.7267 -0.4672 -0.3290
19377SOL    HW260000   4.549   0.192   5.277  1.3490 -0.2646 -1.1396
19378SOL     OW60001   6.974   6.463   0.147  0.2782 -0.1487  0.5031
19378SOL    HW160002   6.890   6.421   0.131  0.4716 -0.7208  0.9381
19378SOL    HW260003   7.034   6.421   0.086  0.7565 -1.4788  1.8266
19379SOL     OW60004   7.675   4.007   8.249 -0.2050 -0.3806 -0.1242
19379SOL    HW160005   7.744   4.073   8.257 -0.6967  0.1351 -0.1044
19379SOL    HW260006   7.692   3.946   8.321  1.3765 -1.3464 -1.2527
19380SOL     OW60007   1.132   1.401   6.866  0.4443 -0.2424  0.0634
19380SOL    HW160008   1.188   1.429   6.793  1.8441 -1.8422  0.4834
19380SOL    HW260009   1.124   1.306   6.855 -0.8816 -0.2639  0.9554
19381SOL     OW60010   2.179   2.127   5.899 -0.5458 -0.2972  0.6896
19381SOL    HW160011   2.146   2.179   5.973 -2.1142  1.4870 -1.1330
19381SOL    HW260012   2.170   2.036   5.928 -0.0404  0.3451  3.0851
19382SOL     OW60013   0.944   5.964   7.086 -0.1303 -0.1253 -0.1877
19382SOL    HW160014   1.028   5.919   7.078 -0.1402 -0.6551  2.0512
19382SOL    HW260015   0.961   6.052   7.051  1.6242  0.0722  1.0349
19383SOL     OW60016   5.103   7.270   1.844 -0.1194 -0.3185  0.4784
19383SOL    HW160017   5.114   7.253   1.750  0.6435 -0.0406  0.5076
19383SOL    HW260018   5.133   7.360   1.855 -0.7800 -0.1504  0.8936
19384SOL     OW60019   0.352   8.024   8.893  0.0450 -1.2674 -0.1196
19384SOL    HW160020   0.362   7.946   8.948  0.7420 -1.6912 -0.8301
19384SOL    HW260021   0.383   7.997   8.806  0.8779 -0.0318 -0.2368
19385SOL     OW60022   2.589   5.830   2.395  0.3617  0.2641  0.3421
19385SOL    HW160023   2.562   5.783   2.316 -0.7648  1.4565 -0.0027
19385SOL    HW260024   2.665   5.882   2.368 -1.2003  2.2020 -0.5327
19386SOL     OW60025   8.975   0.694   1.700 -0.1472 -0.2025 -0.3528
19386SOL    HW160026   8.991   0.611   1.745  1.8602 -0.7396 -1.9077
19386SOL    HW260027   8.885   0.687   1.669 -0.5859 -1.0401  0.9992
19387SOL     OW60028   2.468   6.356   6.729 -0.0635  0.1023  0.5162
19387SOL    HW160029   2.506   6.269   6.721  0.1966  0.1546  1.1683
19387SOL    HW260030   2.499   6.389   6.813  0.1005  0.9510  0.1425
19388SOL     OW60031   0.425   1.182   7.759  0.3573  0.0001 -0.7499
19388SOL    HW160032   0.357   1.114   7.762  1.0558 -0.7046 -0.4635
19388SOL    HW260033   0.417   1.219   7.672  1.3997 -1.9857 -1.7645
19389SOL     OW60034   3.974   2.863   6.371  0.6081 -0.7403 -0.4877
19389SOL    HW160035   3.958   2.777   6.333  3.4592 -2.2978  1.4203
19389SOL    HW260036   4.023   2.911   6.303  0.5069 -1.2488 -0.9237
19390SOL     OW60037   5.160   1.537   8.780  0.6292 -0.8367 -0.0323
19390SOL    HW160038   5.066   1.550   8.768  0.6300 -1.3531 -0.6885
19390SOL    HW260039   5.181   1.465   8.721  1.5679 -0.2541 -0.4263
19391SOL     OW60040   1.035   2.112   3.561  0.2537  0.2636  0.6086
19391SOL    HW160041   1.104   2.150   3.615  1.3800 -0.2298 -0.4305
19391SOL    HW260042   0.979   2.185   3.538  0.7894  0.7881  0.9406
19392SOL     OW60043   5.252   8.211   4.879  0.0239  0.1833 -0.1664
19392SOL    HW160044   5.229   8.134   4.827  1.3646 -1.5265  1.6547
19392SOL    HW260045   5.171   8.235   4.924 -0.5600  0.2451 -1.2230
19393SOL     OW60046   1.949   7.381   4.952 -0.3742  0.6150 -0.5616
19393SOL    HW160047   1.938   7.290   4.978 -0.6831  0.4225 -1.3290
19393SOL    HW260048   1.934   7.432   5.032 -0.6041  0.0126 -0.2216
19394SOL     OW60049   5.093   5.287   1.990  0.0449  0.1532 -0.1995
19394SOL    HW160050   5.079   5.378   1.962 -0.8899  0.7685  2.0554
19394SOL    HW260051   5.135   5.295   2.075  0.1278 -1.5414 -0.0602
19395SOL     OW60052   0.465   4.597   4.148  0.2636 -0.3003 -0.0352
19395SOL    HW160053   0.532   4.598   4.217 -1.9064 -0.4857  2.1966
19395SOL    HW260054   0.481   4.516   4.101  2.6732  0.4919 -0.7854
19396SOL     OW60055   7.925   1.422   3.359  0.0493 -0.0800 -0.3808
19396SOL    HW160056   7.899   1.353   3.297  0.1119 -0.8454  0.4265
19396SOL    HW260057   7.963   1.490   3.304  0.0187 -0.7025 -1.1974
19397SOL     OW60058   8.138   0.338   7.208  0.1313 -0.0190  0.5528
19397SOL    HW160059   8.146   0.430   7.184  1.1482 -0.3605 -0.5309
19397SOL    HW260060   8.050   0.313   7.180  0.3224  0.2948 -0.3451
19398SOL     OW60061   4.402   3.610   3.125  0.1091 -0.1575 -0.2200
19398SOL    HW160062   4.465   3.591   3.195  1.1546 -2.0015 -1.5596
19398SOL    HW260063   4.347   3.680   3.160  0.1548 -1.4397  2.6913
19399SOL     OW60064   6.959   7.248   2.813  0.4059  0.0446 -0.3300
19399SOL    HW160065   6.994   7.188   2.879 -0.0405  1.7379  1.5107
19399SOL    HW260066   6.948   7.331   2.858 -2.4634  0.5935 -1.8272
19400SOL     OW60067   0.925   4.558   3.587  0.4056 -0.8290 -0.2002
19400SOL    HW160068   0.864   4.615   3.633  0.9635 -1.8701  1.9405
19400SOL    HW260069   0.888   4.551   3.499 -1.6184 -0.0535  0.5147
19401SOL     OW60070   4.291   7.222   0.281 -0.4982 -0.0249  0.1840
19401SOL    HW160071   4.375   7.266   0.267 -0.8218  0.4479 -0.3005
19401SOL    HW260072   4.314   7.142   0.327  0.1897  0.2512  0.3383
19402SOL     OW60073   3.456   5.193   2.993  0.4909 -0.2646 -0.1242
19402SOL    HW160074   3.492   5.156   2.913 -1.6752  1.0354 -1.8103
19402SOL    HW260075   3.530   5.235   3.036  1.6374 -0.6523 -1.6420
19403SOL     OW60076   3.175   6.797   4.785  0.4294  0.3816 -0.3456
19403SOL    HW160077   3.198   6.734   4.717 -0.9186  0.1189 -0.6032
19403SOL    HW260078   3.178   6.747   4.866 -0.1588  0.0971 -0.4924
19404SOL     OW60079   7.655   4.241   7.790 -0.7325  0.2636 -0.0797
19404SOL    HW160080   7.731   4.243   7.732 -0.3530 -0.6354  0.3578
19404SOL    HW260081   7.596   4.308   7.756  0.3986  1.2229 -0.2197
19405SOL     OW60082   0.835   7.481   7.458  0.1971 -0.2103 -0.4087
19405SOL    HW160083   0.920   7.520   7.436 -0.6328  2.3744  0.5672
19405SOL    HW260084   0.782   7.495   7.379  0.4967 -1.3298 -0.8206
19406SOL     OW60085   0.360   0.788   6.955  0.2609  0.5679  0.3542
19406SOL    HW160086   0.290   0.828   6.903 -0.0695  0.4806  0.7310
19406SOL    HW260087   0.320   0.710   6.994  0.8914 -0.1368 -0.3566
19407SOL     OW60088   1.255   5.535   1.401  0.1448  0.1736 -0.0334
19407SOL    HW160089   1.222   5.537   1.312 -0.8925  0.2596  0.3447
19407SOL    HW260090   1.313   5.459   1.404 -1.5357 -1.1545 -0.1864
19408SOL     OW60091   8.427   0.345   0.264 -0.1671  0.0010  0.5061
19408SOL    HW160092   8.480   0.392   0.329  2.0252  0.5813 -1.5589
19408SOL    HW260093   8.435   0.253   0.290  0.5812  0.2221  1.1165
19409SOL     OW60094   4.863   5.509   1.960  0.9241  0.0957 -0.3122
19409SOL    HW160095   4.847   5.586   2.014  0.5931 -0.0333 -0.2267
19409SOL    HW260096   4.893   5.545   1.876  0.4064  0.3314 -0.3977
19410SOL     OW60097   8.975   5.747   6.254 -0.7113 -0.2237  0.4376
19410SOL    HW160098   9.036   5.720   6.185 -1.3311  2.9164 -1.5668
19410SOL    HW260099   8.889   5.727   6.218 -1.0000 -1.0058  1.5240
19411SOL     OW60100   6.942   5.139   4.796 -0.3013 -0.8090  0.4085
19411SOL    HW160101   6.949   5.119   4.890 -0.4591  0.1234  0.6314
19411SOL    HW260102   6.990   5.221   4.785 -2.3093  0.4041  0.1436
19412SOL     OW60103   6.245   1.246   8.754  0.2658  0.5394 -0.0171
19412SOL    HW160104   6.226   1.153   8.759 -0.0879  0.6471  0.7754
19412SOL    HW260105   6.232   1.269   8.662 -1.1046  0.1131  0.0581
19413SOL     OW60106   1.359   1.607   8.987 -0.7760 -0.1054  0.4669
19413SOL    HW160107   1.284   1.635   8.934  0.8203  3.2019 -0.3538
19413SOL    HW260108   1.366   1.674   9.055  3.6324  2.2410 -1.8512
19414SOL     OW60109   3.337   6.247   0.002  0.4797  0.3946 -0.5136
19414SOL    HW160110   3.251   6.262   0.039  0.7865 -1.0749  0.9332
19414SOL    HW260111   3.376   6.334  -0.006  0.1768  0.8591  2.1810
19415SOL     OW60112   4.429   0.794   2.646 -0.2418  0.0870 -0.2290
19415SOL    HW160113   4.468   0.873   2.682 -0.4759  1.5502 -2.9208
19415SOL    HW260114   4.345   0.786   2.691  0.8676 -0.1889  1.9309
19416SOL     OW60115   7.189   0.904   5.884 -0.8895 -0.4495  0.0897
19416SOL    HW160116   7.284   0.888   5.884 -1.0435 -1.5089  1.0111
19416SOL    HW260117   7.179   0.991   5.845  0.3918 -0.6926 -0.8479
19417SOL     OW60118   1.264   1.957   2.732  0.2367 -0.0729  0.3032
19417SOL    HW160119   1.187   1.911   2.764 -0.6888  1.3345  0.1676
19417SOL    HW260120   1.309   1.894   2.675  0.2472 -1.5568  1.8864
19418SOL     OW60121   4.872   3.362   6.590  0.0408  0.0417 -0.1289
19418SOL    HW160122   4.842   3.320   6.670  0.0273 -0.9051 -0.6207
19418SOL    HW260123   4.816   3.438   6.580 -1.3171 -0.9559 -0.3187
19419SOL     OW60124   6.054   6.926   0.194 -0.2625 -0.4790 -0.5651
19419SOL    HW160125   6.039   6.954   0.285 -0.3587  0.8142 -0.9678
19419SOL    HW260126   6.121   6.985   0.161 -0.4799 -0.7114 -1.4510
19420SOL     OW60127   6.609   2.527   3.525  0.0665 -0.4997  0.4158
19420SOL    HW160128   6.536   2.525   3.586  1.2850 -1.3608  1.9139
19420SOL    HW260129   6.605   2.614   3.485 -1.7413 -0.5345  0.4520
19421SOL     OW60130   1.854   4.542   4.276 -0.2648 -0.0592  0.1763
19421SOL    HW160131   1.849   4.637   4.293 -0.9488 -0.1972  0.7827
19421SOL    HW260132   1.881   4.505   4.360 -0.1633 -0.4208 -0.0176
19422SOL     OW60133   4.033   6.502   3.534  0.1626  0.5747  0.3646
19422SOL    HW160134   4.115   6.487   3.487  0.8636  0.9498  1.4381
19422SOL    HW260135   3.973   6.533   3.467  1.2395  1.4413 -0.2293
19423SOL     OW60136   5.236   8.707   6.569  0.2189  0.0350 -0.7361
19423SOL    HW160137   5.206   8.793   6.597  0.7977 -0.2451  0.8557
19423SOL    HW260138   5.279   8.670   6.647  0.5229 -1.4388 -1.5657
19424SOL     OW60139   5.594   7.693   3.202  0.0457  0.2428 -0.0588
19424SOL    HW160140   5.623   7.605   3.227  0.4908  0.2431 -0.5526
19424SOL    HW260141   5.500   7.693   3.218 -0.0249 -0.4605 -0.4423
19425SOL     OW60142   7.694   4.559   4.135  0.2339  0.3034 -0.3747
19425SOL    HW160143   7.620   4.518   4.091  0.7185  0.8044 -1.7259
19425SOL    HW260144   7.768   4.501   4.115  0.5996  0.9307 -0.8640
19426SOL     OW60145   7.679   6.155   7.272  0.5674  0.0522 -0.2129
19426SOL    HW160146   7.632   6.231   7.238  2.8671  2.0406  0.7286
19426SOL    HW260147   7.697   6.176   7.364  1.0472 -1.7862  0.1708
19427SOL     OW60148   2.463   1.984   0.105  0.0176  0.4323  0.2582
19427SOL    HW160149   2.504   1.935   0.034  0.5082  0.2681  0.6536
19427SOL    HW260150   2.481   2.076   0.084 -0.0655  0.4007  0.0372
19428SOL     OW60151   2.691   8.843   1.478  0.3651  0.1544  0.1886
19428SOL    HW160152   2.751   8.784   1.525  0.0605 -1.1743 -1.0109
19428SOL    HW260153   2.675   8.798   1.395 -0.9351  1.3263 -0.2152
19429SOL     OW60154   3.507   3.243   1.631  0.1440 -0.1634 -0.4594
19429SOL    HW160155   3.494   3.235   1.726 -0.2179  0.4512 -0.4547
19429SOL    HW260156   3.601   3.229   1.618  0.0554 -1.1549 -0.1110
19430SOL     OW60157   5.885   6.394   1.169 -0.1319  0.0649  0.4811
19430SOL    HW160158   5.879   6.452   1.093 -0.0154 -1.4336 -0.7046
19430SOL    HW260159   5.804   6.343   1.167  0.7853 -1.4423  0.1185
19431SOL     OW60160   7.237   6.276   3.810 -0.6316 -0.7426 -0.7817
19431SOL    HW160161   7.313   6.324   3.775 -1.1898 -0.5681 -1.8142
19431SOL    HW260162   7.164   6.305   3.755 -1.5456 -0.5430  0.5068
19432SOL     OW60163   7.312   7.439   4.356 -0.0116 -0.0997 -0.6683
19432SOL    HW160164   7.325   7.472   4.267 -0.5912  1.3771 -0.2437
19432SOL    HW260165   7.228   7.477   4.383 -1.1431 -2.6222 -0.3996
19433SOL     OW60166   3.117   4.931   5.922  0.1109 -0.1291 -0.1669
19433SOL    HW160167   3.131   4.965   6.010 -0.5452 -0.3415  0.0253
19433SOL    HW260168   3.141   4.838   5.928  0.7660  0.0169 -0.3995
19434SOL     OW60169   4.405   6.940   0.848  0.1031 -0.2674 -0.1449
19434SOL    HW160170   4.418   6.930   0.942 -0.3479 -0.6479 -0.1161
19434SOL    HW260171   4.310   6.931   0.837 -0.1405  2.0835 -0.3575
19435SOL     OW60172   5.442   4.053   5.661  0.3494  0.5551  0.5398
19435SOL    HW160173   5.417   3.961   5.668  1.8954  0.1609  1.2577
19435SOL    HW260174   5.463   4.066   5.569  1.8319 -0.3014  0.7326
19436SOL     OW60175   3.935   1.381   5.391 -0.6308 -0.3876  0.2576
19436SOL    HW160176   3.906   1.339   5.310 -0.2121  0.6329 -0.4404
19436SOL    HW260177   4.005   1.324   5.424 -0.1539 -0.3164 -0.6098
19437SOL     OW60178   3.941   1.858   5.535  0.2984  0.3222  0.2390
19437SOL    HW160179   4.006   1.910   5.488  0.3226  1.1304  1.1331
19437SOL    HW260180   3.988   1.824   5.611  0.2085 -0.7972 -0.1923
19438SOL     OW60181   8.764   3.598   0.602  0.3911  0.2344 -0.0058
19438SOL    HW160182   8.738   3.681   0.642 -0.7606 -0.5280  0.9180
19438SOL    HW260183   8.852   3.581   0.636  1.3905  1.9089 -1.6129
19439SOL     OW60184   5.719   8.050   0.289  0.2071 -0.0603 -0.5077
19439SOL    HW160185   5.785   8.026   0.353 -0.8887 -0.1636  0.6201
19439SOL    HW260186   5.712   7.973   0.232 -0.5451 -0.9723  0.7544
19440SOL     OW60187   7.470   0.371   0.484 -0.1841 -0.1961  0.0194
19440SOL    HW160188   7.443   0.320   0.408 -1.0259 -0.1279  0.2641
19440SOL    HW260189   7.423   0.454   0.475 -0.3820 -0.2271  0.6619
19441SOL     OW60190   5.225   3.361   8.036  0.2732  0.1134 -0.4075
19441SOL    HW160191   5.305   3.360   7.983  1.1683 -3.7052  0.6971
19441SOL    HW260192   5.157   3.392   7.976  2.0722  0.9631 -2.1526
19442SOL     OW60193   4.279   4.561   8.053  0.3816 -0.3414 -0.3200
19442SOL    HW160194   4.252   4.629   8.114 -1.9376 -1.4147 -0.0533
19442SOL    HW260195   4.292   4.484   8.108 -0.7135 -1.0584 -1.0330
19443SOL     OW60196   0.940   3.188   0.992  0.3990 -0.5702 -0.3716
19443SOL    HW160197   0.944   3.254   0.923  0.3630  0.8102  0.8795
19443SOL    HW260198   0.848   3.183   1.014  0.6130  0.5686  0.9569
19444SOL     OW60199   1.745   8.351   7.106 -0.5178 -0.1046  0.3298
19444SOL    HW160200   1.822   8.397   7.140 -0.8525  0.8751 -0.1952
19444SOL    HW260201   1.734   8.276   7.164 -0.3088  0.8138  1.5992
19445SOL     OW60202   7.357   0.490   5.149  0.2514  0.4637 -0.3959
19445SOL    HW160203   7.272   0.471   5.111  0.0726 -0.1220  0.2764
19445SOL    HW260204   7.344   0.481   5.244  1.2455 -0.4110 -0.3196
19446SOL     OW60205   0.469   0.531   1.055  0.0612 -0.6796 -0.2334
19446SOL    HW160206   0.529   0.566   1.120  0.1415 -2.0699  0.4828
19446SOL    HW260207   0.393   0.502   1.106 -0.5420 -0.3785 -0.9415
19447SOL     OW60208   5.472   1.067   5.791 -0.1154  0.1885  0.2774
19447SOL    HW160209   5.471   1.136   5.857 -1.3151  0.1162  0.3620
19447SOL    HW260210   5.380   1.043   5.780  0.1862 -0.6876 -0.4963
19448SOL     OW60211   3.059   5.536   0.207 -0.0441  0.3058  0.2793
19448SOL    HW160212   3.113   5.574   0.277 -1.0122  2.2184  0.0560
19448SOL    HW260213   2.978   5.587   0.209 -0.6726 -0.5607 -1.3106
19449SOL     OW60214   3.775   0.146   6.699  0.2359 -0.4292  0.4396
19449SOL    HW160215   3.834   0.087   6.746  0.1482 -1.3877 -0.6097
19449SOL    HW260216   3.697   0.151   6.754 -0.4759 -2.7267 -0.2408
19450SOL     OW60217   7.004   0.823   0.913  0.1272 -0.5877  0.0681
19450SOL    HW160218   6.994   0.789   0.824 -0.4074  1.4648 -0.7246
19450SOL    HW260219   7.080   0.777   0.948  0.6675 -1.0810 -1.6434
19451SOL     OW60220   5.112   6.359   0.182 -0.0627 -0.2686 -0.6277
19451SOL    HW160221   5.078   6.358   0.092 -0.2234  0.0904 -0.5721
19451SOL    HW260222   5.207   6.354   0.172 -0.0648  0.0787 -0.8291
19452SOL     OW60223   6.414   4.695   3.283 -0.0931  0.2880 -0.4952
19452SOL    HW160224   6.464   4.701   3.202  1.2901 -3.2750 -0.0867
19452SOL    HW260225   6.326   4.667   3.256  0.5054 -1.3896 -0.8319
19453SOL     OW60226   4.257   0.059   7.398  0.1773 -0.1580  0.4704
19453SOL    HW160227   4.176   0.099   7.428 -0.1790 -0.2106 -0.3804
19453SOL    HW260228   4.296   0.123   7.339  0.0133 -0.7239 -0.2649
19454SOL     OW60229   4.780   0.451   5.717 -0.3945 -0.6267  0.9256
19454SOL    HW160230   4.780   0.374   5.773 -0.9824 -0.6695  0.8806
19454SOL    HW260231   4.692   0.452   5.678 -0.1929 -0.2659  0.4711
19455SOL     OW60232   7.304   2.693   4.161  0.1692 -0.0823 -0.3274
19455SOL    HW160233   7.262   2.650   4.236  1.2991 -0.7277 -0.0214
19455SOL    HW260234   7.297   2.786   4.179 -1.1370 -0.1665 -0.3138
19456SOL     OW60235   8.538   0.764   0.128  0.3621 -0.4122 -0.3258
19456SOL    HW160236   8.609   0.699   0.136 -2.2168 -3.2883  1.6177
19456SOL    HW260237   8.489   0.737   0.051 -1.1044 -1.2788  0.8609
19457SOL     OW60238   0.996   3.323   0.269 -0.3481  0.2479  0.0863
19457SOL    HW160239   0.934   3.280   0.210 -0.1350  2.9052 -2.3168
19457SOL    HW260240   0.942   3.374   0.329 -0.6901  2.5582 -2.0024
19458SOL     OW60241   2.904   7.366   8.864  0.0068  0.2681  0.4657
19458SOL    HW160242   2.826   7.335   8.909  0.2202 -0.3385  0.4346
19458SOL    HW260243   2.974   7.309   8.896  0.3954  0.6670  0.3362
19459SOL     OW60244   0.606   5.521   2.641 -0.3029  0.2778 -0.0647
19459SOL    HW160245   0.623   5.585   2.572  0.1953 -0.5375 -0.7139
19459SOL    HW260246   0.626   5.567   2.722 -0.5070  1.1216 -0.4856
19460SOL     OW60247   5.649   8.481   7.672 -0.2211  0.1891  0.0239
19460SOL    HW160248   5.691   8.490   7.758 -1.0366  1.7854  0.2788
19460SOL    HW260249   5.708   8.424   7.623  0.1975 -0.8749  1.6764
19461SOL     OW60250   5.025   1.534   6.919 -0.1421 -0.3028  0.1028
19461SOL    HW160251   5.048   1.491   6.836 -1.9859 -2.4237  0.5914
19461SOL    HW260252   4.976   1.612   6.893  0.2218 -0.3655 -0.8097
19462SOL     OW60253   4.304   3.884   2.936 -0.0518 -0.2307  0.4657
19462SOL    HW160254   4.232   3.829   2.966 -1.1805  2.0809  2.3393
19462SOL    HW260255   4.306   3.956   2.999  1.8472  1.4547 -1.3948
19463SOL     OW60256   8.459   3.706   0.246  0.0104 -0.2344  0.3575
19463SOL    HW160257   8.550   3.733   0.236 -0.0728  0.1783  0.6931
19463SOL    HW260258   8.444   3.706   0.340 -0.3627 -0.2205  0.2992
19464SOL     OW60259   0.128   5.784   1.213  0.2670  0.4242  0.3828
19464SOL    HW160260   0.160   5.871   1.190 -0.4440  0.0900 -2.3005
19464SOL    HW260261   0.170   5.726   1.149 -0.7200 -0.9132  0.9064
19465SOL     OW60262   7.178   3.370   8.778  0.0849 -0.0961 -0.1372
19465SOL    HW160263   7.264   3.340   8.749  0.0710 -0.5502  0.2882
19465SOL    HW260264   7.117   3.328   8.718  0.2013  0.9784 -1.0495
19466SOL     OW60265   3.485   8.407   5.744 -0.1080 -0.0352  0.6163
19466SOL    HW160266   3.574   8.441   5.736 -0.4129  0.5841 -0.1948
19466SOL    HW260267   3.428   8.483   5.733 -0.8263 -0.8417 -1.9220
19467SOL     OW60268   2.449   1.904   0.764  0.6110 -0.5967  0.2922
19467SOL    HW160269   2.422   1.877   0.676  1.5829 -0.3634 -0.0891
19467SOL    HW260270   2.503   1.832   0.796  1.6481  0.0388  0.0178
19468SOL     OW60271   7.790   8.254   2.316 -0.0468 -0.1139  0.1805
19468SOL    HW160272   7.826   8.237   2.229 -0.1279  0.0302  0.1187
19468SOL    HW260273   7.822   8.341   2.338  0.1154 -0.2185  0.3688
19469SOL     OW60274   6.780   0.555   7.104 -0.2320  0.0021  0.2968
19469SOL    HW160275   6.790   0.538   7.198  0.2106  0.6376  0.3640
19469SOL    HW260276   6.869   0.562   7.071 -0.3826 -0.4468 -0.2192
19470SOL     OW60277   1.971   5.869   2.842 -0.4163 -0.2060 -0.3784
19470SOL    HW160278   1.998   5.937   2.903 -0.3336 -1.6976  1.3142
19470SOL    HW260279   1.928   5.916   2.771  0.7973  1.7018  0.0780
19471SOL     OW60280   2.412   1.638   8.407  0.3542  0.0169  0.2355
19471SOL    HW160281   2.337   1.662   8.352  0.6573 -1.2687 -0.8068
19471SOL    HW260282   2.373   1.602   8.487 -0.0945  1.7399  0.8283
19472SOL     OW60283   0.971   2.215   0.291  0.4028 -0.2042 -0.2175
19472SOL    HW160284   0.929   2.238   0.374  0.4448 -0.5900 -0.0846
19472SOL    HW260285   0.977   2.119   0.293  1.9481 -0.1306  0.0915
19473SOL     OW60286   4.327   7.041   6.975  0.6894 -0.0856  0.3071
19473SOL    HW160287   4.304   6.950   6.960  2.2523 -0.5515  0.6091
19473SOL    HW260288   4.369   7.043   7.061  0.8277  0.8943  0.2371
19474SOL     OW60289   0.763   1.251   1.717 -0.6808 -0.2175 -0.3089
19474SOL    HW160290   0.739   1.239   1.809 -1.7321  0.2670 -0.5053
19474SOL    HW260291   0.842   1.198   1.706 -0.6893 -0.4915  0.8042
19475SOL     OW60292   3.652   1.063   1.139  0.1822 -0.2896  0.1618
19475SOL    HW160293   3.672   1.155   1.118 -1.8343 -0.0231 -0.8777
19475SOL    HW260294   3.712   1.041   1.210  1.8905  1.2966 -0.6878
19476SOL     OW60295   6.389   4.929   8.991 -0.2219  0.5086 -0.0087
19476SOL    HW160296   6.465   4.874   8.972  0.4159  1.4935 -0.3966
19476SOL    HW260297   6.354   4.893   9.073  1.9745  1.3232  1.4124
19477SOL     OW60298   2.002   2.360   2.680 -0.1829 -0.3089  0.0651
19477SOL    HW160299   2.017   2.450   2.709 -0.3428  0.1206 -1.1363
19477SOL    HW260300   2.089   2.326   2.658 -0.3619  0.5873 -2.3389
19478SOL     OW60301   2.080   5.585   3.902  0.0334 -0.2687 -0.0201
19478SOL    HW160302   1.994   5.613   3.871  0.1039  1.4320  1.2017
19478SOL    HW260303   2.074   5.489   3.905 -2.3939 -0.1556  1.5789
19479SOL     OW60304   0.979   4.466   5.786 -0.3794  0.1051  0.3541
19479SOL    HW160305   0.962   4.388   5.839 -0.7377 -0.0409  0.0238
19479SOL    HW260306   1.055   4.506   5.827 -0.5278 -0.1211  0.8600
19480SOL     OW60307   7.806   6.892   3.339 -0.9431  0.2998 -0.0134
19480SOL    HW160308   7.784   6.811   3.385 -0.7574  0.2820  0.0418
19480SOL    HW260309   7.800   6.869   3.246  0.2120 -0.0785 -0.0047
19481SOL     OW60310   3.957   5.281   1.097  0.2620 -0.5177  0.3394
19481SOL    HW160311   3.890   5.241   1.152  0.9999 -2.9273 -0.3995
19481SOL    HW260312   3.915   5.290   1.011  0.3373 -0.4314  0.3113
19482SOL     OW60313   5.697   8.018   4.889 -0.1589  0.2721 -0.6986
19482SOL    HW160314   5.704   8.101   4.936 -0.2031 -0.6156  0.9145
19482SOL    HW260315   5.616   7.978   4.920  0.4032 -0.8726 -0.6282
19483SOL     OW60316   3.361   6.794   2.170 -0.3725  0.2555 -0.1641
19483SOL    HW160317   3.324   6.856   2.233 -0.6797 -1.7315  1.7472
19483SOL    HW260318   3.452   6.783   2.198 -0.3519 -0.2201 -0.4050
19484SOL     OW60319   1.870   6.219   2.894  0.0221  0.5581  0.4670
19484SOL    HW160320   1.890   6.297   2.843  0.7936  0.1090  0.0620
19484SOL    HW260321   1.851   6.252   2.982  0.8049  1.1657  0.4178
19485SOL     OW60322   4.932   7.743   6.424  0.1337 -0.5533  0.6865
19485SOL    HW160323   4.874   7.742   6.501 -1.1389 -1.3710 -0.2403
19485SOL    HW260324   4.916   7.828   6.383 -2.8146 -1.8740 -1.2351
19486SOL     OW60325   1.662   2.180   3.695  0.2948 -0.1306 -0.0306
19486SOL    HW160326   1.617   2.230   3.626  1.5426 -0.0961 -0.8435
19486SOL    HW260327   1.725   2.125   3.648  2.0939  0.8433  1.1398
19487SOL     OW60328   2.332   3.443   8.722  0.3095  0.4033  0.2393
19487SOL    HW160329   2.360   3.417   8.809  0.2994  0.7662  0.3541
19487SOL    HW260330   2.260   3.504   8.737 -0.4228 -0.3640 -0.0485
19488SOL     OW60331   7.273   0.254   3.754  0.4477  0.0922  0.3432
19488SOL    HW160332   7.274   0.342   3.717 -0.9245  0.4236  1.0394
19488SOL    HW260333   7.249   0.266   3.845  2.1389 -0.8645  0.9642
19489SOL     OW60334   5.520   7.165   3.840 -0.2242 -0.9290 -0.0096
19489SOL    HW160335   5.577   7.108   3.788  0.2906  1.5543 -2.3975
19489SOL    HW260336   5.431   7.143   3.812  0.0375  0.2552 -1.9532
19490SOL     OW60337   5.490   6.411   4.924  0.4878 -0.5404  0.2931
19490SOL    HW160338   5.569   6.445   4.882  0.6060 -0.5357  0.5194
19490SOL    HW260339   5.420   6.470   4.894  0.2749 -1.4779 -1.1847
19491SOL     OW60340   2.616   8.613   2.363 -0.1061  0.3652 -0.3132
19491SOL    HW160341   2.704   8.650   2.361  0.3942  0.1109  4.4894
19491SOL    HW260342   2.562   8.679   2.407 -0.7660 -1.7008  2.2524
19492SOL     OW60343   8.844   0.071   0.422 -0.1137 -0.8685 -0.3611
19492SOL    HW160344   8.814  -0.013   0.455  0.9551 -1.4076 -0.7370
19492SOL    HW260345   8.911   0.099   0.484  0.2436 -0.7718 -0.7856
19493SOL     OW60346   5.961   6.715   2.487  0.2794 -0.2772 -0.0720
19493SOL    HW160347   5.894   6.759   2.540 -0.1468 -1.1852  0.1571
19493SOL    HW260348   5.994   6.784   2.430 -0.9855  0.1613 -0.3199
19494SOL     OW60349   4.719   3.631   1.269  0.0414 -0.0191  0.6640
19494SOL    HW160350   4.626   3.635   1.248 -0.4740 -2.1975  2.2518
19494SOL    HW260351   4.761   3.602   1.188 -1.0069 -1.5742  0.6492
19495SOL     OW60352   0.900   8.630   1.511 -0.0231 -0.1501 -0.1323
19495SOL    HW160353   0.987   8.662   1.536 -0.8106  1.9095  0.1725
19495SOL    HW260354   0.843   8.659   1.582 -0.9272 -1.8007 -0.1474
19496SOL     OW60355   0.125   2.984   3.090 -0.1584 -0.4882  0.9795
19496SOL    HW160356   0.035   3.009   3.112  0.0397  0.1649  1.0800
19496SOL    HW260357   0.179   3.049   3.134  0.3886 -1.1511  1.3014
19497SOL     OW60358   2.548   4.903   3.975 -0.5640  0.0339  0.5478
19497SOL    HW160359   2.456   4.915   4.000 -0.6224  1.3130 -0.2025
19497SOL    HW260360   2.586   4.854   4.048 -1.5262  0.6631  1.5071
19498SOL     OW60361   5.158   5.411   8.952 -0.0744 -0.5052 -0.0185
19498SOL    HW160362   5.213   5.489   8.959 -0.1219 -0.5956  1.5981
19498SOL    HW260363   5.120   5.400   9.039  0.5681 -2.7846  0.0305
19499SOL     OW60364   0.922   8.099   7.955 -0.1148  0.3211 -0.6344
19499SOL    HW160365   0.910   8.004   7.960  0.6126  0.2949  1.2976
19499SOL    HW260366   0.933   8.127   8.045  1.5513  2.0152 -1.2981
19500SOL     OW60367   7.676   5.116   2.151 -0.2390  0.3227  0.2917
19500SOL    HW160368   7.700   5.207   2.165 -1.0197  0.5629  0.1128
19500SOL    HW260369   7.692   5.101   2.057  0.4168  0.1077  0.4319
19501SOL     OW60370   6.970   4.935   6.873  0.4123 -0.0436  0.6749
19501SOL    HW160371   6.937   4.916   6.785 -1.3442  0.8985  1.0784
19501SOL    HW260372   7.032   5.006   6.861  0.2808 -0.0059  0.1829
19502SOL     OW60373   5.698   4.390   1.983 -0.6583  0.4429  0.0841
19502SOL    HW160374   5.668   4.408   1.894 -1.8348 -1.1673  0.1113
19502SOL    HW260375   5.625   4.417   2.039 -0.2524  0.6690  0.5095
19503SOL     OW60376   4.512   5.343   1.026 -0.1096 -0.0455 -0.2608
19503SOL    HW160377   4.500   5.305   1.113  1.4906 -0.2254 -0.0901
19503SOL    HW260378   4.589   5.299   0.991 -0.5439  0.2618 -1.6516
19504SOL     OW60379   2.176   4.112   0.605  0.1861  0.7441 -0.1240
19504SOL    HW160380   2.174   4.113   0.701 -0.1105  0.8191 -0.1315
19504SOL    HW260381   2.099   4.062   0.579  1.0633 -0.5600 -0.2976
19505SOL     OW60382   7.422   1.250   4.024 -0.3595  0.0350  0.7398
19505SOL    HW160383   7.469   1.329   4.050  1.1115 -0.4905 -0.1738
19505SOL    HW260384   7.467   1.179   4.070 -0.0817 -0.5022 -0.3176
19506SOL     OW60385   3.168   1.601   6.626 -0.2928  0.8552 -0.1577
19506SOL    HW160386   3.198   1.510   6.625 -2.5128  0.0032  2.0648
19506SOL    HW260387   3.225   1.645   6.563  1.4886 -1.8449 -0.6063
19507SOL     OW60388   0.103   2.262   5.972  0.3489  0.4998 -0.3641
19507SOL    HW160389   0.154   2.326   5.924  0.1447  0.3175 -0.8291
19507SOL    HW260390   0.164   2.190   5.991  0.2111  0.1823 -1.1125
19508SOL     OW60391   2.423   2.194   5.794  0.0766  0.2488 -0.4791
19508SOL    HW160392   2.483   2.171   5.723  0.5563 -0.9507  0.2838
19508SOL    HW260393   2.342   2.149   5.772 -0.8875  2.4843 -1.9143
19509SOL     OW60394   6.856   1.662   2.769 -0.1359 -0.3655  0.1434
19509SOL    HW160395   6.879   1.571   2.789 -1.3991 -0.4526  1.3705
19509SOL    HW260396   6.877   1.710   2.849 -0.6132  0.1990 -0.0629
19510SOL     OW60397   5.149   2.209   0.010  0.0673 -0.4553  0.1857
19510SOL    HW160398   5.058   2.227   0.034  0.1975 -0.1647  0.4687
19510SOL    HW260399   5.189   2.174   0.090  0.0158 -1.2901 -0.1425
19511SOL     OW60400   0.663   5.295   1.397 -0.4544  0.2065  0.0880
19511SOL    HW160401   0.705   5.272   1.315 -1.2430 -0.1029 -0.2337
19511SOL    HW260402   0.705   5.239   1.463 -0.7432 -0.4889 -0.3142
19512SOL     OW60403   7.936   5.671   1.468  0.3498  0.4187  0.0853
19512SOL    HW160404   7.934   5.577   1.483  1.4897  0.6087  1.7705
19512SOL    HW260405   7.845   5.699   1.475  0.2027 -0.3223  1.4270
19513SOL     OW60406   3.336   8.114   1.204 -1.2329 -0.6339  0.5947
19513SOL    HW160407   3.252   8.158   1.190 -1.3848 -1.1496 -0.2393
19513SOL    HW260408   3.397   8.184   1.224 -1.5318 -0.0580 -0.4002
19514SOL     OW60409   0.826   6.723   7.369  0.0328 -0.0154  0.2148
19514SOL    HW160410   0.748   6.775   7.384 -0.5235 -1.0409  0.9828
19514SOL    HW260411   0.794   6.644   7.324  1.1059  1.1143 -2.8503
19515SOL     OW60412   7.666   1.790   2.563  0.1890 -0.0786 -0.2452
19515SOL    HW160413   7.654   1.794   2.468  2.7832  0.7326 -0.6042
19515SOL    HW260414   7.616   1.864   2.596 -0.6096 -0.2703 -0.9567
19516SOL     OW60415   3.397   0.807   3.056 -0.6815 -0.6097 -0.3654
19516SOL    HW160416   3.307   0.777   3.072 -1.1574 -0.9260 -3.1630
19516SOL    HW260417   3.440   0.799   3.141 -3.0303 -1.3333  0.8519
19517SOL     OW60418   6.221   7.125   1.834  0.3078 -0.5938  0.1002
19517SOL    HW160419   6.134   7.091   1.811  0.3308 -0.2779 -0.4600
19517SOL    HW260420   6.208   7.171   1.917 -0.8065  2.3756 -1.5632
19518SOL     OW60421   8.086   8.721   6.532  0.0594  0.6512 -0.1290
19518SOL    HW160422   8.104   8.815   6.532  1.7057  0.3669  0.6826
19518SOL    HW260423   8.147   8.685   6.596 -0.6993 -0.9535 -0.2674
19519SOL     OW60424   3.598   5.070   1.532 -0.3773 -0.5874  0.4644
19519SOL    HW160425   3.654   5.144   1.556  0.6747 -0.9568 -0.7186
19519SOL    HW260426   3.587   5.078   1.438 -1.8474 -0.8794  0.5975
19520SOL     OW60427   2.957   2.682   7.926  0.0974  0.0030  0.2603
19520SOL    HW160428   2.877   2.641   7.894 -0.2952  1.4021 -0.6720
19520SOL    HW260429   2.990   2.732   7.850  0.2750  1.7374  1.4219
19521SOL     OW60430   0.767   4.715   3.755  0.0819 -0.0726  0.1770
19521SOL    HW160431   0.733   4.797   3.789 -0.9867 -0.2803 -0.3385
19521SOL    HW260432   0.747   4.651   3.823  0.7130  0.0503  0.4818
19522SOL     OW60433   2.556   1.675   5.433  0.2982 -0.4358  0.0784
19522SOL    HW160434   2.570   1.745   5.497 -0.2438  0.0072 -0.2771
19522SOL    HW260435   2.554   1.720   5.349 -2.1621 -0.5637 -0.0084
19523SOL     OW60436   3.779   6.303   2.224  0.1801  0.2218  0.0521
19523SOL    HW160437   3.806   6.381   2.175  2.1004 -0.4617 -0.0704
19523SOL    HW260438   3.684   6.300   2.213  0.3841  0.7147 -2.7475
19524SOL     OW60439   8.757   2.845   7.310 -0.1184 -0.5595 -0.1910
19524SOL    HW160440   8.690   2.879   7.369 -0.8785 -0.0948 -1.3020
19524SOL    HW260441   8.787   2.921   7.261  1.2018 -0.7665  0.2453
19525SOL     OW60442   4.541   4.324   0.108 -0.3138 -0.3624 -0.5740
19525SOL    HW160443   4.579   4.410   0.091 -1.2488  0.3503  0.7461
19525SOL    HW260444   4.536   4.319   0.204 -1.0471 -1.5278 -0.6581
19526SOL     OW60445   0.459   4.188   8.425  0.0415  0.9048  0.5769
19526SOL    HW160446   0.462   4.192   8.521 -0.3539 -1.1608  0.7189
19526SOL    HW260447   0.366   4.195   8.405  0.0006  0.0998  0.4471
19527SOL     OW60448   8.398   6.336   8.381  0.6626 -0.1442  0.1144
19527SOL    HW160449   8.396   6.372   8.469  3.7300  0.6483 -0.0307
19527SOL    HW260450   8.359   6.404   8.326  0.6330  0.2310  0.5977
19528SOL     OW60451   7.303   4.897   8.107  0.0511  0.6926  0.0923
19528SOL    HW160452   7.269   4.827   8.052  1.5680 -1.0443  1.2164
19528SOL    HW260453   7.263   4.882   8.193  0.8044  0.8474  0.4835
19529SOL     OW60454   0.750   2.071   5.361  0.2619  0.2077  0.0345
19529SOL    HW160455   0.731   2.117   5.279  1.5268  1.2718  0.3003
19529SOL    HW260456   0.738   2.137   5.429 -1.0371 -0.7336  0.7668
19530SOL     OW60457   2.859   5.014   3.139  0.2937 -0.1026 -0.0158
19530SOL    HW160458   2.908   4.953   3.083 -0.2095 -0.5971  0.0766
19530SOL    HW260459   2.796   5.055   3.079  0.7066  0.4183 -0.1015
19531SOL     OW60460   8.006   6.151   3.901 -0.2751 -0.3104 -0.3853
19531SOL    HW160461   8.072   6.161   3.833 -1.4271 -2.1426 -1.8751
19531SOL    HW260462   7.933   6.108   3.857 -1.3760 -0.8534  1.8405
19532SOL     OW60463   0.132   2.737   8.183  0.2604 -0.2848 -0.2245
19532SOL    HW160464   0.117   2.645   8.205  1.6805 -0.2012  1.2450
19532SOL    HW260465   0.222   2.754   8.209 -0.1786  1.7044  0.1670
19533SOL     OW60466   7.318   6.937   8.932 -0.4737  0.2893  0.0681
19533SOL    HW160467   7.313   7.023   8.890  0.8535  1.0820  1.4379
19533SOL    HW260468   7.366   6.883   8.869 -1.3052  0.5350 -0.7975
19534SOL     OW60469   2.617   1.322   4.040 -0.4773  0.0578  0.2509
19534SOL    HW160470   2.622   1.227   4.041  0.7621  0.0680 -0.9939
19534SOL    HW260471   2.633   1.346   3.948 -1.3589  1.4380  0.4289
19535SOL     OW60472   3.356   6.536   3.556 -0.1367 -0.6711  0.3575
19535SOL    HW160473   3.333   6.553   3.648 -0.2118  2.1778 -0.0863
19535SOL    HW260474   3.329   6.616   3.510 -1.6028 -2.6284 -2.4691
19536SOL     OW60475   6.693   0.285   2.935 -0.0806 -0.0327 -0.3139
19536SOL    HW160476   6.752   0.358   2.951  0.5742 -0.5848 -0.1572
19536SOL    HW260477   6.742   0.226   2.879  0.2008 -1.3069  1.1858
19537SOL     OW60478   1.989   0.874   3.356  0.1925 -0.4383  0.3281
19537SOL    HW160479   2.069   0.858   3.406 -1.0762  0.0849  2.6519
19537SOL    HW260480   1.935   0.927   3.414 -1.7984 -0.6612 -1.2325
19538SOL     OW60481   2.966   2.723   3.481  0.3175  0.7886  0.2565
19538SOL    HW160482   3.059   2.746   3.479  0.7502 -0.9039 -0.6062
19538SOL    HW260483   2.944   2.724   3.574  0.9491  2.0741  0.4204
19539SOL     OW60484   7.180   5.365   0.402  0.0581 -0.6206  0.3189
19539SOL    HW160485   7.155   5.282   0.443 -0.9205 -0.9222 -0.8486
19539SOL    HW260486   7.275   5.360   0.394 -0.0633 -2.0332 -0.5483
19540SOL     OW60487   8.494   3.574   2.885  0.0629  0.1134  0.5352
19540SOL    HW160488   8.485   3.496   2.829  0.9318 -0.3860  1.0720
19540SOL    HW260489   8.506   3.646   2.823  0.0582 -0.2982  0.0483
19541SOL     OW60490   2.951   8.644   2.117  0.4972  0.3109  0.3652
19541SOL    HW160491   3.032   8.693   2.100  1.4126 -1.1011  0.4908
19541SOL    HW260492   2.967   8.558   2.078 -0.0719 -0.7292  2.3331
19542SOL     OW60493   6.762   8.378   8.134  0.1699  0.2027  0.2413
19542SOL    HW160494   6.804   8.323   8.200  0.7990 -0.4774 -0.6956
19542SOL    HW260495   6.833   8.427   8.093 -0.0272 -0.3328 -0.7830
19543SOL     OW60496   2.685   4.735   0.458  0.2604 -0.0211 -0.1093
19543SOL    HW160497   2.755   4.718   0.394 -1.6815  2.3660 -3.1912
19543SOL    HW260498   2.697   4.827   0.482 -0.5133 -0.2072  1.0517
19544SOL     OW60499   7.477   2.521   6.103 -0.1570  0.2595 -0.0116
19544SOL    HW160500   7.501   2.466   6.178 -0.4668  0.1084 -0.0194
19544SOL    HW260501   7.416   2.585   6.140 -0.7601 -0.1757 -0.2476
19545SOL     OW60502   8.978   2.504   2.051  0.4455  0.0727 -0.0572
19545SOL    HW160503   8.959   2.438   2.119 -1.8925  1.6800  0.9998
19545SOL    HW260504   9.049   2.556   2.088 -0.0787  0.2747  0.6961
19546SOL     OW60505   3.181   4.177   5.818  0.3084 -0.0775  0.4164
19546SOL    HW160506   3.095   4.172   5.860  1.1220 -1.9200  2.0402
19546SOL    HW260507   3.163   4.207   5.729 -1.8006  1.3324  1.2367
19547SOL     OW60508   6.156   5.746   4.008 -0.2364 -0.6403  0.1248
19547SOL    HW160509   6.084   5.785   4.057 -0.4201 -0.9132  0.0739
19547SOL    HW260510   6.161   5.656   4.041 -0.6952 -0.9839 -0.7321
19548SOL     OW60511   1.680   6.083   3.974  0.0668  0.3673 -0.3200
19548SOL    HW160512   1.711   6.109   4.061  0.8581  0.7026 -0.6901
19548SOL    HW260513   1.613   6.017   3.991  1.1606 -0.5838  0.5233
19549SOL     OW60514   5.993   8.110   2.845  0.0822 -0.0265 -0.6189
19549SOL    HW160515   6.069   8.052   2.851 -0.5587 -1.0041 -1.4495
19549SOL    HW260516   5.922   8.061   2.889  0.2591  1.5565  1.6205
19550SOL     OW60517   6.927   3.071   1.853  1.1602  0.4244  0.1362
19550SOL    HW160518   6.922   3.032   1.940  4.2531 -0.5803 -0.0294
19550SOL    HW260519   6.939   3.164   1.868 -1.0243  0.6960  0.6338
19551SOL     OW60520   7.715   4.521   6.656 -0.3442  0.3230 -0.1589
19551SOL    HW160521   7.643   4.507   6.595  0.6633 -0.4807 -1.1947
19551SOL    HW260522   7.767   4.591   6.618 -0.6576  1.0407  0.6867
19552SOL     OW60523   7.837   0.179   6.797  0.3218  0.6946 -0.1657
19552SOL    HW160524   7.878   0.093   6.788  0.6624  0.9233 -0.9751
19552SOL    HW260525   7.748   0.166   6.766  0.6538  0.8282 -1.2385
19553SOL     OW60526   4.060   2.493   7.044 -0.0038 -0.1258  0.0427
19553SOL    HW160527   3.979   2.451   7.071 -0.5725 -0.1682 -1.6244
19553SOL    HW260528   4.050   2.585   7.071 -1.1373  0.1369 -1.1883
19554SOL     OW60529   8.926   0.782   4.027 -0.5029 -0.1881 -0.6077
19554SOL    HW160530   8.969   0.750   4.106 -2.1259 -1.0268 -0.0359
19554SOL    HW260531   8.846   0.825   4.057 -1.4240 -0.9899 -1.8032
19555SOL     OW60532   0.462   6.110   0.909  0.2459  0.1172 -0.3735
19555SOL    HW160533   0.434   6.191   0.952 -1.0681 -1.3517  1.7077
19555SOL    HW260534   0.511   6.140   0.832 -2.3291  2.8858 -1.1362
19556SOL     OW60535   7.785   6.944   1.350 -0.3324  0.1272  0.0284
19556SOL    HW160536   7.698   6.907   1.362  0.8702 -3.1244 -0.3174
19556SOL    HW260537   7.792   6.962   1.257 -0.1775 -1.0536 -0.2076
19557SOL     OW60538   4.378   1.872   8.680 -0.0591  0.6391 -0.2678
19557SOL    HW160539   4.309   1.806   8.674 -0.5284  1.1693 -0.7920
19557SOL    HW260540   4.442   1.846   8.613 -0.2553  0.7346 -0.4914
19558SOL     OW60541   5.126   1.467   5.147 -0.4103  0.2440 -0.0313
19558SOL    HW160542   5.086   1.405   5.087 -0.5813  0.9785 -0.6882
19558SOL    HW260543   5.139   1.417   5.228 -0.9651 -0.5091 -0.3965
19559SOL     OW60544   5.130   7.102   2.939 -0.2480  0.0971 -0.0506
19559SOL    HW160545   5.214   7.073   2.975 -1.0829 -1.4486  0.7440
19559SOL    HW260546   5.120   7.053   2.858  0.1542  1.1855 -0.7747
19560SOL     OW60547   8.176   5.490   6.537  0.4472  0.1073 -0.7451
19560SOL    HW160548   8.209   5.548   6.468  0.0067  3.1457  1.3881
19560SOL    HW260549   8.081   5.497   6.530  0.3906 -0.2955 -0.3988
19561SOL     OW60550   5.809   5.699   1.654 -0.2341 -0.0652 -0.4466
19561SOL    HW160551   5.843   5.609   1.660  1.4460  0.5610 -0.2219
19561SOL    HW260552   5.828   5.738   1.739 -3.1542 -0.1821  0.3543
19562SOL     OW60553   2.243   8.529   8.658 -0.0115  0.2159  0.0384
19562SOL    HW160554   2.285   8.461   8.605  2.4032  1.1053  0.6580
19562SOL    HW260555   2.281   8.518   8.745  1.3365  2.9776 -0.0981
19563SOL     OW60556   8.858   7.276   1.838 -0.0067 -0.1684  0.4130
19563SOL    HW160557   8.802   7.313   1.906 -1.7047 -0.9385 -0.5081
19563SOL    HW260558   8.874   7.186   1.867  0.0811 -0.1968  0.2801
19564SOL     OW60559   2.469   2.818   5.469  0.1580  0.4948  0.1490
19564SOL    HW160560   2.519   2.737   5.480  0.2054  0.3735 -0.8732
19564SOL    HW260561   2.380   2.795   5.496  0.5512  0.6219  1.6473
19565SOL     OW60562   7.859   6.474   2.342 -0.1967  0.3224 -0.3604
19565SOL    HW160563   7.953   6.460   2.339 -0.1503 -0.1574  1.7718
19565SOL    HW260564   7.821   6.386   2.345 -0.6250  0.5173  0.1436
19566SOL     OW60565   6.453   6.456   8.117  0.5769 -0.2523 -0.3144
19566SOL    HW160566   6.489   6.542   8.140 -0.0886 -0.3371  1.1435
19566SOL    HW260567   6.365   6.476   8.085  0.7803 -0.3182 -0.9320
19567SOL     OW60568   5.535   4.836   7.960  0.0556  0.2191  0.2878
19567SOL    HW160569   5.465   4.792   8.008  0.5022 -0.6075  0.1878
19567SOL    HW260570   5.499   4.923   7.940 -1.2703 -0.4722 -0.5083
19568SOL     OW60571   8.726   6.340   8.826  0.2737  0.0200  0.1397
19568SOL    HW160572   8.769   6.392   8.758 -0.2174 -0.0236 -0.2134
19568SOL    HW260573   8.797   6.307   8.880  0.6186  0.7872  0.1728
19569SOL     OW60574   1.480   8.555   1.449  0.1406 -0.0892 -0.7022
19569SOL    HW160575   1.501   8.646   1.470  0.5436 -0.3825  0.2085
19569SOL    HW260576   1.393   8.540   1.487  0.2650 -0.2102 -0.4617
19570SOL     OW60577   6.925   7.899   4.391 -0.1644  0.0018  0.4380
19570SOL    HW160578   6.984   7.959   4.437 -0.6990 -0.6835  2.0734
19570SOL    HW260579   6.961   7.812   4.409 -0.1684 -0.2671 -0.7831
19571SOL     OW60580   0.804   4.097   1.553 -0.1841 -0.3672  0.3950
19571SOL    HW160581   0.709   4.100   1.566 -0.3771 -0.6014 -0.8157
19571SOL    HW260582   0.827   4.005   1.570 -0.3557 -0.5634 -0.4162
19572SOL     OW60583   2.925   8.591   2.374  0.1716 -0.8614  0.6296
19572SOL    HW160584   2.962   8.505   2.353  1.9310 -0.1566  0.6949
19572SOL    HW260585   2.936   8.642   2.294 -0.1322 -0.4401  0.8538
19573SOL     OW60586   8.253   1.737   8.295  0.1156 -0.1815 -0.1591
19573SOL    HW160587   8.318   1.780   8.240 -0.9152 -0.5067 -1.7003
19573SOL    HW260588   8.204   1.681   8.235 -2.1842  0.7395  0.7432
19574SOL     OW60589   2.021   4.795   3.324  0.3537  0.1780 -0.2090
19574SOL    HW160590   2.112   4.765   3.332  0.5855  0.4486 -1.4794
19574SOL    HW260591   1.984   4.785   3.411  1.9483  1.1501  0.6343
19575SOL     OW60592   2.482   1.379   1.757 -0.0427  0.0074  0.9612
19575SOL    HW160593   2.516   1.357   1.843  0.0977 -2.3447  0.3882
19575SOL    HW260594   2.547   1.439   1.720  0.8664 -0.4409  1.7868
19576SOL     OW60595   6.549   2.999   3.041  0.8391 -0.0745  0.0394
19576SOL    HW160596   6.486   3.068   3.061  1.1351  0.2457 -0.1120
19576SOL    HW260597   6.632   3.033   3.075  1.0099 -0.2988 -0.1529
19577SOL     OW60598   6.347   7.041   6.558  0.4825  0.1583  0.4579
19577SOL    HW160599   6.304   7.006   6.480  0.1354  1.5102  0.0278
19577SOL    HW260600   6.441   7.028   6.541  0.3647 -0.7746  0.4316
19578SOL     OW60601   4.195   1.401   8.122  0.2189  0.2833  0.1012
19578SOL    HW160602   4.151   1.323   8.155  1.7255  0.4091  2.6871
19578SOL    HW260603   4.283   1.371   8.097  0.3265  0.8913 -0.2939
19579SOL     OW60604   7.141   7.092   7.143  0.1504 -0.0095 -0.0649
19579SOL    HW160605   7.125   7.105   7.237 -0.8348 -0.4479 -0.1602
19579SOL    HW260606   7.056   7.066   7.108  0.1295  1.7008 -1.3846
19580SOL     OW60607   1.334   0.238   7.646  0.1564  0.3034 -0.1242
19580SOL    HW160608   1.356   0.230   7.739  0.3405 -0.0116 -0.1936
19580SOL    HW260609   1.242   0.264   7.646  0.3374  0.9661  0.1584
19581SOL     OW60610   7.068   2.046   3.206 -0.5167  0.1552  0.5585
19581SOL    HW160611   7.106   2.134   3.215  0.1736 -0.0149 -0.4779
19581SOL    HW260612   7.058   2.015   3.296  0.6086  0.7269  0.8995
19582SOL     OW60613   3.687   4.720   5.349  0.7249  0.9309 -0.5310
19582SOL    HW160614   3.619   4.654   5.333  0.3964  1.2337 -0.4043
19582SOL    HW260615   3.745   4.714   5.274  2.5202 -1.7041  0.9213
19583SOL     OW60616   3.927   2.232   8.343 -0.1492 -0.1503 -0.0072
19583SOL    HW160617   3.938   2.215   8.249  1.0562  0.4703 -0.0054
19583SOL    HW260618   3.835   2.256   8.353 -0.5914 -1.4271 -0.8281
19584SOL     OW60619   0.259   1.267   1.464  0.2344  0.2233 -0.4998
19584SOL    HW160620   0.354   1.271   1.456  0.1805  1.2665 -0.6757
19584SOL    HW260621   0.233   1.354   1.493 -0.9085  0.7764 -2.9490
19585SOL     OW60622   0.879   7.206   6.961 -0.3187 -0.0140  0.2192
19585SOL    HW160623   0.929   7.255   7.026  0.3960  0.0348 -0.3547
19585SOL    HW260624   0.913   7.236   6.876 -0.8830 -0.4429 -0.1694
19586SOL     OW60625   3.763   8.708   1.650  0.2311 -0.0420  0.1210
19586SOL    HW160626   3.696   8.654   1.692  1.8113 -1.5356  0.8772
19586SOL    HW260627   3.742   8.798   1.677 -1.3514 -0.4738  0.4359
19587SOL     OW60628   8.710   4.183   7.998  0.6072  0.4515 -0.1176
19587SOL    HW160629   8.788   4.129   8.014 -0.4232 -1.2303 -0.4376
19587SOL    HW260630   8.670   4.193   8.084  1.0505  1.1326  0.0142
19588SOL     OW60631   4.810   2.734   5.074 -0.5051  0.5159  0.1032
19588SOL    HW160632   4.903   2.712   5.075 -0.5726 -0.1692 -2.3415
19588SOL    HW260633   4.807   2.829   5.059 -0.2221  0.6628  0.9336
19589SOL     OW60634   4.322   3.243   8.811 -0.1590  0.5402 -0.3071
19589SOL    HW160635   4.262   3.245   8.885  0.6287 -1.3112  0.4502
19589SOL    HW260636   4.364   3.329   8.812 -0.1638  0.5562  1.4108
19590SOL     OW60637   4.172   7.708   3.146  0.0967  0.8618 -0.1518
19590SOL    HW160638   4.263   7.690   3.172  0.6287 -0.4296 -2.6114
19590SOL    HW260639   4.180   7.753   3.062 -1.4997 -0.6244 -1.1742
19591SOL     OW60640   2.929   6.852   8.109 -0.2637  0.2781 -0.9323
19591SOL    HW160641   2.942   6.856   8.204 -0.5692 -1.7059 -0.7618
19591SOL    HW260642   2.887   6.935   8.087 -0.3882  0.6898  0.6980
19592SOL     OW60643   7.946   0.798   3.061  0.3393  0.3744 -0.2981
19592SOL    HW160644   7.967   0.841   3.143  0.3362 -0.8447  0.3660
19592SOL    HW260645   8.002   0.840   2.996  1.2290  0.5205  0.5512
19593SOL     OW60646   6.150   0.771   6.661  0.8761 -0.0966  0.7247
19593SOL    HW160647   6.095   0.766   6.584 -0.6338 -1.1263  1.8209
19593SOL    HW260648   6.171   0.864   6.669  0.8866  0.0507 -0.7788
19594SOL     OW60649   4.322   5.231   7.762  0.2987 -0.1736  0.1902
19594SOL    HW160650   4.300   5.243   7.670  0.3163  0.6733  0.2916
19594SOL    HW260651   4.239   5.238   7.808  0.3510 -0.1321  0.2790
19595SOL     OW60652   8.652   3.971   1.416 -0.1225 -0.6572  0.0204
19595SOL    HW160653   8.702   4.013   1.347  1.5353  0.2754  1.6996
19595SOL    HW260654   8.577   4.028   1.430  0.8082  0.4736  0.5884
19596SOL     OW60655   4.024   1.915   6.929 -0.0775 -0.4424 -0.7711
19596SOL    HW160656   3.976   1.888   7.007 -1.6882  1.6976 -0.9438
19596SOL    HW260657   4.115   1.924   6.959 -0.4244 -0.9416  0.4983
19597SOL     OW60658   4.633   6.323   5.543 -0.2508 -0.1517 -0.4750
19597SOL    HW160659   4.565   6.256   5.533  0.0091 -0.4786 -0.0621
19597SOL    HW260660   4.601   6.379   5.614 -0.2817 -0.0652 -0.5565
19598SOL     OW60661   4.184   4.681   6.362  0.2881  0.1433 -0.3726
19598SOL    HW160662   4.149   4.607   6.412  0.2398  0.2960 -0.1795
19598SOL    HW260663   4.233   4.733   6.427  0.5029  0.1634 -0.5516
19599SOL     OW60664   3.031   6.523   2.451  0.3134  0.2839 -0.2515
19599SOL    HW160665   3.095   6.496   2.516  0.4221  1.0764 -0.0202
19599SOL    HW260666   3.083   6.560   2.379  0.1768 -0.2561 -0.6375
19600SOL     OW60667   4.486   3.063   4.811 -0.2061 -0.8810 -0.0330
19600SOL    HW160668   4.451   3.077   4.724  2.6931 -0.3849 -1.2440
19600SOL    HW260669   4.462   3.143   4.859 -1.3759 -0.9263 -0.5202
19601SOL     OW60670   7.144   1.301   8.461  0.0377  0.4614  0.0882
19601SOL    HW160671   7.192   1.369   8.510 -0.1672  1.0280 -0.4854
19601SOL    HW260672   7.205   1.274   8.393  1.1073 -1.7619  1.8071
19602SOL     OW60673   1.771   3.339   4.349 -0.0750  0.1564  0.0677
19602SOL    HW160674   1.771   3.395   4.272  1.1919  0.0911  0.0030
19602SOL    HW260675   1.695   3.368   4.400 -1.0395  0.0592 -1.2864
19603SOL     OW60676   6.220   6.126   6.001  0.0218  0.1973  0.8161
19603SOL    HW160677   6.222   6.074   5.921 -0.5532  1.8240 -0.3040
19603SOL    HW260678   6.135   6.106   6.041  0.0940 -0.2405  0.7499
19604SOL     OW60679   2.971   4.357   2.988  0.4262  0.0842 -0.0746
19604SOL    HW160680   3.048   4.401   2.953 -0.2558  0.0199 -1.7296
19604SOL    HW260681   2.953   4.287   2.926 -1.1778  0.3281  0.0790
19605SOL     OW60682   1.911   7.202   7.789  0.4852 -0.5395  0.8735
19605SOL    HW160683   1.940   7.183   7.878  0.1075 -0.1458  1.0822
19605SOL    HW260684   1.837   7.143   7.775 -0.2071  0.2218  1.2505
19606SOL     OW60685   7.333   4.864   5.748  0.2662  0.2374  0.2971
19606SOL    HW160686   7.369   4.787   5.794 -0.9724 -0.7958 -0.3909
19606SOL    HW260687   7.410   4.914   5.722  1.2039 -1.4271 -0.3196
19607SOL     OW60688   7.641   7.180   2.399 -0.8229 -0.3147 -0.3943
19607SOL    HW160689   7.733   7.153   2.400 -0.9449 -0.7558 -0.7243
19607SOL    HW260690   7.616   7.178   2.307 -1.0369  0.2533 -0.3517
19608SOL     OW60691   3.720   1.594   5.379  0.2206 -0.2920  0.0995
19608SOL    HW160692   3.711   1.566   5.470 -1.7448 -1.0306 -0.2873
19608SOL    HW260693   3.809   1.567   5.354  0.3729 -1.0954  1.4304
19609SOL     OW60694   7.086   7.008   0.150 -0.0599 -0.2732 -0.6326
19609SOL    HW160695   7.055   6.923   0.119 -0.6258 -0.0079 -0.8043
19609SOL    HW260696   7.162   6.987   0.204  1.1586 -0.7463 -2.4157
19610SOL     OW60697   4.503   8.547   0.176 -0.2665 -0.7852 -0.0378
19610SOL    HW160698   4.534   8.500   0.099 -1.4964 -0.9334 -0.4489
19610SOL    HW260699   4.474   8.632   0.143 -1.0434 -0.9463  0.2123
19611SOL     OW60700   7.652   0.135   3.950 -0.2138  0.2845  0.4523
19611SOL    HW160701   7.580   0.119   3.890 -0.5196  2.1200  0.2769
19611SOL    HW260702   7.727   0.151   3.894  0.7723 -2.9934  0.6190
19612SOL     OW60703   3.171   3.059   0.070 -0.7345 -0.1880 -0.2653
19612SOL    HW160704   3.149   3.007  -0.007  0.1569  0.6484 -1.1130
19612SOL    HW260705   3.148   3.149   0.046 -1.8003 -0.0856  0.9933
19613SOL     OW60706   2.241   1.290   8.531  0.0801  0.1395 -0.0293
19613SOL    HW160707   2.220   1.266   8.441  0.0984  1.8453 -0.5104
19613SOL    HW260708   2.155   1.296   8.574  0.0633 -0.4953  0.0489
19614SOL     OW60709   7.450   4.288   8.296 -0.7424 -0.4136 -0.1268
19614SOL    HW160710   7.411   4.371   8.323  0.6702 -0.5107  2.5155
19614SOL    HW260711   7.512   4.311   8.227  0.2266  0.8947  1.1294
19615SOL     OW60712   2.786   7.503   3.659 -0.0576  0.6574  0.2213
19615SOL    HW160713   2.724   7.437   3.628  0.4734 -0.7635  2.0125
19615SOL    HW260714   2.872   7.460   3.651  0.2297  0.7727  2.1562
19616SOL     OW60715   0.697   0.109   6.339  0.1755 -0.3069 -0.3573
19616SOL    HW160716   0.788   0.120   6.311 -0.2725  1.3890 -1.3116
19616SOL    HW260717   0.646   0.143   6.266 -1.2133 -0.7516  0.3824
19617SOL     OW60718   4.149   3.781   7.042 -0.1996  0.3686  0.1426
19617SOL    HW160719   4.155   3.736   6.958  0.4796  2.0415 -0.7614
19617SOL    HW260720   4.069   3.833   7.036 -1.0578 -0.7831  1.2284
19618SOL     OW60721   5.010   3.635   4.617 -0.0134  0.2485  0.3041
19618SOL    HW160722   5.103   3.617   4.602  0.2286  1.0513  0.7691
19618SOL    HW260723   4.974   3.551   4.646  0.5631 -0.0679  0.1319
19619SOL     OW60724   6.562   2.003   3.538 -0.2707 -0.7318  0.0880
19619SOL    HW160725   6.496   2.010   3.607  0.2365 -0.4681  0.5462
19619SOL    HW260726   6.533   2.064   3.470 -0.2893 -0.3256  0.4607
19620SOL     OW60727   7.373   2.238   4.164  0.3590 -0.1880 -0.3057
19620SOL    HW160728   7.390   2.144   4.166  0.8287 -0.1405 -1.1782
19620SOL    HW260729   7.375   2.266   4.255  0.7966 -0.9282 -0.0856
19621SOL     OW60730   7.752   1.925   8.502  0.3743  0.3900  0.1607
19621SOL    HW160731   7.827   1.879   8.464  0.5925  0.4771  0.4783
19621SOL    HW260732   7.678   1.865   8.490 -0.3763  1.8105 -3.5918
19622SOL     OW60733   4.394   0.342   2.152 -0.0904  0.7468 -0.5956
19622SOL    HW160734   4.482   0.341   2.113 -0.1779  1.6707 -0.8521
19622SOL    HW260735   4.350   0.415   2.108 -0.8749  0.5050 -0.2208
19623SOL     OW60736   2.791   4.927   7.424  0.1134 -0.3797  0.4751
19623SOL    HW160737   2.753   4.878   7.351 -3.5234  0.9055  1.2920
19623SOL    HW260738   2.821   5.009   7.384 -1.6101  0.2034  0.2694
19624SOL     OW60739   3.646   7.733   0.566 -0.0919 -0.2322 -0.5874
19624SOL    HW160740   3.641   7.672   0.640  1.3250  2.3491  1.8366
19624SOL    HW260741   3.573   7.793   0.579  1.2109  1.3438 -0.1223
19625SOL     OW60742   4.860   6.619   6.339 -0.5727  0.2256  0.0792
19625SOL    HW160743   4.865   6.670   6.258  1.9878 -1.9879 -1.3225
19625SOL    HW260744   4.920   6.663   6.399 -2.0915  1.5742  0.6898
19626SOL     OW60745   6.470   5.968   2.989 -0.0449 -0.4128  0.1434
19626SOL    HW160746   6.560   5.937   2.978  0.4426  1.1593 -0.5006
19626SOL    HW260747   6.425   5.940   2.909  0.2430  0.0131 -0.1723
19627SOL     OW60748   6.764   6.285   7.540 -0.0807  0.4252 -0.0482
19627SOL    HW160749   6.826   6.314   7.608 -0.9738 -1.1959  1.5658
19627SOL    HW260750   6.681   6.324   7.566 -0.1015  1.1887 -1.2266
19628SOL     OW60751   1.709   3.229   8.384  0.7586  0.3622  0.4648
19628SOL    HW160752   1.777   3.161   8.386  1.3061  0.7551 -1.9861
19628SOL    HW260753   1.743   3.295   8.324 -0.7297  1.7945  1.1128
19629SOL     OW60754   2.691   0.718   1.425 -0.2485  0.0486  0.0136
19629SOL    HW160755   2.599   0.695   1.441 -0.9661  0.9477 -2.3411
19629SOL    HW260756   2.736   0.634   1.422 -0.9045 -0.3890  1.5508
19630SOL     OW60757   5.494   8.417   6.530  0.3611  0.0442  0.2543
19630SOL    HW160758   5.496   8.457   6.442 -0.3218 -0.9156 -0.2164
19630SOL    HW260759   5.553   8.472   6.582  0.5818  0.7892 -0.7354
19631SOL     OW60760   8.235   8.214   8.010  0.0917  0.0911  0.2823
19631SOL    HW160761   8.219   8.181   7.922  1.6375 -0.8496  0.3120
19631SOL    HW260762   8.149   8.240   8.042 -0.3526  1.5462 -1.9042
19632SOL     OW60763   6.794   5.475   6.857 -0.2128 -0.4952 -0.1553
19632SOL    HW160764   6.828   5.475   6.946  1.0654  2.8201 -0.4903
19632SOL    HW260765   6.700   5.493   6.867  0.0414  0.5579  0.5629
19633SOL     OW60766   2.157   0.956   0.524 -0.2028 -0.5496  0.3943
19633SOL    HW160767   2.253   0.953   0.519 -0.2959 -0.9779 -1.7703
19633SOL    HW260768   2.135   1.047   0.503 -0.2996 -0.6388  0.1055
19634SOL     OW60769   2.419   4.393   0.298  0.7079  0.5367 -0.1381
19634SOL    HW160770   2.471   4.465   0.331 -0.5088  0.9470  0.9986
19634SOL    HW260771   2.361   4.370   0.371  0.5146 -1.0583 -0.7445
19635SOL     OW60772   1.460   5.448   3.529 -0.3020 -0.1465  0.3960
19635SOL    HW160773   1.453   5.365   3.483 -1.0361  1.8360 -3.4188
19635SOL    HW260774   1.372   5.464   3.563 -0.3080 -0.6225  0.6175
19636SOL     OW60775   0.436   1.417   6.708 -0.3885 -0.6141 -0.7037
19636SOL    HW160776   0.470   1.359   6.776  0.4993 -1.1975 -1.6074
19636SOL    HW260777   0.360   1.371   6.673 -0.8173 -0.3348 -0.1392
19637SOL     OW60778   1.558   4.670   0.509 -0.5267 -0.2627  0.3932
19637SOL    HW160779   1.556   4.604   0.578 -0.6208 -0.3226  0.3332
19637SOL    HW260780   1.469   4.706   0.507  0.2732  2.2122  2.6770
19638SOL     OW60781   4.085   5.412   2.636 -0.3808 -0.0281 -1.0210
19638SOL    HW160782   4.007   5.373   2.676  0.2595  1.4376  1.9055
19638SOL    HW260783   4.051   5.487   2.587 -0.7907  2.4044  2.5853
19639SOL     OW60784   2.621   2.985   8.355 -0.0434 -0.0488 -0.4537
19639SOL    HW160785   2.588   2.948   8.273 -0.0851  0.0811 -0.4951
19639SOL    HW260786   2.615   2.912   8.418  1.0643 -0.4834 -0.8380
19640SOL     OW60787   8.946   5.530   4.295  0.0113  0.5362 -0.3029
19640SOL    HW160788   8.922   5.455   4.241 -3.1985  0.7752  0.5786
19640SOL    HW260789   8.977   5.492   4.377  3.3281  0.2127 -1.5491
19641SOL     OW60790   0.018   3.961   5.713  0.4994 -0.2141 -0.5014
19641SOL    HW160791   0.076   3.885   5.702 -1.5597 -1.9631  0.1561
19641SOL    HW260792   0.032   4.013   5.634  0.6501 -2.2365 -1.8839
19642SOL     OW60793   7.501   1.456   8.451 -0.3364 -0.1550 -0.1262
19642SOL    HW160794   7.418   1.473   8.493 -0.5894  0.5615 -0.8880
19642SOL    HW260795   7.478   1.426   8.363  0.2083  0.7642 -0.6012
19643SOL     OW60796   1.438   5.423   6.017 -0.1949  0.4124 -0.0793
19643SOL    HW160797   1.406   5.387   6.099  1.2960 -1.4413 -0.2325
19643SOL    HW260798   1.528   5.447   6.035 -0.5253  2.1598 -0.5958
19644SOL     OW60799   0.708   2.380   0.929 -0.7400  0.1594 -0.0310
19644SOL    HW160800   0.752   2.386   1.014 -1.2222 -0.8745  0.3135
19644SOL    HW260801   0.778   2.364   0.866 -0.6363 -2.4439  0.6310
19645SOL     OW60802   6.409   1.021   3.264 -0.0305  0.5698  0.5292
19645SOL    HW160803   6.353   0.946   3.282 -0.2529  0.6417  0.1274
19645SOL    HW260804   6.464   0.993   3.191 -1.3033  1.4113 -0.7755
19646SOL     OW60805   0.019   7.278   3.607 -0.6056 -0.2849 -0.0411
19646SOL    HW160806  -0.040   7.278   3.531 -1.2041 -0.7369  0.4174
19646SOL    HW260807   0.093   7.225   3.579 -0.3737  0.3434 -0.6491
19647SOL     OW60808   3.476   0.705   5.165 -0.1785  0.1038 -0.3975
19647SOL    HW160809   3.395   0.690   5.214  1.3351 -0.8446  1.9734
19647SOL    HW260810   3.546   0.694   5.229  1.8719  0.8731 -2.3548
19648SOL     OW60811   5.480   6.441   0.425 -0.1022  0.1107 -0.1718
19648SOL    HW160812   5.547   6.505   0.450  0.5141 -0.9025  0.9096
19648SOL    HW260813   5.398   6.479   0.457 -0.0472  1.2613 -1.3098
19649SOL     OW60814   2.180   4.693   5.587 -0.7648  0.4771 -0.1275
19649SOL    HW160815   2.122   4.732   5.521  0.6452 -0.1819 -1.8296
19649SOL    HW260816   2.139   4.609   5.607 -0.8436  0.3786 -0.6878
19650SOL     OW60817   8.627   7.032   3.493  0.4913 -0.1371 -0.2993
19650SOL    HW160818   8.696   7.003   3.434  0.4876  1.2304 -1.0370
19650SOL    HW260819   8.554   7.055   3.435 -1.0409 -2.5736  0.5235
19651SOL     OW60820   2.100   5.290   5.254 -0.6673 -0.9954 -0.2374
19651SOL    HW160821   2.068   5.317   5.340 -0.4381 -2.2181  0.2549
19651SOL    HW260822   2.169   5.226   5.274  1.9033  1.2699 -1.2450
19652SOL     OW60823   3.064   2.220   5.712 -0.1220  0.1645 -0.2245
19652SOL    HW160824   2.969   2.208   5.707  0.0254 -1.3587  0.1364
19652SOL    HW260825   3.099   2.133   5.729  1.2693  0.8650  0.8173
19653SOL     OW60826   3.908   3.095   1.674  0.5853  0.0497 -0.5219
19653SOL    HW160827   3.871   3.153   1.740  0.6039  1.0233 -1.3564
19653SOL    HW260828   3.866   3.120   1.593  0.9229 -0.8112 -0.9764
19654SOL     OW60829   4.031   5.465   2.979  0.0181 -0.3843  0.6004
19654SOL    HW160830   4.123   5.488   2.973 -0.0107 -0.0891  1.2611
19654SOL    HW260831   3.994   5.492   2.895  0.5468 -0.5947  0.2942
19655SOL     OW60832   5.397   5.760   3.724  0.2414  0.0805  0.2267
19655SOL    HW160833   5.431   5.689   3.779 -0.5663 -0.4804  0.0345
19655SOL    HW260834   5.459   5.767   3.652  0.3962 -0.3536  0.3141
19656SOL     OW60835   8.167   3.942   4.570 -0.6882 -0.1573 -0.0697
19656SOL    HW160836   8.072   3.937   4.568 -0.6363 -1.9575 -0.3299
19656SOL    HW260837   8.192   3.885   4.643  0.1881 -0.0708 -0.2943
19657SOL     OW60838   0.960   3.517   3.622  0.1061  0.0845 -0.3627
19657SOL    HW160839   0.985   3.501   3.531 -0.0689  0.9770 -0.5806
19657SOL    HW260840   0.865   3.507   3.623  0.2555 -1.5045  0.0764
19658SOL     OW60841   7.661   8.501   8.991 -0.0853  0.6595 -0.0338
19658SOL    HW160842   7.754   8.519   8.977 -0.0281 -0.2928 -0.9981
19658SOL    HW260843   7.617   8.554   8.925 -0.0751 -0.5567 -1.0559
19659SOL     OW60844   3.901   3.235   7.336  0.7025  0.2934 -0.1600
19659SOL    HW160845   3.957   3.305   7.304  1.3291 -0.2349 -0.2218
19659SOL    HW260846   3.814   3.275   7.341  0.9437  0.9068 -0.7470
19660SOL     OW60847   7.079   1.240   5.137 -0.3102 -0.0608 -0.2921
19660SOL    HW160848   7.165   1.274   5.115 -0.2245 -0.5228 -0.7060
19660SOL    HW260849   7.028   1.317   5.162  0.1791  0.2313 -0.1788
19661SOL     OW60850   1.372   3.827   6.249  0.4957 -0.3133 -0.1439
19661SOL    HW160851   1.385   3.918   6.276 -1.0305  0.1288 -0.8238
19661SOL    HW260852   1.359   3.780   6.332 -1.9184  0.6562  0.1049
19662SOL     OW60853   5.829   6.708   2.223 -0.0919  0.5859 -0.3211
19662SOL    HW160854   5.804   6.642   2.288 -0.4429  0.1810 -0.8662
19662SOL    HW260855   5.920   6.729   2.246 -0.8982  2.2042  1.7799
19663SOL     OW60856   5.652   0.945   5.599 -0.3943  0.0758  0.3587
19663SOL    HW160857   5.584   0.884   5.569  0.3073  0.0981 -1.3817
19663SOL    HW260858   5.618   0.980   5.681 -1.0383 -2.2780  1.1638
19664SOL     OW60859   6.304   8.839   8.814 -0.2628  0.4716  0.0182
19664SOL    HW160860   6.345   8.925   8.819  0.8035 -0.0947  2.4278
19664SOL    HW260861   6.348   8.796   8.741  1.4495  0.9054  0.7432
19665SOL     OW60862   1.038   5.639   7.626  0.0657  0.1634  0.5043
19665SOL    HW160863   1.072   5.729   7.627  1.5252 -0.3680  0.8090
19665SOL    HW260864   0.950   5.648   7.590  0.8287  1.4847 -1.1927
19666SOL     OW60865   4.215   4.593   4.597  0.0441 -0.5427  0.5299
19666SOL    HW160866   4.157   4.620   4.526 -0.5530 -2.8940  0.0414
19666SOL    HW260867   4.207   4.663   4.662 -0.0926  1.2295 -1.2738
19667SOL     OW60868   4.100   3.703   3.007 -0.5466 -0.2830 -0.6650
19667SOL    HW160869   4.041   3.668   2.941 -0.6822 -2.4723  0.5066
19667SOL    HW260870   4.141   3.626   3.046  0.0226  0.9443  1.3309
19668SOL     OW60871   1.023   4.746   4.496 -0.5458 -0.2867 -0.1621
19668SOL    HW160872   0.950   4.732   4.435 -0.9747  0.6756  0.1066
19668SOL    HW260873   1.091   4.788   4.443 -0.6262 -0.1496 -0.1580
19669SOL     OW60874   8.258   2.901   4.393 -0.5898 -0.3611  0.3658
19669SOL    HW160875   8.327   2.888   4.459 -0.0788 -0.8525 -0.2450
19669SOL    HW260876   8.227   2.812   4.373  0.8936 -0.5065 -1.7243
19670SOL     OW60877   3.399   6.584   7.083 -0.1810  0.2556  0.1515
19670SOL    HW160878   3.440   6.661   7.042  0.9949 -0.2770  0.3030
19670SOL    HW260879   3.467   6.548   7.140 -0.1643 -1.7856 -1.0651
19671SOL     OW60880   1.678   3.870   7.666 -0.1183 -0.4580  0.4281
19671SOL    HW160881   1.656   3.916   7.585  0.4500 -1.7373 -0.4709
19671SOL    HW260882   1.762   3.828   7.648 -0.7971 -2.1721  1.0698
19672SOL     OW60883   7.533   2.080   3.251  0.0995 -0.1685  0.4082
19672SOL    HW160884   7.483   2.138   3.194 -1.6116 -1.3999  0.5703
19672SOL    HW260885   7.621   2.078   3.213 -0.5187  0.4234 -1.1300
19673SOL     OW60886   5.194   1.771   1.447 -0.7949  0.3076 -0.2208
19673SOL    HW160887   5.128   1.810   1.504  0.0451  0.7762  0.4591
19673SOL    HW260888   5.269   1.830   1.454 -0.1238 -0.4846 -0.5860
19674SOL     OW60889   4.894   2.197   6.109  0.3090 -0.1209  0.7672
19674SOL    HW160890   4.842   2.219   6.187 -0.3034  1.2165  0.0185
19674SOL    HW260891   4.892   2.277   6.056  0.7644 -0.9854 -0.6001
19675SOL     OW60892   2.536   1.697   6.237  0.4086 -0.1675  0.3024
19675SOL    HW160893   2.627   1.722   6.228  0.8513 -1.6366  0.4194
19675SOL    HW260894   2.523   1.685   6.331  0.5303 -1.4213  0.1731
19676SOL     OW60895   2.175   5.805   5.753  0.2229  0.4883  0.3180
19676SOL    HW160896   2.172   5.865   5.828  0.5403 -0.6570  1.2873
19676SOL    HW260897   2.267   5.777   5.749 -0.1278 -0.7556  0.5778
19677SOL     OW60898   1.655   6.775   5.086 -0.3356  0.0220 -0.2832
19677SOL    HW160899   1.638   6.741   4.998  0.4854  0.4608 -0.6210
19677SOL    HW260900   1.638   6.869   5.079 -1.4226 -0.1090  0.3412
19678SOL     OW60901   2.403   7.521   5.456  0.2381  0.0284 -0.0205
19678SOL    HW160902   2.431   7.453   5.517 -2.4076  0.0719  1.4188
19678SOL    HW260903   2.338   7.477   5.401 -0.9809  1.1564  0.4601
19679SOL     OW60904   2.664   2.801   2.448  0.3984  0.0203 -0.6275
19679SOL    HW160905   2.736   2.803   2.511  0.8424  2.8907 -1.1122
19679SOL    HW260906   2.585   2.798   2.502  0.8184  0.2972  0.0137
19680SOL     OW60907   2.018   5.710   2.627 -0.0810 -0.6993 -0.2263
19680SOL    HW160908   2.043   5.764   2.702  0.3723  0.1923 -1.0058
19680SOL    HW260909   1.985   5.771   2.562 -0.6366 -1.4820 -0.7004
19681SOL     OW60910   1.695   1.393   8.137 -0.0356  0.4027 -0.2995
19681SOL    HW160911   1.622   1.450   8.161 -0.6949 -0.8457  0.8119
19681SOL    HW260912   1.683   1.315   8.192  1.4533 -0.3357 -0.9760
19682SOL     OW60913   4.277   2.242   6.635 -0.4557  0.3482  0.6963
19682SOL    HW160914   4.191   2.199   6.632 -1.2991  1.8236  1.9673
19682SOL    HW260915   4.324   2.195   6.703  0.6674 -1.9048 -1.4585
19683SOL     OW60916   8.329   7.158   4.233 -0.3510  0.0741  0.0483
19683SOL    HW160917   8.343   7.213   4.310  1.3902  0.3108 -0.4011
19683SOL    HW260918   8.336   7.068   4.266 -0.1774  0.1680  0.2679
19684SOL     OW60919   1.368   4.940   8.085 -0.7335 -0.0457 -0.0730
19684SOL    HW160920   1.457   4.903   8.084 -1.3786 -1.9730  2.5898
19684SOL    HW260921   1.334   4.923   7.997  1.3876  0.4886 -1.0737
19685SOL     OW60922   0.340   4.230   7.585  0.2523 -0.1258  0.8035
19685SOL    HW160923   0.309   4.269   7.504 -0.5752 -1.7575  0.2986
19685SOL    HW260924   0.384   4.302   7.631 -0.6524  1.2142 -0.3513
19686SOL     OW60925   4.079   6.117   5.322 -0.0967  0.0504 -0.3374
19686SOL    HW160926   4.137   6.190   5.342 -0.0474 -0.0895  0.0355
19686SOL    HW260927   4.131   6.039   5.340 -0.4849 -0.0770  0.2670
19687SOL     OW60928   6.129   3.153   3.187  0.2791  0.1850  0.0732
19687SOL    HW160929   6.170   3.236   3.164 -0.3730  1.1771  2.2613
19687SOL    HW260930   6.035   3.173   3.192  0.0815 -0.7694  0.3316
19688SOL     OW60931   4.332   7.560   0.993 -0.1272  0.1486 -0.0058
19688SOL    HW160932   4.297   7.585   1.079  0.0783  1.7430 -0.3437
19688SOL    HW260933   4.289   7.621   0.933 -0.3341 -1.0122 -1.0590
19689SOL     OW60934   1.245   2.821   8.742 -0.4518 -0.2084  0.3288
19689SOL    HW160935   1.266   2.729   8.761 -0.1975 -0.4628 -1.0625
19689SOL    HW260936   1.329   2.866   8.742 -0.7529  0.5772  3.4263
19690SOL     OW60937   0.158   2.136   7.311 -0.2969 -0.1697  0.5740
19690SOL    HW160938   0.158   2.040   7.311  2.2013 -0.2464  0.4984
19690SOL    HW260939   0.159   2.161   7.403  0.0974 -0.2629  0.5972
19691SOL     OW60940   5.929   1.251   7.143  0.0340  0.0026 -0.2932
19691SOL    HW160941   5.959   1.341   7.127 -1.9543  0.4960 -1.6700
19691SOL    HW260942   5.959   1.201   7.067 -0.3112 -0.0910 -0.3723
19692SOL     OW60943   4.315   0.752   2.974 -0.3223  0.5059  0.2167
19692SOL    HW160944   4.347   0.842   2.970  0.3271  0.2371 -1.4358
19692SOL    HW260945   4.269   0.739   2.891 -0.5737 -0.6387  0.5143
19693SOL     OW60946   4.445   4.623   6.230 -0.5677 -0.1779  0.1295
19693SOL    HW160947   4.352   4.623   6.249 -0.7991  0.6827 -0.9379
19693SOL    HW260948   4.452   4.656   6.140  0.8514  1.4056  0.7554
19694SOL     OW60949   6.959   1.625   8.694  0.3397 -0.2792  0.0425
19694SOL    HW160950   7.019   1.661   8.629  0.7936  0.3987  0.8198
19694SOL    HW260951   6.930   1.701   8.744 -2.6321 -0.2753 -1.4540
19695SOL     OW60952   3.024   4.456   6.105 -0.2251 -0.0329 -0.3095
19695SOL    HW160953   3.025   4.401   6.026 -2.2110  0.7497 -0.9381
19695SOL    HW260954   3.005   4.544   6.072 -2.8687  0.0296  1.1358
19696SOL     OW60955   2.939   1.673   5.465  0.4267 -0.2807 -0.0078
19696SOL    HW160956   3.025   1.633   5.475  1.5875  2.5055  2.9123
19696SOL    HW260957   2.891   1.648   5.545  0.1681  1.5864  0.4869
19697SOL     OW60958   6.905   7.412   4.428 -0.3414 -0.1968  0.3779
19697SOL    HW160959   6.973   7.478   4.440  0.8070 -0.8658 -1.9154
19697SOL    HW260960   6.880   7.387   4.517  3.2140 -0.7140  1.3918
19698SOL     OW60961   1.192   0.520   1.003  0.0987 -0.1931 -0.4049
19698SOL    HW160962   1.111   0.555   1.039  0.8183  1.0455  0.0819
19698SOL    HW260963   1.165   0.470   0.926 -1.1302  0.0157 -0.1216
19699SOL     OW60964   4.061   4.248   0.039 -0.4680 -0.1015  0.6296
19699SOL    HW160965   4.137   4.189   0.036  0.3081  0.8688  0.3100
19699SOL    HW260966   4.015   4.233  -0.043 -0.2252 -0.2151  0.5121
19700SOL     OW60967   3.160   7.264   2.407 -0.2175 -0.2190  0.5070
19700SOL    HW160968   3.181   7.317   2.330 -0.3347 -1.6466 -0.5549
19700SOL    HW260969   3.105   7.193   2.373 -0.3118 -0.8526  1.9208
19701SOL     OW60970   7.044   2.042   2.398  0.1054  0.3240 -0.4148
19701SOL    HW160971   7.000   2.030   2.314 -1.0218  3.5137 -0.4316
19701SOL    HW260972   6.996   1.986   2.459 -0.2638 -0.5897 -1.5012
19702SOL     OW60973   1.939   0.331   4.373 -0.4351  0.2445  0.3753
19702SOL    HW160974   1.871   0.367   4.429  1.4341  1.1631  2.1653
19702SOL    HW260975   2.007   0.399   4.369  0.7296 -0.9084 -0.7184
19703SOL     OW60976   8.746   2.621   0.235 -0.5304  0.1760  0.6669
19703SOL    HW160977   8.715   2.612   0.326  1.0719  0.7560  1.3030
19703SOL    HW260978   8.821   2.680   0.241  0.5991 -1.0189 -0.8146
19704SOL     OW60979   6.490   8.447   1.377 -0.2181 -0.3862  0.0059
19704SOL    HW160980   6.539   8.426   1.298 -1.5115 -1.1934 -0.6199
19704SOL    HW260981   6.527   8.391   1.444  0.2156 -0.4257 -0.2638
19705SOL     OW60982   4.837   4.727   1.375 -0.1974  0.3201  0.5889
19705SOL    HW160983   4.918   4.726   1.324 -0.5984 -0.6393 -0.0527
19705SOL    HW260984   4.832   4.815   1.410  1.5544  0.1665  1.3249
19706SOL     OW60985   8.102   0.639   1.872  0.7725  0.1203  0.6619
19706SOL    HW160986   8.030   0.699   1.852 -0.0794 -1.5972 -2.0308
19706SOL    HW260987   8.181   0.691   1.858  0.1324  1.7834  2.7849
19707SOL     OW60988   2.235   6.252   4.228 -0.1105  0.0504  0.3637
19707SOL    HW160989   2.202   6.208   4.306 -1.3341  2.3139  1.2331
19707SOL    HW260990   2.305   6.196   4.196  0.1481 -1.1686  2.8537
19708SOL     OW60991   3.187   1.106   7.747 -0.2511 -0.0251  0.4867
19708SOL    HW160992   3.237   1.181   7.713  0.7582 -0.7290  0.3956
19708SOL    HW260993   3.206   1.105   7.840 -1.6215  0.8366  0.8030
19709SOL     OW60994   4.996   2.655   2.906 -0.9166 -0.4401  0.5463
19709SOL    HW160995   5.053   2.628   2.977  1.4584  1.3270 -0.5417
19709SOL    HW260996   5.041   2.626   2.826 -0.1598  2.9814 -0.4630
19710SOL     OW60997   0.240   0.774   1.644 -0.6321  0.2196 -0.1251
19710SOL    HW160998   0.265   0.849   1.589 -1.0703 -0.0215 -0.6676
19710SOL    HW260999   0.145   0.777   1.645 -0.6359 -0.0789  0.2110
19711SOL     OW61000   3.065   5.415   3.865 -0.0899  0.5011 -0.2453
19711SOL    HW161001   3.076   5.452   3.778 -0.1636  1.0586 -0.0253
19711SOL    HW261002   2.983   5.453   3.897 -0.2649 -0.0056 -0.0831
19712SOL     OW61003   3.010   6.416   4.584  0.1483  0.8187  0.0443
19712SOL    HW161004   2.958   6.435   4.662  0.5648  0.2917  0.4482
19712SOL    HW261005   3.098   6.444   4.606  0.2010  0.9818 -0.3624
19713SOL     OW61006   1.113   6.047   5.304  0.1868  0.0214 -0.3350
19713SOL    HW161007   1.179   6.116   5.297  0.1985  0.0113 -0.3199
19713SOL    HW261008   1.030   6.094   5.313  0.1031  0.0446 -1.1051
19714SOL     OW61009   5.699   7.645   5.775 -0.1169 -0.1345  0.9767
19714SOL    HW161010   5.608   7.619   5.787 -1.1078  2.6217  0.1186
19714SOL    HW261011   5.732   7.583   5.709 -1.8276 -0.2603  0.1750
19715SOL     OW61012   3.625   6.097   8.339 -0.6886 -0.2456 -0.4933
19715SOL    HW161013   3.574   6.177   8.351 -1.1376 -0.7576  1.4832
19715SOL    HW261014   3.559   6.027   8.339 -0.2653 -0.6598 -1.7548
19716SOL     OW61015   1.179   1.937   6.998 -0.6134  0.2016  0.2926
19716SOL    HW161016   1.184   1.977   6.911 -0.4364  0.1137  0.2628
19716SOL    HW261017   1.237   1.991   7.052  0.6845 -0.8085 -0.0496
19717SOL     OW61018   6.251   4.517   6.162 -0.1746 -0.1592  0.6491
19717SOL    HW161019   6.245   4.422   6.154  0.1925 -0.0664 -1.3021
19717SOL    HW261020   6.169   4.549   6.126  1.7043  0.3357 -3.9321
19718SOL     OW61021   6.298   4.288   1.186 -0.4721 -0.3882  0.3011
19718SOL    HW161022   6.241   4.337   1.245 -0.9169 -0.8046  0.2272
19718SOL    HW261023   6.335   4.219   1.240  0.2320  0.0792  0.4286
19719SOL     OW61024   3.518   3.475   2.415 -0.0312 -0.3889  0.3287
19719SOL    HW161025   3.561   3.561   2.418 -1.1014  0.1500  1.3182
19719SOL    HW261026   3.424   3.496   2.418 -0.3587 -1.5442 -1.0736
19720SOL     OW61027   5.819   0.171   7.036  0.0728 -0.5359 -0.0660
19720SOL    HW161028   5.891   0.189   7.095  0.7886  1.4832 -1.4378
19720SOL    HW261029   5.745   0.150   7.093  1.0774 -0.0165  1.4645
19721SOL     OW61030   1.354   7.175   5.881  0.1460  0.0528  0.3296
19721SOL    HW161031   1.285   7.109   5.884  1.5942 -1.6184 -0.5831
19721SOL    HW261032   1.310   7.258   5.894 -1.8364 -1.0562  1.0752
19722SOL     OW61033   3.929   6.914   0.006 -0.2026 -0.7959  0.2885
19722SOL    HW161034   3.886   6.835   0.039 -0.3554 -1.2678 -0.9930
19722SOL    HW261035   4.020   6.905   0.034 -0.5396 -0.6358  1.5173
19723SOL     OW61036   3.054   7.881   0.952 -0.3579  0.5578 -0.3097
19723SOL    HW161037   3.106   7.937   0.895  1.0082 -0.5304 -0.1890
19723SOL    HW261038   2.984   7.937   0.984  1.7117  2.6080  0.9082
19724SOL     OW61039   1.605   6.777   5.473 -0.2698  0.0883 -0.0742
19724SOL    HW161040   1.513   6.766   5.498 -0.4582  2.5143  0.5076
19724SOL    HW261041   1.650   6.799   5.555  0.7654 -0.6200 -0.4300
19725SOL     OW61042   0.335   1.132   5.185  0.2760  0.1059  0.6363
19725SOL    HW161043   0.254   1.159   5.228  0.6748  0.1435  1.3911
19725SOL    HW261044   0.347   1.041   5.211 -0.0339 -0.2100 -0.2892
19726SOL     OW61045   6.205   2.533   1.765 -0.6604 -0.3247  0.2620
19726SOL    HW161046   6.115   2.507   1.744 -0.3445 -1.8598  0.7273
19726SOL    HW261047   6.259   2.490   1.698 -0.0665 -1.4116  1.4114
19727SOL     OW61048   5.926   4.295   8.712  0.0830  0.5528  0.0119
19727SOL    HW161049   5.917   4.209   8.669 -0.3095  1.3190 -1.5196
19727SOL    HW261050   5.839   4.315   8.745  0.1535  0.4117  0.2878
19728SOL     OW61051   0.355   5.814   5.997  0.1491  0.1320  0.4210
19728SOL    HW161052   0.377   5.876   5.927  1.1507  0.0253  0.6308
19728SOL    HW261053   0.371   5.863   6.078  1.0903 -0.4402  0.5921
19729SOL     OW61054   6.056   2.268   7.318  0.3622 -0.2671 -0.1805
19729SOL    HW161055   5.997   2.247   7.245  0.4936 -0.4051 -0.2490
19729SOL    HW261056   6.081   2.183   7.353 -0.8372 -0.1765  0.9528
19730SOL     OW61057   7.041   1.700   3.566 -0.0653  0.5661  0.3367
19730SOL    HW161058   7.112   1.637   3.579 -0.9466 -0.5407 -0.0640
19730SOL    HW261059   6.966   1.647   3.539 -0.6820  1.8450 -0.5889
19731SOL     OW61060   1.567   3.918   6.846 -0.1858 -0.0821 -0.6474
19731SOL    HW161061   1.649   3.925   6.797 -0.3599 -0.7338 -1.0403
19731SOL    HW261062   1.593   3.879   6.930  0.3298  2.3078  0.3829
19732SOL     OW61063   0.721   7.329   1.199  0.0217 -0.1992  0.6946
19732SOL    HW161064   0.773   7.311   1.277  0.8389  0.6355  0.3626
19732SOL    HW261065   0.711   7.244   1.157 -0.0623 -0.5889  1.4736
19733SOL     OW61066   2.693   6.491   2.078  0.1963  0.1066  0.2763
19733SOL    HW161067   2.760   6.553   2.051 -0.0236 -0.1259 -0.8693
19733SOL    HW261068   2.613   6.543   2.088  0.2544  0.1765  0.3734
19734SOL     OW61069   0.015   4.717   7.077 -0.3644 -0.2800  0.1080
19734SOL    HW161070  -0.041   4.792   7.096  1.7815  1.5453 -0.2635
19734SOL    HW261071  -0.024   4.677   6.999 -0.4115  1.8176 -1.0195
19735SOL     OW61072   7.290   2.632   1.173  0.0013  0.0771  0.0452
19735SOL    HW161073   7.295   2.704   1.235  1.7664  0.1593 -0.1544
19735SOL    HW261074   7.339   2.561   1.215 -1.1959 -0.8319 -0.0271
19736SOL     OW61075   1.390   7.843   0.257 -0.0327 -0.2434  0.3488
19736SOL    HW161076   1.343   7.893   0.191  0.0404 -0.2264  0.3100
19736SOL    HW261077   1.430   7.771   0.209 -1.2151 -1.0962  0.5938
19737SOL     OW61078   6.790   0.219   4.774  0.1639  0.2831 -0.2234
19737SOL    HW161079   6.876   0.233   4.735 -0.5005  1.7811 -1.2486
19737SOL    HW261080   6.731   0.275   4.723 -1.6830 -1.7507 -0.4445
19738SOL     OW61081   0.571   6.552   8.327 -0.1660  0.4203  0.6310
19738SOL    HW161082   0.645   6.518   8.278  1.2223  1.0989  2.1458
19738SOL    HW261083   0.563   6.494   8.403 -0.4194  1.0299  1.0822
19739SOL     OW61084   0.520   1.399   0.743 -0.3844  0.0096 -0.2400
19739SOL    HW161085   0.596   1.346   0.720 -0.6727 -0.9893  0.9527
19739SOL    HW261086   0.460   1.337   0.785 -1.1155  1.1192  0.4093
19740SOL     OW61087   0.969   8.222   0.293  0.0051 -0.4982  0.1982
19740SOL    HW161088   0.946   8.193   0.382 -1.0086  0.3660  0.2391
19740SOL    HW261089   1.012   8.146   0.254  2.0550 -0.3519  1.9859
19741SOL     OW61090   6.640   0.138   1.690 -0.1322  0.2170 -0.3173
19741SOL    HW161091   6.706   0.076   1.661  0.7396  1.3616 -0.8370
19741SOL    HW261092   6.672   0.223   1.662 -1.0180  0.9887  0.8813
19742SOL     OW61093   0.749   1.244   0.660  0.3873  0.2603  0.4495
19742SOL    HW161094   0.738   1.149   0.666  3.0935 -0.0781  1.4160
19742SOL    HW261095   0.809   1.257   0.587  1.3155  1.0651  1.3189
19743SOL     OW61096   3.512   0.780   0.053  0.4779 -0.4996  0.3428
19743SOL    HW161097   3.420   0.787   0.028  0.5531  0.7262  0.3813
19743SOL    HW261098   3.517   0.821   0.140  1.5432  2.1859 -0.8815
19744SOL     OW61099   1.676   4.992   2.298 -0.3737 -0.0787 -0.4929
19744SOL    HW161100   1.698   5.058   2.364  0.3806  0.5933 -1.3913
19744SOL    HW261101   1.713   4.910   2.333  0.7358  0.4252 -0.4434
19745SOL     OW61102   8.074   8.241   4.855 -0.0760 -0.2818 -0.3713
19745SOL    HW161103   8.053   8.193   4.935 -1.2985  1.7167  0.5728
19745SOL    HW261104   8.142   8.303   4.882 -1.8034  1.6885 -0.3458
19746SOL     OW61105   1.861   1.286   5.026  0.5557  0.3228 -0.3180
19746SOL    HW161106   1.804   1.316   5.096  1.9954  0.5555  0.8134
19746SOL    HW261107   1.808   1.224   4.976 -0.0043 -1.2183  2.0176
19747SOL     OW61108   2.504   7.769   1.131  0.3064  0.3743 -0.0513
19747SOL    HW161109   2.429   7.795   1.184 -0.9434 -0.3266 -1.4115
19747SOL    HW261110   2.526   7.846   1.080  0.1445  0.4017 -0.0778
19748SOL     OW61111   8.523   6.581   1.326  0.0704 -0.5343  0.5056
19748SOL    HW161112   8.484   6.644   1.387  1.2347  0.0306  0.6981
19748SOL    HW261113   8.491   6.607   1.240  2.3593  1.8479  0.2696
19749SOL     OW61114   0.042   8.608   8.082  0.9828 -0.5823 -0.9985
19749SOL    HW161115   0.039   8.699   8.052  0.6172 -0.2642 -0.0376
19749SOL    HW261116   0.090   8.561   8.013  0.4674  0.1764 -1.8858
19750SOL     OW61117   0.066   2.876   6.040  0.1825  0.0766  0.4593
19750SOL    HW161118   0.135   2.935   6.011 -1.0455  1.0053 -0.6936
19750SOL    HW261119   0.110   2.814   6.098  2.1236  0.1595 -0.8352
19751SOL     OW61120   0.435   5.007   7.326  0.2977 -0.3525 -0.2056
19751SOL    HW161121   0.418   5.101   7.329  0.4251 -0.3379  0.1273
19751SOL    HW261122   0.443   4.987   7.233  0.3150 -0.0272 -0.2767
19752SOL     OW61123   5.084   2.538   3.471  0.2254 -0.1448  0.3682
19752SOL    HW161124   5.065   2.459   3.419 -1.4748 -0.1636  0.9554
19752SOL    HW261125   5.003   2.589   3.467  0.8325  0.9123  1.1612
19753SOL     OW61126   2.014   6.292   6.116  0.0210  0.4419  0.0063
19753SOL    HW161127   2.037   6.355   6.184 -1.4689  0.7611  0.2536
19753SOL    HW261128   1.922   6.311   6.095  0.2355 -0.0887 -1.6180
19754SOL     OW61129   0.934   8.207   0.808  0.4218  0.0640  0.3597
19754SOL    HW161130   1.009   8.170   0.856  1.2254  1.2203  0.0457
19754SOL    HW261131   0.859   8.158   0.840  1.3417 -1.3498  0.4708
19755SOL     OW61132   2.355   3.351   1.764 -0.3197 -0.0570 -0.1015
19755SOL    HW161133   2.326   3.439   1.787 -2.3203 -0.3303 -1.3777
19755SOL    HW261134   2.383   3.358   1.673  0.7412 -0.4967  0.1730
19756SOL     OW61135   0.093   7.973   3.078  0.5428  0.1206 -0.1800
19756SOL    HW161136   0.025   7.998   3.016  0.3679 -0.5146 -0.2527
19756SOL    HW261137   0.167   7.945   3.023  0.6843  0.3391 -0.1015
19757SOL     OW61138   3.005   8.323   7.086  0.1364 -0.3477 -0.0134
19757SOL    HW161139   3.081   8.355   7.038  0.1297  0.1772  0.3242
19757SOL    HW261140   2.973   8.250   7.033  0.5419 -0.2196 -0.4437
19758SOL     OW61141   5.942   7.777   5.961  0.9230 -0.9546  0.3087
19758SOL    HW161142   5.892   7.745   5.886  3.0731 -0.3905 -1.4547
19758SOL    HW261143   6.028   7.736   5.953  2.1908  1.4390  0.7213
19759SOL     OW61144   0.462   0.967   1.707 -0.0602  0.0461  0.4302
19759SOL    HW161145   0.453   0.933   1.796 -2.8801  0.9424  0.6059
19759SOL    HW261146   0.434   1.058   1.713  2.0307  0.8554 -0.9995
19760SOL     OW61147   7.064   6.086   4.349  0.0086 -0.1221 -0.1175
19760SOL    HW161148   7.147   6.038   4.350  0.0916  0.0095 -0.5579
19760SOL    HW261149   7.018   6.053   4.272 -0.3618 -0.2131  0.1426
19761SOL     OW61150   1.197   6.070   8.868 -0.7109  0.2478  0.6029
19761SOL    HW161151   1.260   6.012   8.827 -0.2665  0.9817  0.2249
19761SOL    HW261152   1.135   6.091   8.799 -0.0971  1.2928  0.3416
19762SOL     OW61153   8.764   2.690   0.698  0.4646 -0.0437 -0.3653
19762SOL    HW161154   8.768   2.772   0.649 -0.3431  0.4381  0.3405
19762SOL    HW261155   8.796   2.712   0.785  1.8531 -0.8816 -0.6256
19763SOL     OW61156   7.628   4.772   3.891  0.0641 -0.6202 -0.1514
19763SOL    HW161157   7.616   4.864   3.870  0.2557 -0.2881  1.1105
19763SOL    HW261158   7.723   4.760   3.896  0.0278 -0.6089  0.7660
19764SOL     OW61159   8.569   2.846   0.158 -0.1792 -0.6043  0.0489
19764SOL    HW161160   8.614   2.911   0.105 -0.1056 -1.0411 -0.4343
19764SOL    HW261161   8.633   2.775   0.168 -0.4966 -0.8992 -0.0102
19765SOL     OW61162   0.437   2.409   2.737 -1.1658 -0.1149  0.2131
19765SOL    HW161163   0.436   2.318   2.708 -0.6654 -0.0643  0.0394
19765SOL    HW261164   0.470   2.405   2.827 -2.2558 -0.2209  0.6249
19766SOL     OW61165   4.817   6.696   6.019  0.1100 -0.2740 -0.0186
19766SOL    HW161166   4.858   6.777   6.048  1.0874 -1.5374  2.3568
19766SOL    HW261167   4.885   6.651   5.969  0.2265 -0.4892  0.3307
19767SOL     OW61168   7.145   6.085   0.128 -0.1040 -0.3952  0.0132
19767SOL    HW161169   7.213   6.048   0.183  1.7841 -0.3984 -2.1769
19767SOL    HW261170   7.172   6.175   0.113  0.3865 -0.8288 -2.1644
19768SOL     OW61171   8.152   0.391   1.376 -0.3380 -0.1503 -0.0848
19768SOL    HW161172   8.098   0.348   1.442  1.5780  0.0877  1.7193
19768SOL    HW261173   8.131   0.345   1.294 -2.3877 -0.7780  0.7336
19769SOL     OW61174   1.936   1.274   8.589 -0.0917  0.4117  0.4036
19769SOL    HW161175   1.985   1.265   8.671 -0.4693  0.8618  0.6881
19769SOL    HW261176   1.869   1.340   8.609 -1.0872 -0.5049  0.1610
19770SOL     OW61177   6.063   4.622   6.004 -0.0561  0.5101  0.0890
19770SOL    HW161178   6.113   4.702   5.989  1.1071 -0.0232  0.9327
19770SOL    HW261179   6.052   4.584   5.917  1.0050  0.6713 -0.1350
19771SOL     OW61180   6.621   7.259   7.045 -0.4798  0.8030  0.4132
19771SOL    HW161181   6.673   7.336   7.067  0.0403  0.2440  1.2137
19771SOL    HW261182   6.651   7.192   7.107 -0.0224 -0.4062 -1.0615
19772SOL     OW61183   1.624   4.351   7.255  0.4368  0.4965 -0.3428
19772SOL    HW161184   1.690   4.413   7.288  0.5515  1.2582 -1.8972
19772SOL    HW261185   1.675   4.280   7.216  0.3256  0.4219 -0.3513
19773SOL     OW61186   5.127   4.622   3.837  0.0357  0.3118 -0.0381
19773SOL    HW161187   5.180   4.698   3.861  2.6604 -1.3772 -0.1113
19773SOL    HW261188   5.174   4.583   3.763 -1.0599 -1.5659  0.2046
19774SOL     OW61189   7.044   1.814   5.170 -0.4234  0.2325 -0.2775
19774SOL    HW161190   6.990   1.767   5.234 -0.4731  1.3678  0.5549
19774SOL    HW261191   7.089   1.880   5.222  2.0461 -0.8614 -0.8683
19775SOL     OW61192   7.084   4.486   8.337 -0.0717  0.1130 -0.4263
19775SOL    HW161193   7.179   4.483   8.328  0.2313  0.5128  2.0409
19775SOL    HW261194   7.062   4.408   8.387 -0.8943  0.6561  0.0893
19776SOL     OW61195   4.868   5.203   4.891  0.4889 -0.2149 -0.1137
19776SOL    HW161196   4.795   5.142   4.901  0.7383 -1.0085 -2.4493
19776SOL    HW261197   4.829   5.280   4.850  1.0023 -0.9160 -2.0336
19777SOL     OW61198   2.737   8.894   6.137 -0.6308 -0.5416  0.0250
19777SOL    HW161199   2.815   8.945   6.160 -0.4262 -0.3395 -1.0519
19777SOL    HW261200   2.667   8.958   6.133 -1.4684 -1.0491  3.4882
19778SOL     OW61201   8.470   7.237   0.472  0.5801 -0.3495  0.4202
19778SOL    HW161202   8.546   7.185   0.495  0.0584 -1.2439  0.1940
19778SOL    HW261203   8.483   7.321   0.516  1.4313 -0.6758  0.8069
19779SOL     OW61204   1.695   5.130   1.487 -0.4767  0.4800 -0.2148
19779SOL    HW161205   1.702   5.157   1.396 -0.0490  0.6089 -0.1452
19779SOL    HW261206   1.784   5.105   1.512 -0.6260  0.2674  0.1116
19780SOL     OW61207   2.342   6.608   4.307 -0.3002 -0.6669 -0.1817
19780SOL    HW161208   2.252   6.582   4.285 -0.8269  0.6645  0.3070
19780SOL    HW261209   2.345   6.701   4.286  1.5035 -1.0429 -1.8215
19781SOL     OW61210   5.971   6.399   8.742  0.3573  0.2112  0.7113
19781SOL    HW161211   5.907   6.331   8.719  1.0129 -0.2670  0.2581
19781SOL    HW261212   5.921   6.462   8.794 -0.9274  0.7473 -1.0365
19782SOL     OW61213   2.719   0.241   2.675  0.0027 -0.5081  0.4022
19782SOL    HW161214   2.761   0.155   2.686  2.0050  0.3161 -0.3425
19782SOL    HW261215   2.656   0.228   2.605  0.0375 -1.4626  0.5311
19783SOL     OW61216   0.080   3.893   7.890 -0.0137 -0.3906  0.3365
19783SOL    HW161217   0.135   3.893   7.969 -0.0006 -1.2870  0.3300
19783SOL    HW261218   0.043   3.982   7.888 -1.1334 -0.7442  2.1389
19784SOL     OW61219   0.290   8.106   0.744  0.5171  0.4183  0.0477
19784SOL    HW161220   0.315   8.056   0.822  1.6102 -0.8910 -1.1113
19784SOL    HW261221   0.350   8.077   0.676  0.4282  2.4837 -0.9854
19785SOL     OW61222   6.101   5.304   5.709  0.3650 -0.1280  0.3732
19785SOL    HW161223   6.158   5.380   5.718  0.7955 -0.2917 -0.7718
19785SOL    HW261224   6.017   5.340   5.682  1.2996 -0.1487 -3.0808
19786SOL     OW61225   0.678   6.410   1.486 -0.0544 -0.0726 -0.0059
19786SOL    HW161226   0.673   6.470   1.561  0.1580  1.0891 -0.8875
19786SOL    HW261227   0.643   6.328   1.519  2.6895 -0.4778  2.1910
19787SOL     OW61228   4.671   8.528   2.017 -0.2431  0.3820  0.2587
19787SOL    HW161229   4.765   8.532   2.038  0.2688 -0.3592 -1.6977
19787SOL    HW261230   4.655   8.606   1.963 -0.8846  0.7634  0.9793
19788SOL     OW61231   2.306   4.692   7.707 -0.1857 -0.2080  0.6404
19788SOL    HW161232   2.270   4.672   7.620 -2.1806 -1.4112  1.6868
19788SOL    HW261233   2.372   4.624   7.722  1.0428  0.7099 -0.3817
19789SOL     OW61234   6.819   7.551   6.119 -0.3064 -0.2350 -0.2420
19789SOL    HW161235   6.851   7.460   6.118 -1.1603 -0.6149 -3.4734
19789SOL    HW261236   6.760   7.555   6.194  1.9142 -1.4632  1.7099
19790SOL     OW61237   4.297   5.158   0.586 -0.5395 -0.0882  0.6503
19790SOL    HW161238   4.205   5.134   0.580 -0.1712 -1.2756 -0.9878
19790SOL    HW261239   4.311   5.176   0.679 -2.5605  0.8109  0.8319
19791SOL     OW61240   3.890   2.014   7.839  0.5832  0.1590  0.3760
19791SOL    HW161241   3.914   1.942   7.898 -1.1199 -0.2719  0.6028
19791SOL    HW261242   3.884   2.090   7.896  0.5973  0.0989  0.4581
19792SOL     OW61243   6.911   2.357   2.371  0.0254 -0.5242 -0.3195
19792SOL    HW161244   6.994   2.360   2.324  1.1907 -0.2324  1.6468
19792SOL    HW261245   6.873   2.273   2.348  0.4078 -0.2786 -1.9654
19793SOL     OW61246   5.224   5.761   1.224 -0.0072  0.1677 -0.3039
19793SOL    HW161247   5.152   5.702   1.247 -0.4522  0.7198 -0.2820
19793SOL    HW261248   5.301   5.704   1.225 -0.1629 -0.0859  1.4032
19794SOL     OW61249   8.700   3.130   5.165 -0.4234 -0.2513  0.2802
19794SOL    HW161250   8.608   3.151   5.182  0.0227  2.1906  0.0630
19794SOL    HW261251   8.716   3.050   5.215 -2.8961 -1.3283 -0.4895
19795SOL     OW61252   7.006   8.665   5.398  0.5187  0.3234 -0.9137
19795SOL    HW161253   6.940   8.599   5.376  1.8074 -0.5813 -2.2945
19795SOL    HW261254   7.047   8.632   5.478 -0.4332  0.6944 -0.2646
19796SOL     OW61255   5.942   0.568   0.385  0.2211 -0.1445 -0.2621
19796SOL    HW161256   6.019   0.566   0.443  0.0305  4.0440  0.4827
19796SOL    HW261257   5.868   0.552   0.443  0.2446  1.0236  0.1221
19797SOL     OW61258   2.433   5.697   3.722 -0.0760  0.4057  0.0244
19797SOL    HW161259   2.468   5.785   3.716 -0.6354  0.5271 -4.1480
19797SOL    HW261260   2.504   5.640   3.693 -0.6446 -0.1995 -0.2159
19798SOL     OW61261   8.027   2.740   1.271  0.1140 -0.3484  0.7268
19798SOL    HW161262   8.040   2.727   1.177  0.9446  0.4584  0.7241
19798SOL    HW261263   7.978   2.662   1.299  0.9329 -1.2056 -0.1414
19799SOL     OW61264   8.944   2.062   8.401 -0.5477  0.9896  0.2436
19799SOL    HW161265   8.889   1.995   8.442 -0.2624  1.4362  1.3921
19799SOL    HW261266   8.907   2.074   8.314  0.1110 -1.5166 -0.4623
19800SOL     OW61267   6.318   7.003   8.146  0.4506 -0.5568 -0.1337
19800SOL    HW161268   6.406   6.979   8.177 -0.1923 -0.5124  1.8990
19800SOL    HW261269   6.277   7.044   8.222 -1.2394 -0.3108 -1.1404
19801SOL     OW61270   2.013   2.057   7.345 -0.4126 -0.1256 -0.1569
19801SOL    HW161271   1.940   2.106   7.306  0.2618  1.1342  0.1159
19801SOL    HW261272   2.019   1.978   7.291 -1.3627  0.1956 -0.7820
19802SOL     OW61273   0.201   5.943   3.497  0.7314 -0.0385 -0.3030
19802SOL    HW161274   0.158   6.024   3.523 -0.0788 -0.6122  0.1627
19802SOL    HW261275   0.142   5.874   3.526  0.3925 -0.7629 -2.5460
19803SOL     OW61276   5.589   4.981   0.339  0.6001  0.0585  0.2890
19803SOL    HW161277   5.603   5.069   0.374  0.2190 -0.0167  0.6346
19803SOL    HW261278   5.667   4.932   0.365  0.9084  0.3483 -0.0866
19804SOL     OW61279   8.333   2.241   4.621 -0.5264  0.0967  0.0248
19804SOL    HW161280   8.380   2.273   4.699 -0.4211  0.7974 -0.3223
19804SOL    HW261281   8.269   2.179   4.656  0.0020 -0.1431  0.5987
19805SOL     OW61282   8.921   7.510   7.637  0.1450 -0.0863 -0.2164
19805SOL    HW161283   8.834   7.499   7.598  0.0651 -0.4723  0.0685
19805SOL    HW261284   8.977   7.450   7.589 -0.0133 -0.7762  0.4429
19806SOL     OW61285   5.711   6.875   4.531  0.1767  0.4449  0.3023
19806SOL    HW161286   5.651   6.926   4.477  0.0839  1.9389  1.7128
19806SOL    HW261287   5.782   6.849   4.472 -1.6124 -1.0292 -1.3129
19807SOL     OW61288   2.137   6.856   0.586  0.3034  0.1801  0.6785
19807SOL    HW161289   2.163   6.845   0.494 -1.1551  0.2926  0.2204
19807SOL    HW261290   2.218   6.845   0.636  0.7293 -2.3123 -0.4438
19808SOL     OW61291   2.592   1.989   3.957  0.5597  0.0614  0.6643
19808SOL    HW161292   2.643   1.911   3.934  0.5645  0.1883  0.2372
19808SOL    HW261293   2.506   1.954   3.981 -0.2270  0.0470 -1.8300
19809SOL     OW61294   0.121   5.250   3.710 -0.1148 -0.0138 -0.3413
19809SOL    HW161295   0.103   5.157   3.696 -0.5753  0.1181 -0.6304
19809SOL    HW261296   0.059   5.296   3.654 -1.0894  0.4954  1.0758
19810SOL     OW61297   1.911   1.059   6.638 -0.8461 -0.8913  0.5190
19810SOL    HW161298   1.831   1.097   6.673 -0.4885 -1.3279  1.8511
19810SOL    HW261299   1.934   1.116   6.565 -1.4330  0.2380  1.1904
19811SOL     OW61300   7.226   6.680   7.693 -0.3210  0.6844 -0.8134
19811SOL    HW161301   7.233   6.741   7.619  0.0777  0.1196 -1.2479
19811SOL    HW261302   7.249   6.595   7.656  1.1506  0.5901  0.2380
19812SOL     OW61303   7.102   8.984   1.048  0.3110  0.0835  0.1761
19812SOL    HW161304   7.111   8.936   1.130  0.2827 -0.0413  0.1058
19812SOL    HW261305   7.191   9.009   1.025  0.3142  0.1560  0.2667
19813SOL     OW61306   1.246   8.849   7.881 -0.4266  0.9026  0.1557
19813SOL    HW161307   1.339   8.870   7.880 -0.4529  1.3008  2.0776
19813SOL    HW261308   1.242   8.755   7.864  0.4486  0.6135  1.4154
19814SOL     OW61309   1.074   1.292   8.374 -0.5220 -0.0782  0.0441
19814SOL    HW161310   1.064   1.388   8.375  0.7760  0.1159 -1.4919
19814SOL    HW261311   1.053   1.267   8.284 -2.6787 -1.5210  0.8661
19815SOL     OW61312   5.912   5.725   0.970 -0.0534  0.1109 -0.4145
19815SOL    HW161313   6.001   5.690   0.969  0.7979  2.0253  0.9356
19815SOL    HW261314   5.898   5.758   0.881  0.3664 -0.6946 -0.7851
19816SOL     OW61315   1.082   7.251   7.152  0.3503 -0.0686 -0.4962
19816SOL    HW161316   1.007   7.225   7.204  0.7380 -1.4638 -0.6089
19816SOL    HW261317   1.158   7.216   7.199  0.6708 -2.0226 -2.3308
19817SOL     OW61318   4.271   0.587   1.703 -0.4336  0.0389  0.0711
19817SOL    HW161319   4.289   0.603   1.610 -2.2671  0.1449 -0.3224
19817SOL    HW261320   4.324   0.652   1.749  0.7769 -0.2439 -0.8768
19818SOL     OW61321   4.667   3.038   5.875  0.3591 -0.0283  0.0776
19818SOL    HW161322   4.722   3.104   5.831  0.4619 -0.8748 -1.1096
19818SOL    HW261323   4.723   2.960   5.880 -0.1345 -0.3612  0.4563
19819SOL     OW61324   6.562   5.793   3.942  0.0567 -0.4068  0.5256
19819SOL    HW161325   6.589   5.795   4.034  0.6055 -3.6727  0.5454
19819SOL    HW261326   6.628   5.739   3.898 -0.5127  0.5897 -1.7012
19820SOL     OW61327   1.764   6.298   6.029  0.1473  0.1681  0.6418
19820SOL    HW161328   1.728   6.379   5.990 -2.2257 -1.0505  0.0904
19820SOL    HW261329   1.705   6.279   6.102 -0.5408 -2.0425 -0.4052
19821SOL     OW61330   3.201   0.057   4.815  0.4384  0.1096  0.0502
19821SOL    HW161331   3.141   0.122   4.778  0.1685 -1.0071 -1.5326
19821SOL    HW261332   3.170   0.046   4.905 -1.3971 -0.0250 -0.5558
19822SOL     OW61333   1.672   3.393   2.662  0.2654 -0.1632  0.2753
19822SOL    HW161334   1.602   3.418   2.601  0.8513 -0.7164 -0.6676
19822SOL    HW261335   1.686   3.299   2.644 -0.1457 -0.5590  1.8952
19823SOL     OW61336   7.595   1.962   5.637  0.2718  1.0095  0.2802
19823SOL    HW161337   7.570   1.877   5.672  0.2553  1.1012  0.4962
19823SOL    HW261338   7.613   2.015   5.715  1.9886  0.6938  0.1468
19824SOL     OW61339   1.657   1.763   2.409 -0.7557  0.2423 -0.2939
19824SOL    HW161340   1.729   1.713   2.447 -0.2438 -0.0278 -1.5794
19824SOL    HW261341   1.693   1.850   2.393 -1.4527  0.8641  1.3203
19825SOL     OW61342   5.392   0.500   2.483  0.3792 -0.3257  0.4605
19825SOL    HW161343   5.347   0.580   2.455  1.5304  0.3914  0.5840
19825SOL    HW261344   5.453   0.481   2.411  0.7636 -0.5659  0.8477
19826SOL     OW61345   6.551   5.269   6.846 -0.5283 -0.1912 -0.3169
19826SOL    HW161346   6.575   5.263   6.753  0.4253 -2.0219  0.0018
19826SOL    HW261347   6.457   5.283   6.845 -0.3975  0.8414 -1.5586
19827SOL     OW61348   2.135   1.615   7.020 -0.4622 -0.2165 -0.2597
19827SOL    HW161349   2.199   1.544   7.020  0.4136  0.5418 -1.8179
19827SOL    HW261350   2.132   1.646   6.930 -2.8634 -0.0617 -0.2118
19828SOL     OW61351   6.683   3.765   4.613  0.1038 -0.0938  0.1095
19828SOL    HW161352   6.661   3.735   4.702 -1.0933  0.4066 -0.0098
19828SOL    HW261353   6.643   3.851   4.606  0.8157  0.1858 -0.6829
19829SOL     OW61354   0.923   7.200   7.712 -0.1555  0.0254 -0.6422
19829SOL    HW161355   0.979   7.148   7.655 -1.3574 -0.0227 -1.8165
19829SOL    HW261356   0.841   7.151   7.717 -0.5466  0.7164  0.0265
19830SOL     OW61357   6.460   4.269   5.163 -0.1501  0.5676 -0.1648
19830SOL    HW161358   6.412   4.188   5.146 -0.8415  1.1057 -0.8125
19830SOL    HW261359   6.393   4.332   5.189  0.5484  0.5342  1.9141
19831SOL     OW61360   2.534   6.121   6.702  0.5787  0.2307 -0.2290
19831SOL    HW161361   2.468   6.055   6.719  0.1166  0.6742 -0.2649
19831SOL    HW261362   2.616   6.073   6.696  0.2720 -0.3122 -0.0814
19832SOL     OW61363   5.222   1.240   1.255  0.2550  0.3572 -0.4246
19832SOL    HW161364   5.212   1.320   1.306  1.4022  0.3360 -0.1569
19832SOL    HW261365   5.279   1.265   1.182  1.7340 -0.5125  0.3881
19833SOL     OW61366   7.574   4.181   5.699 -0.3066  0.2113 -0.2312
19833SOL    HW161367   7.517   4.209   5.628 -1.6754 -0.4520  0.5831
19833SOL    HW261368   7.518   4.178   5.776  0.8182 -0.5127  0.5964
19834SOL     OW61369   1.177   8.802   7.364  0.0145 -0.6678  0.1183
19834SOL    HW161370   1.228   8.866   7.414  1.0473 -1.0937 -0.3572
19834SOL    HW261371   1.086   8.829   7.376  0.4548  1.3368 -0.6761
19835SOL     OW61372   5.327   8.186   4.053  0.1891  0.3939 -0.1422
19835SOL    HW161373   5.419   8.209   4.043 -0.2550  2.7175  0.6150
19835SOL    HW261374   5.285   8.266   4.083 -2.5285  0.1149 -2.7526
19836SOL     OW61375   1.728   6.690   4.179 -0.1944 -0.2379  0.4411
19836SOL    HW161376   1.676   6.707   4.258 -0.3979 -0.9501  0.4701
19836SOL    HW261377   1.788   6.621   4.205  0.4777  0.2818  0.2776
19837SOL     OW61378   8.663   7.480   5.871 -0.0699  0.5521 -0.0321
19837SOL    HW161379   8.611   7.502   5.794 -1.1286 -0.0804  0.4709
19837SOL    HW261380   8.695   7.391   5.854  1.1167  1.0343 -0.4580
19838SOL     OW61381   4.784   1.422   3.691  0.2025 -0.1908  0.2070
19838SOL    HW161382   4.842   1.372   3.635 -1.5429 -0.2946 -1.6272
19838SOL    HW261383   4.829   1.506   3.704  1.0776 -0.5310 -0.5506
19839SOL     OW61384   3.626   0.638   2.255 -0.2483 -0.0572  0.3101
19839SOL    HW161385   3.654   0.617   2.344 -1.4593 -0.9662  0.5061
19839SOL    HW261386   3.602   0.730   2.259  0.5263  0.1313  0.7056
19840SOL     OW61387   2.213   0.056   7.422 -0.0841 -0.2595  0.2163
19840SOL    HW161388   2.286  -0.006   7.418  0.6475  0.4725  1.3805
19840SOL    HW261389   2.239   0.128   7.365  0.1959  0.0725  0.7511
19841SOL     OW61390   2.237   8.492   4.006 -0.1250 -0.0967 -0.9001
19841SOL    HW161391   2.211   8.401   3.992  1.9682 -0.9065 -0.0057
19841SOL    HW261392   2.248   8.528   3.918  2.2809 -1.7950 -1.4084
19842SOL     OW61393   5.623   2.787   8.614  0.1215 -0.0439 -0.2778
19842SOL    HW161394   5.648   2.863   8.667 -1.8244 -0.2904  1.0741
19842SOL    HW261395   5.529   2.800   8.597  0.0116 -1.5990 -0.9723
19843SOL     OW61396   3.144   4.748   7.431 -0.1347  0.3740  0.3705
19843SOL    HW161397   3.205   4.693   7.480  0.7050 -0.4474 -1.5140
19843SOL    HW261398   3.171   4.838   7.452  0.6385  0.0346  0.8689
19844SOL     OW61399   4.486   0.140   8.861 -0.1180 -0.7336 -0.0185
19844SOL    HW161400   4.504   0.057   8.817 -1.0968 -0.1490 -1.5908
19844SOL    HW261401   4.562   0.153   8.919  1.6296 -1.2060 -2.0533
19845SOL     OW61402   8.253   8.858   6.886  0.1259 -0.4239  0.2113
19845SOL    HW161403   8.243   8.763   6.876  0.7307 -0.4143 -0.5591
19845SOL    HW261404   8.280   8.869   6.978  0.2027 -1.0125  0.2639
19846SOL     OW61405   6.796   1.202   4.437 -0.2865  0.2508 -0.2307
19846SOL    HW161406   6.790   1.271   4.502 -1.2900  0.5709 -0.6419
19846SOL    HW261407   6.884   1.167   4.447  0.5739  2.1828 -0.6123
19847SOL     OW61408   2.032   1.816   5.972  0.2077  0.7591  0.4838
19847SOL    HW161409   2.090   1.774   5.908  1.0296  2.4381  0.0686
19847SOL    HW261410   2.088   1.833   6.047  0.1278  1.8667  0.3098
19848SOL     OW61411   1.907   2.737   5.032 -0.0148  0.2413 -0.0317
19848SOL    HW161412   1.886   2.648   5.060  0.5026  0.1612  0.1027
19848SOL    HW261413   2.002   2.742   5.038 -0.0751  0.9311  0.3348
19849SOL     OW61414   0.413   2.669   1.621 -0.2467  0.9210  0.4637
19849SOL    HW161415   0.325   2.632   1.611 -0.0347 -0.0194  1.8223
19849SOL    HW261416   0.471   2.598   1.593  0.1429  2.5899 -3.7188
19850SOL     OW61417   7.247   1.458   2.704 -0.9028  0.2440  0.3358
19850SOL    HW161418   7.314   1.496   2.647 -1.7294  1.6313  0.2450
19850SOL    HW261419   7.278   1.369   2.722  1.8312  1.3372  1.6342
19851SOL     OW61420   4.289   4.342   4.385  0.0715  0.1558  0.1184
19851SOL    HW161421   4.292   4.404   4.312  1.7547  0.1055  0.1209
19851SOL    HW261422   4.233   4.271   4.354  1.0031 -0.0148 -1.2568
19852SOL     OW61423   3.689   4.292   0.331 -0.3149  0.3371  0.0171
19852SOL    HW161424   3.599   4.309   0.361 -1.1291  0.1175 -2.0972
19852SOL    HW261425   3.688   4.316   0.238  2.0505  1.0527  0.1183
19853SOL     OW61426   2.042   3.134   0.576  0.4275  0.6512 -0.0375
19853SOL    HW161427   2.129   3.119   0.541  0.3094  2.2152 -1.0785
19853SOL    HW261428   2.032   3.229   0.578 -1.3933  0.5097 -0.3034
19854SOL     OW61429   1.803   2.308   1.168  0.0167  0.2687 -0.2707
19854SOL    HW161430   1.897   2.308   1.186 -0.4758  0.3120  2.9775
19854SOL    HW261431   1.777   2.400   1.177 -0.6535 -0.0432  1.3907
19855SOL     OW61432   1.845   6.160   4.524  0.2571 -0.5815  0.4133
19855SOL    HW161433   1.872   6.070   4.505 -1.2468 -0.9468 -0.1430
19855SOL    HW261434   1.774   6.151   4.586 -1.2269  0.0726 -1.1185
19856SOL     OW61435   0.314   1.757   4.694  0.4297  0.4274  0.3643
19856SOL    HW161436   0.270   1.769   4.778  0.2977  0.5310  0.2817
19856SOL    HW261437   0.296   1.666   4.670 -0.7001  0.7886 -0.2108
19857SOL     OW61438   8.485   7.756   0.221  0.3978  0.0109 -0.4684
19857SOL    HW161439   8.408   7.802   0.253 -0.7213 -1.2973 -1.1904
19857SOL    HW261440   8.471   7.749   0.126  0.1665 -2.3914 -0.3076
19858SOL     OW61441   5.821   7.701   1.037 -0.1991  0.3055 -0.0178
19858SOL    HW161442   5.825   7.791   1.006  2.0858 -0.5908 -2.7480
19858SOL    HW261443   5.731   7.673   1.019 -0.1029  1.1510 -2.0146
19859SOL     OW61444   8.658   8.628   4.732  0.2929 -0.0877 -0.6566
19859SOL    HW161445   8.743   8.620   4.775  2.1288 -0.2582 -3.9936
19859SOL    HW261446   8.648   8.721   4.713  0.0614 -0.1591 -0.9027
19860SOL     OW61447   7.209   3.018   5.598  0.3589 -0.2707  0.0692
19860SOL    HW161448   7.143   2.949   5.590 -0.2384  0.3261 -0.2008
19860SOL    HW261449   7.292   2.972   5.592 -0.0371 -0.8935 -0.7913
19861SOL     OW61450   4.108   0.835   0.431 -0.1839  0.5093  0.3731
19861SOL    HW161451   4.186   0.784   0.407 -1.5192 -0.4240 -2.3597
19861SOL    HW261452   4.081   0.798   0.515  0.3236 -1.6567 -0.3430
19862SOL     OW61453   7.901   8.472   5.041 -0.1269  0.0524 -0.2065
19862SOL    HW161454   7.956   8.549   5.057 -0.6494  0.3604  0.0955
19862SOL    HW261455   7.889   8.471   4.946  1.5302 -0.7997 -0.4456
19863SOL     OW61456   8.294   5.349   7.688 -0.3773  0.2977  0.2722
19863SOL    HW161457   8.277   5.350   7.594 -1.8545  1.6110  0.5078
19863SOL    HW261458   8.366   5.410   7.701  0.0931 -0.1851 -0.0356
19864SOL     OW61459   4.850   6.792   3.869  0.1071  0.4173 -0.1266
19864SOL    HW161460   4.807   6.787   3.784  0.4886 -0.1300 -0.2893
19864SOL    HW261461   4.921   6.855   3.856  1.9818 -1.7261 -1.0472
19865SOL     OW61462   6.649   6.611   6.139  0.1910  0.1864  0.3333
19865SOL    HW161463   6.615   6.581   6.224 -0.5569 -1.4698 -0.5002
19865SOL    HW261464   6.739   6.581   6.137  0.0117 -0.3509  0.2778
19866SOL     OW61465   0.279   5.341   1.737  0.3444 -0.1038 -0.0077
19866SOL    HW161466   0.359   5.392   1.747  0.9301 -0.9371 -0.4432
19866SOL    HW261467   0.294   5.285   1.661 -0.2695 -0.9843  0.4983
19867SOL     OW61468   5.681   8.565   6.684  0.4284  0.4601 -0.6872
19867SOL    HW161469   5.770   8.561   6.719  0.5904  1.1063 -1.0063
19867SOL    HW261470   5.677   8.648   6.637 -0.6481  0.9107  0.1452
19868SOL     OW61471   4.051   8.743   6.679  0.1687  0.2664 -0.1166
19868SOL    HW161472   4.081   8.659   6.713 -2.2164 -1.4559 -1.9329
19868SOL    HW261473   3.999   8.781   6.751 -0.0001 -0.5452  0.1978
19869SOL     OW61474   7.310   6.094   3.038 -0.6367  0.0628 -0.1773
19869SOL    HW161475   7.335   6.134   2.955  2.6006 -3.5379 -1.2553
19869SOL    HW261476   7.389   6.099   3.092 -1.3203 -1.4213  1.0313
19870SOL     OW61477   7.948   5.441   5.585  0.2588 -0.2324 -0.0973
19870SOL    HW161478   7.954   5.346   5.595  1.0305 -0.1953 -0.1429
19870SOL    HW261479   7.986   5.476   5.665 -1.7856  0.0608  0.8262
19871SOL     OW61480   7.078   7.880   3.654 -0.0349  0.0216  0.6691
19871SOL    HW161481   7.160   7.927   3.670 -0.4951  0.9380  0.3851
19871SOL    HW261482   7.099   7.821   3.582  0.4638  0.0148  0.8151
19872SOL     OW61483   4.785   3.542   0.993 -0.0897 -0.1978  0.4791
19872SOL    HW161484   4.702   3.532   0.946 -0.8299 -1.7838  2.0029
19872SOL    HW261485   4.852   3.533   0.925 -1.1302 -0.1258 -0.5959
19873SOL     OW61486   7.926   2.474   2.088  0.0389  0.1006  0.3713
19873SOL    HW161487   7.933   2.381   2.067 -3.7425 -0.1296 -0.4748
19873SOL    HW261488   7.983   2.486   2.164  0.3714 -2.9766  0.7177
19874SOL     OW61489   2.142   6.780   6.666  0.1646 -0.0983  0.4371
19874SOL    HW161490   2.220   6.785   6.611  0.4505 -2.4640  0.4945
19874SOL    HW261491   2.169   6.820   6.749  1.8197 -1.9427  0.8944
19875SOL     OW61492   3.133   5.839   2.272 -0.1771  0.0918  0.1376
19875SOL    HW161493   3.189   5.905   2.231  2.3086 -0.8630  1.7426
19875SOL    HW261494   3.183   5.757   2.264 -1.6234 -0.9458  1.1578
19876SOL     OW61495   2.812   5.926   8.699  0.2269 -0.4383 -0.4314
19876SOL    HW161496   2.758   5.964   8.630  1.0279 -0.3742 -1.0456
19876SOL    HW261497   2.783   5.835   8.705 -0.0133 -0.3794 -0.6888
19877SOL     OW61498   1.086   1.841   4.187  0.3679  0.6010  0.6223
19877SOL    HW161499   1.171   1.811   4.219  0.3806  0.0922  0.1265
19877SOL    HW261500   1.078   1.930   4.220  1.1683  0.7126  0.5330
19878SOL     OW61501   7.842   5.912   8.427 -0.3464  0.0882  0.4074
19878SOL    HW161502   7.838   5.827   8.472  1.1375 -0.9619 -1.3029
19878SOL    HW261503   7.858   5.890   8.335  1.3696  2.2385  0.1049
19879SOL     OW61504   4.412   7.890   3.619  0.0178  0.5162 -0.1953
19879SOL    HW161505   4.363   7.971   3.603  0.0490  0.7128  0.6163
19879SOL    HW261506   4.365   7.823   3.570 -0.5563  0.8634 -0.1370
19880SOL     OW61507   4.568   8.649   5.094 -0.5788  0.4081 -0.0262
19880SOL    HW161508   4.624   8.725   5.076 -1.0943  0.4655 -1.5343
19880SOL    HW261509   4.582   8.590   5.020  0.5261 -1.4484  1.5639
19881SOL     OW61510   2.395   0.761   1.164 -0.1896  0.8405 -0.3382
19881SOL    HW161511   2.400   0.832   1.101 -0.3958  0.0104 -1.3251
19881SOL    HW261512   2.424   0.684   1.115 -1.7178 -0.0931  0.1441
19882SOL     OW61513   3.306   1.512   1.776 -0.4989 -0.0196 -0.4838
19882SOL    HW161514   3.315   1.502   1.871  1.5966  0.6249 -0.5618
19882SOL    HW261515   3.329   1.426   1.741 -2.1657 -0.5270 -0.4097
19883SOL     OW61516   1.981   7.826   0.873  0.0241  0.3474  0.6537
19883SOL    HW161517   1.919   7.805   0.943 -0.0267  1.3978  0.9390
19883SOL    HW261518   1.934   7.886   0.816  0.4988  0.4995  0.4193
19884SOL     OW61519   8.571   7.762   0.949 -0.6667  0.0330  0.0621
19884SOL    HW161520   8.665   7.776   0.961 -1.0258  3.6296 -0.0623
19884SOL    HW261521   8.563   7.721   0.863  0.7611  0.4477 -0.2956
19885SOL     OW61522   2.189   4.910   1.402  0.1440 -0.1948 -0.1309
19885SOL    HW161523   2.117   4.927   1.462  0.6011  0.7731  0.1626
19885SOL    HW261524   2.236   4.836   1.441 -0.6774 -0.8379 -0.3318
19886SOL     OW61525   5.462   0.749   5.549 -0.4223  0.0068 -0.1912
19886SOL    HW161526   5.379   0.723   5.510  0.2684 -1.8181 -0.5400
19886SOL    HW261527   5.469   0.697   5.628 -0.0260  0.8399  0.3384
19887SOL     OW61528   8.999   3.101   0.296 -0.1637 -0.1246  0.1312
19887SOL    HW161529   8.997   3.193   0.270 -0.0494 -0.3740 -0.7959
19887SOL    HW261530   8.947   3.056   0.230  1.6372 -1.0198 -0.7282
19888SOL     OW61531   6.710   3.380   2.560  0.9202  0.4257  0.1284
19888SOL    HW161532   6.681   3.382   2.651 -1.2527 -1.1605 -0.4370
19888SOL    HW261533   6.793   3.333   2.562  0.3700 -0.5359  1.1849
19889SOL     OW61534   8.775   1.018   0.751 -0.6300  0.2658 -0.1195
19889SOL    HW161535   8.692   1.060   0.773 -0.0273  1.7582 -0.5706
19889SOL    HW261536   8.758   0.976   0.666 -0.2775  2.7308 -1.5068
19890SOL     OW61537   0.620   0.527   8.089 -0.1817 -0.3871 -0.0887
19890SOL    HW161538   0.529   0.498   8.094 -0.5493  0.2728 -2.0528
19890SOL    HW261539   0.669   0.447   8.065 -0.6297 -0.2826 -1.4775
19891SOL     OW61540   3.935   6.627   8.582 -0.4175 -0.3409 -0.6209
19891SOL    HW161541   3.900   6.538   8.577  1.6419 -1.2529  0.0269
19891SOL    HW261542   3.905   6.660   8.667  0.5685 -1.2817  0.1333
19892SOL     OW61543   8.002   7.829   4.952 -0.1669 -0.3917 -0.0053
19892SOL    HW161544   8.063   7.784   4.894 -0.7500 -1.2168 -0.0023
19892SOL    HW261545   7.957   7.759   4.999  0.3479  0.2479  1.5264
19893SOL     OW61546   8.124   3.620   5.218 -0.3394  0.3357  0.2889
19893SOL    HW161547   8.219   3.631   5.208  0.0425 -1.5015  1.4167
19893SOL    HW261548   8.113   3.590   5.308 -2.0458  0.7720  0.2597
19894SOL     OW61549   6.625   3.460   2.814 -0.2709  0.0005  0.1484
19894SOL    HW161550   6.697   3.402   2.837  0.1041 -0.2730 -1.5571
19894SOL    HW261551   6.552   3.401   2.793 -0.0163  0.1242 -1.1814
19895SOL     OW61552   1.726   1.570   5.141  0.3851 -0.1805  0.1665
19895SOL    HW161553   1.820   1.581   5.160  0.8838  1.4088 -2.6517
19895SOL    HW261554   1.695   1.510   5.209  3.0769  0.4634  2.1427
19896SOL     OW61555   6.320   1.615   0.841  0.2590 -0.0363 -0.1842
19896SOL    HW161556   6.286   1.583   0.758 -0.2917 -0.7030  0.2833
19896SOL    HW261557   6.272   1.565   0.907  0.0646  1.0836  0.5600
19897SOL     OW61558   5.353   7.491   0.155 -0.0246 -0.6950 -0.6559
19897SOL    HW161559   5.284   7.556   0.151 -0.7637 -1.4569 -0.7103
19897SOL    HW261560   5.383   7.492   0.246  1.0922  0.8293 -1.0096
19898SOL     OW61561   1.206   5.481   0.886 -0.0195  0.0256  0.0620
19898SOL    HW161562   1.164   5.535   0.818  1.3400 -0.9650 -1.6455
19898SOL    HW261563   1.220   5.397   0.844  1.5603 -0.3931  1.3413
19899SOL     OW61564   0.711   2.938   7.861 -0.2243 -1.0666 -0.3288
19899SOL    HW161565   0.705   3.017   7.915  2.0105 -0.7066 -0.5295
19899SOL    HW261566   0.621   2.923   7.831 -0.4865  2.6958 -2.0679
19900SOL     OW61567   5.457   2.120   2.067 -0.1036 -0.1185 -0.4953
19900SOL    HW161568   5.444   2.176   2.143  0.1643 -0.5981 -0.0930
19900SOL    HW261569   5.390   2.149   2.004 -0.9704 -0.3734  0.2977
19901SOL     OW61570   0.636   3.014   5.038  0.5748 -0.4313 -0.2424
19901SOL    HW161571   0.705   3.021   4.973  0.1791  1.6476 -0.5159
19901SOL    HW261572   0.681   3.005   5.122  1.1999  0.4430 -0.4700
19902SOL     OW61573   5.132   8.829   7.792  0.0278 -0.0462 -0.1780
19902SOL    HW161574   5.213   8.796   7.754 -0.4905 -1.8872  0.2171
19902SOL    HW261575   5.129   8.921   7.766  1.5416 -0.2936 -1.3685
19903SOL     OW61576   4.364   8.654   2.245 -0.6298  0.0363 -0.0143
19903SOL    HW161577   4.284   8.617   2.282 -0.5008 -0.3284 -0.0981
19903SOL    HW261578   4.334   8.723   2.185 -0.8677  0.0870  0.1624
19904SOL     OW61579   2.959   8.167   5.122 -0.4258  0.1216  0.1340
19904SOL    HW161580   2.969   8.194   5.030 -0.0572  0.6353  0.3156
19904SOL    HW261581   2.879   8.210   5.151 -0.3246  0.2932  0.1632
19905SOL     OW61582   7.582   4.941   4.110 -0.6897 -0.2302  0.2652
19905SOL    HW161583   7.517   4.974   4.048 -1.4012 -1.4298  0.3454
19905SOL    HW261584   7.600   4.851   4.081  3.0292  0.8694 -1.4343
19906SOL     OW61585   0.909   3.628   2.054  0.1664 -0.5040 -0.1806
19906SOL    HW161586   0.832   3.685   2.062  0.2510 -0.4902  0.5630
19906SOL    HW261587   0.901   3.566   2.126  0.6079 -0.8020 -0.3837
19907SOL     OW61588   6.381   6.430   5.754 -0.7880 -0.1870  0.7164
19907SOL    HW161589   6.448   6.371   5.718 -0.3860  0.8681 -0.3163
19907SOL    HW261590   6.400   6.514   5.714 -3.4074 -0.0761 -0.4577
19908SOL     OW61591   8.575   7.393   7.027 -0.4799  0.2565  0.6906
19908SOL    HW161592   8.584   7.319   6.967 -0.4942  0.3691  0.5493
19908SOL    HW261593   8.526   7.459   6.977  1.8291  1.4252 -0.1485
19909SOL     OW61594   0.920   1.011   2.046 -0.0239  0.7799 -0.2898
19909SOL    HW161595   0.920   0.934   1.989  1.2278  1.8643 -1.8657
19909SOL    HW261596   0.849   1.066   2.012  0.6569  1.3818 -0.7756
19910SOL     OW61597   5.390   4.718   1.917  0.8083  0.5085 -0.2017
19910SOL    HW161598   5.318   4.742   1.975  0.8575 -0.7290  0.4121
19910SOL    HW261599   5.383   4.623   1.908  2.4309  0.3418 -0.0284
19911SOL     OW61600   7.921   8.312   8.643 -0.2345 -0.3839  0.3881
19911SOL    HW161601   7.864   8.269   8.707 -0.4451  0.6541  0.9187
19911SOL    HW261602   7.886   8.285   8.558 -1.0475 -0.3807  0.7088
19912SOL     OW61603   4.299   0.824   6.246  0.4836  0.1098 -0.2232
19912SOL    HW161604   4.270   0.781   6.165  1.0892  0.0019 -0.3894
19912SOL    HW261605   4.387   0.855   6.226 -0.7460  3.5402 -0.9083
19913SOL     OW61606   7.318   8.661   7.992  0.6318  0.2486 -0.4025
19913SOL    HW161607   7.408   8.636   8.011  0.3428 -0.2440  0.3839
19913SOL    HW261608   7.315   8.672   7.897  0.9976 -1.9691 -0.7234
19914SOL     OW61609   7.306   2.346   2.662 -0.2458 -0.4035  0.2579
19914SOL    HW161610   7.298   2.381   2.750 -0.6884  0.0685  0.0390
19914SOL    HW261611   7.239   2.278   2.656  0.6227 -1.3147  0.6874
19915SOL     OW61612   2.517   2.668   2.749  0.0074 -0.2809 -0.5132
19915SOL    HW161613   2.603   2.709   2.737  0.1817 -0.6041 -0.3945
19915SOL    HW261614   2.455   2.732   2.716  0.3134 -0.1424 -0.8285
19916SOL     OW61615   8.030   2.986   3.438 -0.8159 -0.3125  0.1619
19916SOL    HW161616   8.081   2.942   3.507  1.1195 -0.1241 -1.0628
19916SOL    HW261617   7.939   2.969   3.461 -0.2564 -0.1925  2.7982
19917SOL     OW61618   7.061   4.595   6.374  0.3998 -0.0213 -0.0620
19917SOL    HW161619   7.011   4.547   6.440 -1.5701  0.2942 -1.2458
19917SOL    HW261620   6.998   4.613   6.304  1.5020  2.6752 -0.4971
19918SOL     OW61621   1.079   2.222   2.552 -0.4200 -0.3555 -0.2576
19918SOL    HW161622   1.031   2.264   2.623 -0.5173 -0.7199 -0.1063
19918SOL    HW261623   1.079   2.287   2.482 -0.7921 -0.1977 -0.1157
19919SOL     OW61624   2.786   0.011   5.625  0.2821  0.9260 -0.5684
19919SOL    HW161625   2.708   0.008   5.681  2.0013 -3.9129  2.1882
19919SOL    HW261626   2.857   0.037   5.683  1.8135 -2.3327 -0.7406
19920SOL     OW61627   1.327   0.040   5.258  0.1908  0.1279  0.0523
19920SOL    HW161628   1.342  -0.055   5.252 -0.0458  0.1099 -0.2628
19920SOL    HW261629   1.410   0.079   5.232 -0.6463  0.0506 -3.1426
19921SOL     OW61630   3.836   0.608   0.914 -0.3335 -0.8642  0.2732
19921SOL    HW161631   3.779   0.536   0.888 -2.4012  0.7030  0.1860
19921SOL    HW261632   3.805   0.683   0.863  0.1970  0.6337  2.0183
19922SOL     OW61633   0.800   4.928   4.599 -0.2555  0.2448  0.2906
19922SOL    HW161634   0.783   4.856   4.538  0.2878  1.9655 -2.0480
19922SOL    HW261635   0.730   4.991   4.582  0.4485  1.1800  0.7718
19923SOL     OW61636   4.542   0.688   0.767  0.2438  0.5020 -0.0706
19923SOL    HW161637   4.555   0.762   0.708  2.2449  0.2401 -0.0271
19923SOL    HW261638   4.486   0.628   0.719  1.4260  0.5173 -1.5490
19924SOL     OW61639   0.170   3.182   2.158  0.3113 -0.4626  0.4112
19924SOL    HW161640   0.189   3.114   2.222 -0.0227 -0.0909  0.9141
19924SOL    HW261641   0.240   3.174   2.093  2.6010  1.2498  2.4849
19925SOL     OW61642   3.026   4.056   7.482 -0.3313  0.1708  0.4829
19925SOL    HW161643   3.068   4.042   7.567  1.6558 -0.0218 -0.4788
19925SOL    HW261644   3.059   4.140   7.452 -0.0687 -0.3056 -0.6186
19926SOL     OW61645   7.366   1.887   8.553  0.4715 -0.5260 -0.8900
19926SOL    HW161646   7.279   1.851   8.536 -1.2905  3.1617 -0.6976
19926SOL    HW261647   7.371   1.895   8.648  1.7775 -2.2450 -0.7799
19927SOL     OW61648   4.553   6.861   7.885 -0.2862 -0.1806 -0.0182
19927SOL    HW161649   4.618   6.865   7.955  0.4903 -0.1128 -0.7315
19927SOL    HW261650   4.539   6.767   7.870 -1.4806 -0.2180  1.1423
19928SOL     OW61651   2.757   3.111   2.680  0.1978  0.2283 -0.0426
19928SOL    HW161652   2.709   3.152   2.608  0.1629  2.2035  1.0327
19928SOL    HW261653   2.843   3.090   2.643 -0.5053 -0.6891 -1.1969
19929SOL     OW61654   1.725   4.840   0.666 -0.2092  0.0479  0.3271
19929SOL    HW161655   1.636   4.843   0.700 -0.2477  0.7054  0.1756
19929SOL    HW261656   1.730   4.756   0.619 -0.6945 -0.0632  0.4730
19930SOL     OW61657   4.955   6.467   0.679  0.2944  0.5194 -0.1794
19930SOL    HW161658   4.868   6.507   0.675 -0.0306 -0.1164  0.2514
19930SOL    HW261659   4.970   6.434   0.590 -0.0073  0.4219 -0.1958
19931SOL     OW61660   2.173   8.838   6.330 -0.4277  0.2613  0.1580
19931SOL    HW161661   2.261   8.837   6.294  0.0333 -1.6825  1.2005
19931SOL    HW261662   2.169   8.918   6.382  1.1038 -0.1555  0.9539
19932SOL     OW61663   7.606   8.526   6.573 -0.0228 -0.0220 -0.0359
19932SOL    HW161664   7.639   8.436   6.570  2.3487  0.7060  1.5683
19932SOL    HW261665   7.661   8.574   6.511  1.1637  0.9553  1.6809
19933SOL     OW61666   7.094   8.905   0.740 -0.0504  0.0580 -0.0996
19933SOL    HW161667   7.125   8.988   0.705  1.5101 -0.4791 -0.0804
19933SOL    HW261668   7.097   8.916   0.835 -0.4997  0.1905 -0.0960
19934SOL     OW61669   7.423   5.040   2.042  0.2596  0.0315  0.0153
19934SOL    HW161670   7.516   5.059   2.056  0.4580 -0.9447  0.0925
19934SOL    HW261671   7.415   4.946   2.058 -0.8167  0.1710  0.3747
19935SOL     OW61672   5.197   7.327   3.519  0.2720 -0.2950 -0.3457
19935SOL    HW161673   5.148   7.317   3.437  0.5108 -1.4243 -0.3701
19935SOL    HW261674   5.165   7.409   3.556  0.1199  0.2106 -1.5411
19936SOL     OW61675   0.491   6.119   3.404 -0.1760 -0.3243 -0.3182
19936SOL    HW161676   0.531   6.079   3.327  1.4822  1.6306 -0.5860
19936SOL    HW261677   0.483   6.048   3.467  2.0318 -1.2578 -0.9851
19937SOL     OW61678   3.582   0.369   6.689  0.3728 -0.0600 -0.0943
19937SOL    HW161679   3.584   0.285   6.735 -0.1067  0.5191  1.0246
19937SOL    HW261680   3.551   0.348   6.601  1.2798 -1.1890 -0.1661
19938SOL     OW61681   6.239   6.544   7.896 -0.0612  0.0658 -0.0024
19938SOL    HW161682   6.256   6.558   7.803  0.5553  0.4120  0.1599
19938SOL    HW261683   6.269   6.625   7.938  0.5930 -0.4875  0.6037
19939SOL     OW61684   6.776   0.494   8.191  0.5487 -0.0533 -0.1106
19939SOL    HW161685   6.722   0.572   8.176  2.0868  1.3913  1.3693
19939SOL    HW261686   6.737   0.427   8.135 -0.5323  1.9106 -1.8805
19940SOL     OW61687   7.560   7.818   8.610  0.4643 -0.1617 -0.3711
19940SOL    HW161688   7.645   7.779   8.629 -0.7528 -1.8369  2.3346
19940SOL    HW261689   7.538   7.786   8.523  1.1532 -2.6840  0.2910
19941SOL     OW61690   6.520   5.850   5.225 -0.1001  0.2058 -0.8484
19941SOL    HW161691   6.589   5.906   5.188 -0.0435 -0.4616 -1.7924
19941SOL    HW261692   6.566   5.772   5.256 -0.1750  0.6789  0.5068
19942SOL     OW61693   5.496   7.677   8.306  0.0083 -0.3526  0.2624
19942SOL    HW161694   5.448   7.596   8.324  0.2639 -1.2447 -2.5521
19942SOL    HW261695   5.587   7.654   8.322 -0.1676  0.4501  2.7180
19943SOL     OW61696   8.065   8.760   1.954 -0.7980  0.3779  0.3738
19943SOL    HW161697   8.078   8.853   1.939 -1.2689  0.3165 -0.4793
19943SOL    HW261698   8.057   8.722   1.866 -0.5812 -0.4662  0.7095
19944SOL     OW61699   6.947   2.910   4.075  0.4117  0.0484 -0.5935
19944SOL    HW161700   6.959   2.817   4.092 -1.2012 -0.1693 -0.4415
19944SOL    HW261701   6.859   2.929   4.108  1.8820  2.3878  2.4232
19945SOL     OW61702   2.791   2.489   6.978 -0.1422 -0.3502  0.5767
19945SOL    HW161703   2.705   2.460   7.008 -0.4012  0.9620  1.2010
19945SOL    HW261704   2.822   2.546   7.048  1.0769 -0.5130  0.1854
19946SOL     OW61705   7.898   8.587   4.299 -0.3282 -0.0924  0.3644
19946SOL    HW161706   7.898   8.668   4.247 -1.0672  0.0490  0.5746
19946SOL    HW261707   7.837   8.529   4.252 -1.0305  0.0499  1.0825
19947SOL     OW61708   4.140   8.018   7.168  0.8679  0.0214 -0.2633
19947SOL    HW161709   4.223   8.012   7.120  0.9832  2.1647 -0.4302
19947SOL    HW261710   4.074   8.028   7.100  0.5909 -0.5193 -0.0813
19948SOL     OW61711   5.460   2.596   5.520  0.2472  0.2585  0.4380
19948SOL    HW161712   5.371   2.625   5.541  0.1744  0.2760  0.1055
19948SOL    HW261713   5.516   2.648   5.577 -0.0388 -0.9298  1.8963
19949SOL     OW61714   3.101   6.425   8.236  0.1008  0.1908 -0.0202
19949SOL    HW161715   3.152   6.398   8.312 -0.1847 -0.8086 -0.1696
19949SOL    HW261716   3.165   6.465   8.177  0.3879  0.6126  0.5701
19950SOL     OW61717   2.159   7.562   1.816 -0.1754  0.1000  0.4202
19950SOL    HW161718   2.141   7.654   1.797 -0.6462  0.0056  0.3991
19950SOL    HW261719   2.228   7.538   1.755 -0.3069  0.3391  0.1736
19951SOL     OW61720   7.196   6.830   4.020 -0.1440 -0.0625 -0.1752
19951SOL    HW161721   7.252   6.892   4.067 -0.6269 -0.3684  0.8308
19951SOL    HW261722   7.237   6.821   3.934  1.5501 -0.5423  0.6558
19952SOL     OW61723   3.116   0.496   1.762 -0.0224 -0.2328 -0.1287
19952SOL    HW161724   3.129   0.453   1.846 -0.3275 -0.0308  0.0254
19952SOL    HW261725   3.040   0.451   1.724 -0.1254 -0.0681 -0.1212
19953SOL     OW61726   4.487   8.296   3.522 -0.1214  0.5937  0.0899
19953SOL    HW161727   4.530   8.315   3.606  1.0524  1.8504 -0.7437
19953SOL    HW261728   4.559   8.292   3.459 -1.0944  1.1495 -1.0965
19954SOL     OW61729   3.182   3.192   5.499 -0.3438  0.5673 -0.0038
19954SOL    HW161730   3.220   3.105   5.509  0.0306  0.7198 -0.1075
19954SOL    HW261731   3.237   3.236   5.435 -0.4131  0.9494  0.1918
19955SOL     OW61732   0.406   8.393   4.720  0.4099 -0.1071  0.0280
19955SOL    HW161733   0.348   8.317   4.716 -2.1029  1.6960 -0.1030
19955SOL    HW261734   0.372   8.452   4.652  2.6792  0.9117 -0.2984
19956SOL     OW61735   1.231   1.032   7.113 -0.4818  0.6378  0.1841
19956SOL    HW161736   1.279   1.112   7.134 -0.6129  1.2946 -1.8348
19956SOL    HW261737   1.297   0.973   7.077 -0.0372 -0.9088  3.1957
19957SOL     OW61738   8.713   6.919   6.955 -0.0347  0.5409 -0.8639
19957SOL    HW161739   8.691   6.880   7.040 -0.4593  0.9413 -0.7872
19957SOL    HW261740   8.671   6.861   6.891  3.1536 -1.8379 -1.0622
19958SOL     OW61741   7.845   5.343   8.671 -0.0847 -0.1158  0.3793
19958SOL    HW161742   7.819   5.320   8.760  0.1102 -1.5312  0.1022
19958SOL    HW261743   7.769   5.387   8.634 -0.2479  0.2760  1.1697
19959SOL     OW61744   8.896   3.878   1.492  0.3540 -0.1372  0.3193
19959SOL    HW161745   8.860   3.802   1.538  1.4458 -2.1639 -1.9694
19959SOL    HW261746   8.820   3.931   1.470 -0.4944 -0.8248  1.5059
19960SOL     OW61747   4.157   1.880   6.205 -0.0221 -0.1473  0.0496
19960SOL    HW161748   4.148   1.935   6.283  0.7458  0.5536 -0.3400
19960SOL    HW261749   4.068   1.853   6.184 -0.2358 -0.4036  1.2046
19961SOL     OW61750   7.724   0.664   8.372  0.0601  0.7115  0.0408
19961SOL    HW161751   7.641   0.672   8.419 -0.8399 -1.5779 -0.9941
19961SOL    HW261752   7.790   0.688   8.436 -1.2910  0.7687  1.4885
19962SOL     OW61753   7.698   6.602   6.948 -0.9844  0.2807  0.2785
19962SOL    HW161754   7.772   6.546   6.926 -1.6268 -0.1265 -0.9392
19962SOL    HW261755   7.680   6.583   7.040  0.8572  0.9248  0.8078
19963SOL     OW61756   2.667   4.692   5.654 -0.2829  0.7006 -0.5015
19963SOL    HW161757   2.634   4.603   5.647  1.5438 -0.0093 -0.5184
19963SOL    HW261758   2.675   4.722   5.563 -0.6907  0.8179 -0.5024
19964SOL     OW61759   6.450   0.082   5.267  0.3275  0.1280  0.6328
19964SOL    HW161760   6.454   0.101   5.173  1.7303 -1.3381  0.3615
19964SOL    HW261761   6.356   0.084   5.287 -0.5313 -4.0086 -1.8560
19965SOL     OW61762   8.492   0.825   5.477  0.2897  0.0401  0.2574
19965SOL    HW161763   8.430   0.898   5.469  0.4607  0.1705  0.1005
19965SOL    HW261764   8.475   0.771   5.401 -0.6263 -0.7046  0.9701
19966SOL     OW61765   6.488   3.762   0.841 -0.2366 -0.4789  0.0250
19966SOL    HW161766   6.404   3.720   0.818  0.1588 -0.9730 -0.5584
19966SOL    HW261767   6.483   3.848   0.800  0.0617 -0.9924 -1.1601
19967SOL     OW61768   6.411   1.468   6.424  0.0781  0.5388  0.2071
19967SOL    HW161769   6.416   1.555   6.463 -0.0492  0.2835  0.8072
19967SOL    HW261770   6.412   1.484   6.330 -0.3594  1.2154  0.3094
19968SOL     OW61771   5.148   5.126   4.422  0.3760 -0.2173  0.2114
19968SOL    HW161772   5.178   5.184   4.352 -0.2236 -0.6326 -0.4090
19968SOL    HW261773   5.147   5.039   4.381  1.9253 -0.7932  1.3142
19969SOL     OW61774   8.797   3.658   7.297 -0.0826 -0.1391 -0.5551
19969SOL    HW161775   8.892   3.663   7.286  0.4061  0.8387  2.8299
19969SOL    HW261776   8.778   3.719   7.368 -2.8232 -2.4571  0.9311
19970SOL     OW61777   5.274   1.859   5.497  0.5576 -0.0887 -0.7937
19970SOL    HW161778   5.213   1.914   5.448  2.0521  0.2403 -2.3677
19970SOL    HW261779   5.328   1.816   5.430  2.7552  0.4668  0.4986
19971SOL     OW61780   1.036   5.369   1.637 -0.1638 -0.0906 -0.8809
19971SOL    HW161781   1.125   5.402   1.654 -0.4169  0.5848 -0.8096
19971SOL    HW261782   1.026   5.380   1.542 -0.9339  1.9038 -0.6285
19972SOL     OW61783   4.594   7.068   6.901  0.2075  0.4019  0.4393
19972SOL    HW161784   4.498   7.066   6.901  0.2148 -0.3937 -0.7195
19972SOL    HW261785   4.616   7.150   6.857  0.0351 -0.4915 -1.4123
19973SOL     OW61786   0.589   5.436   4.457  0.0303  0.0638 -0.1491
19973SOL    HW161787   0.574   5.377   4.531  2.1027  0.9081  1.0195
19973SOL    HW261788   0.575   5.381   4.380 -2.7676 -0.7045  0.7794
19974SOL     OW61789   2.332   1.266   0.261 -0.0739  0.2929  0.5292
19974SOL    HW161790   2.398   1.196   0.261  2.0923  2.2114  0.2263
19974SOL    HW261791   2.333   1.300   0.172 -1.7158  0.2219  0.4511
19975SOL     OW61792   4.303   2.516   2.986  0.2332  0.4848 -0.2048
19975SOL    HW161793   4.235   2.505   3.053 -0.1984  2.1598 -0.3398
19975SOL    HW261794   4.279   2.596   2.940  0.5248 -0.6148 -2.3780
19976SOL     OW61795   3.766   0.313   4.208  0.1781  0.4144 -0.1902
19976SOL    HW161796   3.777   0.252   4.135 -0.8928 -2.8460  2.1138
19976SOL    HW261797   3.814   0.272   4.281 -1.7807  1.5623  1.8746
19977SOL     OW61798   8.484   8.310   3.320 -0.3028 -0.3943  0.1706
19977SOL    HW161799   8.546   8.260   3.374 -0.5715 -1.4487 -0.4731
19977SOL    HW261800   8.411   8.330   3.379  0.6898  0.9907  0.9795
19978SOL     OW61801   6.290   1.204   6.182  0.0587  0.0262  0.2135
19978SOL    HW161802   6.357   1.147   6.219  0.0686  0.5327  1.0170
19978SOL    HW261803   6.332   1.290   6.177 -1.3163  1.0816  3.4995
19979SOL     OW61804   8.801   1.301   3.113 -0.0561 -0.6624 -0.2555
19979SOL    HW161805   8.865   1.248   3.065  1.0770  0.8595 -0.5148
19979SOL    HW261806   8.855   1.361   3.166 -1.2767  0.2325  0.0208
19980SOL     OW61807   7.437   1.272   1.670 -0.3455 -0.0638  0.3188
19980SOL    HW161808   7.519   1.233   1.639  1.1333  2.5083  0.7275
19980SOL    HW261809   7.430   1.243   1.761 -0.1432 -0.6515  0.1525
19981SOL     OW61810   7.253   8.743   6.147  0.2374 -0.8462  0.1941
19981SOL    HW161811   7.331   8.789   6.115 -0.4969  1.1057  1.0467
19981SOL    HW261812   7.222   8.693   6.071  0.5286  0.8525 -1.1157
19982SOL     OW61813   2.252   0.833   5.103  0.1325  0.1188  0.1372
19982SOL    HW161814   2.215   0.896   5.165 -0.4279  0.9462 -1.0114
19982SOL    HW261815   2.344   0.824   5.130  0.2274  1.4560  0.3001
19983SOL     OW61816   2.769   0.987   2.964 -0.3236  0.0851  0.0175
19983SOL    HW161817   2.859   1.015   2.945 -0.7455  0.7527 -1.0904
19983SOL    HW261818   2.730   1.061   3.010 -0.5178  0.0711 -0.1260
19984SOL     OW61819   0.745   0.722   8.247 -0.1011  0.0378 -0.6153
19984SOL    HW161820   0.825   0.676   8.274  0.9313  1.1296 -1.6492
19984SOL    HW261821   0.696   0.658   8.196  2.2679  0.4991 -3.7739
19985SOL     OW61822   6.055   0.415   4.022  0.2012  0.2563 -0.3648
19985SOL    HW161823   6.107   0.487   3.986 -1.0591  0.8534 -1.0539
19985SOL    HW261824   5.994   0.457   4.082  0.2591 -0.3906  0.1520
19986SOL     OW61825   8.487   1.088   1.335  0.1739 -0.0516 -0.8318
19986SOL    HW161826   8.536   1.049   1.263 -1.3866 -2.3480 -0.7271
19986SOL    HW261827   8.405   1.117   1.296 -0.8002 -1.5655  0.0163
19987SOL     OW61828   5.947   1.309   6.454 -0.0176 -0.4265  0.3637
19987SOL    HW161829   5.919   1.284   6.366 -0.4331 -2.5546  1.0549
19987SOL    HW261830   6.012   1.378   6.440 -0.9693  0.1453 -1.5370
19988SOL     OW61831   5.349   2.273   3.270 -0.1718 -0.5527  0.4026
19988SOL    HW161832   5.354   2.232   3.184  0.6601  0.5533 -0.0933
19988SOL    HW261833   5.314   2.205   3.327 -0.9809 -1.2228 -0.8533
19989SOL     OW61834   1.515   8.779   0.143 -0.1686 -0.3459 -0.3514
19989SOL    HW161835   1.600   8.735   0.147 -0.4710 -0.8386  1.2427
19989SOL    HW261836   1.524   8.842   0.071  1.6644 -0.1074  0.0419
19990SOL     OW61837   4.713   7.814   1.351  0.6134 -0.0946  0.0919
19990SOL    HW161838   4.764   7.870   1.292  0.4911 -0.6050 -0.5088
19990SOL    HW261839   4.624   7.817   1.316  0.3826  0.1958  0.6968
19991SOL     OW61840   5.495   4.098   0.275  0.5558  0.1633 -0.0135
19991SOL    HW161841   5.575   4.051   0.249  0.5417 -0.7151  1.4221
19991SOL    HW261842   5.443   4.104   0.195  2.3597  1.4382 -1.1768
19992SOL     OW61843   6.197   2.968   8.429 -0.2086  0.4490 -0.5949
19992SOL    HW161844   6.134   2.908   8.469  0.2117 -0.5742 -1.4233
19992SOL    HW261845   6.160   2.988   8.344 -1.3587  3.0354  0.4108
19993SOL     OW61846   8.925   7.131   4.431 -0.1944 -0.5535 -0.0361
19993SOL    HW161847   8.940   7.154   4.522 -0.1092 -1.5168  0.2077
19993SOL    HW261848   8.884   7.044   4.434 -0.4172 -0.4918 -0.9016
19994SOL     OW61849   3.128   5.011   8.698  0.0369  0.0264  0.1745
19994SOL    HW161850   3.107   5.028   8.789  0.7213  0.2333  0.2949
19994SOL    HW261851   3.223   5.021   8.692 -0.1914  2.0614 -0.9907
19995SOL     OW61852   2.517   1.139   7.199  0.1156 -0.1688 -0.1088
19995SOL    HW161853   2.475   1.174   7.121  0.9549  2.4455  0.5045
19995SOL    HW261854   2.447   1.136   7.264  0.0106  0.4139 -0.1858
19996SOL     OW61855   6.954   8.206   5.162  0.9567 -0.3867  0.4311
19996SOL    HW161856   6.971   8.154   5.240  0.2244  1.3408  1.8015
19996SOL    HW261857   6.986   8.293   5.183 -0.9497  0.5968 -0.4509
19997SOL     OW61858   4.285   7.237   1.451  0.0609 -0.8620  0.2233
19997SOL    HW161859   4.206   7.205   1.495  0.4902 -0.3425  1.4195
19997SOL    HW261860   4.255   7.263   1.364 -1.0193 -0.9463  0.5491
19998SOL     OW61861   4.149   0.482   7.512 -0.2718  0.2432 -0.4369
19998SOL    HW161862   4.179   0.573   7.517 -0.3068  0.1998  0.8247
19998SOL    HW261863   4.229   0.431   7.496 -0.0093  0.3527  0.4774
19999SOL     OW61864   2.043   3.949   0.291  0.4535  0.0050 -0.6403
19999SOL    HW161865   1.986   4.000   0.348  1.3795  0.7694 -0.3743
19999SOL    HW261866   2.107   4.012   0.258  0.9135 -0.7554 -1.2417
20000SOL     OW61867   1.136   3.495   6.066  0.1151  0.3005  0.2465
20000SOL    HW161868   1.135   3.518   6.159 -3.0288  1.8108 -0.0279
20000SOL    HW261869   1.136   3.579   6.020  0.8133 -0.4212 -1.1514
20001SOL     OW61870   0.961   4.110   8.049  0.1272  0.0964  0.6481
20001SOL    HW161871   0.912   4.192   8.043  0.9422  0.5049 -1.2880
20001SOL    HW261872   0.919   4.052   7.985  1.9979  0.4238 -0.9766
20002SOL     OW61873   7.557   5.464   0.182 -0.0102  0.4729  0.4299
20002SOL    HW161874   7.493   5.534   0.168  0.3345  0.6996 -0.0434
20002SOL    HW261875   7.526   5.392   0.127 -0.5666  0.1108  1.1962
20003SOL     OW61876   2.037   2.244   0.230 -0.7637 -0.2165  0.0680
20003SOL    HW161877   2.092   2.233   0.152  2.2925 -1.1286  2.1674
20003SOL    HW261878   2.085   2.307   0.283 -2.0638 -0.6252  1.7842
20004SOL     OW61879   3.363   0.621   1.406 -0.1346  0.2449 -0.1874
20004SOL    HW161880   3.456   0.625   1.388 -0.3534 -0.9689 -1.7877
20004SOL    HW261881   3.357   0.590   1.496  1.0282 -1.6964 -0.7316
20005SOL     OW61882   3.646   4.992   0.190 -0.4241  0.0426 -0.0299
20005SOL    HW161883   3.653   5.068   0.133  2.4573  0.3495  0.5824
20005SOL    HW261884   3.679   4.919   0.138  0.8966  0.0667  0.7325
20006SOL     OW61885   0.921   6.075   2.565 -0.6138  0.3686  0.0723
20006SOL    HW161886   0.869   6.008   2.610 -0.9957  1.5562  1.5112
20006SOL    HW261887   0.856   6.135   2.528 -0.2751  0.3068 -0.6425
20007SOL     OW61888   4.391   8.313   8.046 -0.5506  0.3327 -0.6390
20007SOL    HW161889   4.338   8.390   8.025  1.2462  0.7379 -4.5383
20007SOL    HW261890   4.343   8.240   8.006 -1.8274 -0.6287  2.3390
20008SOL     OW61891   1.500   4.519   7.633  0.1615  0.3231 -0.1092
20008SOL    HW161892   1.412   4.482   7.638  0.1424  0.5252  2.9239
20008SOL    HW261893   1.488   4.601   7.584 -0.9785 -0.4962 -1.2748
20009SOL     OW61894   8.617   2.412   2.558  0.2857  0.4143 -0.9164
20009SOL    HW161895   8.687   2.437   2.618  0.1072 -0.9798 -0.0838
20009SOL    HW261896   8.619   2.316   2.556  0.1989  0.4165 -3.0708
20010SOL     OW61897   3.907   7.554   3.221 -0.4663  0.2072 -0.5344
20010SOL    HW161898   3.944   7.605   3.293  0.5994 -0.1400 -0.8250
20010SOL    HW261899   3.899   7.617   3.150 -0.6729  0.3400 -0.3958
20011SOL     OW61900   0.519   5.382   7.596 -0.1375 -0.0724 -0.1377
20011SOL    HW161901   0.607   5.408   7.623 -0.7722  0.3420  1.6754
20011SOL    HW261902   0.461   5.449   7.633 -1.1452  0.5376 -2.6080
20012SOL     OW61903   2.041   2.433   1.366 -0.0830  0.0678 -0.2299
20012SOL    HW161904   2.047   2.522   1.332 -1.9523  0.5642  0.6325
20012SOL    HW261905   2.125   2.417   1.407  0.1142  1.6232  0.0260
20013SOL     OW61906   5.259   6.757   4.379 -0.2126 -0.3060 -0.2488
20013SOL    HW161907   5.280   6.681   4.324 -0.1372 -0.1427 -0.4469
20013SOL    HW261908   5.163   6.761   4.379 -0.3030 -1.5143  1.2830
20014SOL     OW61909   2.918   6.195   4.224  0.0503 -0.5526 -0.1025
20014SOL    HW161910   2.836   6.233   4.191  0.7367  0.5141 -0.6652
20014SOL    HW261911   2.958   6.155   4.147  0.1524 -0.8920  0.1272
20015SOL     OW61912   3.943   1.130   3.074  0.4203  0.3272 -0.2163
20015SOL    HW161913   4.005   1.113   3.004  1.1449  0.2030  0.4476
20015SOL    HW261914   3.989   1.105   3.154  0.0562  1.6021  0.4147
20016SOL     OW61915   6.188   2.406   6.247  0.3325 -0.0697 -0.1317
20016SOL    HW161916   6.109   2.412   6.301  1.1942 -0.6183  1.2411
20016SOL    HW261917   6.162   2.352   6.172 -0.9297  0.8403 -0.3875
20017SOL     OW61918   1.627   0.641   7.270  0.3319 -0.3638  0.0540
20017SOL    HW161919   1.664   0.571   7.217  0.4404 -0.3249  0.0781
20017SOL    HW261920   1.556   0.677   7.217 -0.4502 -1.2108  0.4899
20018SOL     OW61921   2.495   1.796   4.734  0.3561 -0.2378 -0.0374
20018SOL    HW161922   2.570   1.818   4.789  0.1031 -2.1611  1.1225
20018SOL    HW261923   2.463   1.881   4.702  0.5683  0.9473  2.6894
20019SOL     OW61924   7.793   1.611   8.008 -0.1690 -0.2104  0.3673
20019SOL    HW161925   7.784   1.612   8.103  0.2336  1.0987  0.4061
20019SOL    HW261926   7.709   1.579   7.976 -1.1036  1.4181  1.0955
20020SOL     OW61927   7.723   7.211   1.459  0.2689  0.1630  0.3424
20020SOL    HW161928   7.805   7.176   1.423 -0.9717 -0.8724 -1.6189
20020SOL    HW261929   7.674   7.134   1.486 -1.0634  0.5854 -0.7924
20021SOL     OW61930   2.747   8.009   7.112  0.1988  0.0787  0.4757
20021SOL    HW161931   2.667   7.956   7.120 -0.2197  0.9146  2.2323
20021SOL    HW261932   2.818   7.946   7.122  0.0358 -1.2811 -4.2536
20022SOL     OW61933   2.216   6.757   2.270  0.0975  0.4013  0.1487
20022SOL    HW161934   2.204   6.698   2.344  0.6432 -1.2583 -1.0370
20022SOL    HW261935   2.219   6.844   2.309 -1.3189 -0.2814  1.8905
20023SOL     OW61936   4.216   4.701   8.432 -0.0178 -0.4227 -0.0450
20023SOL    HW161937   4.157   4.776   8.429 -0.6370 -0.9141 -0.6735
20023SOL    HW261938   4.282   4.725   8.496 -0.5176  0.4284  0.1736
20024SOL     OW61939   7.078   5.231   5.062  0.6299  0.0791 -0.1971
20024SOL    HW161940   7.041   5.318   5.054 -0.2664 -0.3423 -0.8129
20024SOL    HW261941   7.128   5.218   4.981  2.1437  0.6316  0.6110
20025SOL     OW61942   0.493   6.667   1.378  0.2054  0.0370  0.6014
20025SOL    HW161943   0.441   6.748   1.370  0.1975  0.0135  0.3941
20025SOL    HW261944   0.542   6.663   1.296  1.4174  0.6678  1.2702
20026SOL     OW61945   1.820   5.356   6.648  0.1005  0.0800  0.6635
20026SOL    HW161946   1.746   5.296   6.662 -2.6353  2.9442 -0.3808
20026SOL    HW261947   1.840   5.347   6.555 -0.4129  0.8507  0.4732
20027SOL     OW61948   3.553   1.927   8.992  0.2451  0.0292  0.0772
20027SOL    HW161949   3.634   1.889   9.028 -0.6146 -0.7842  1.2087
20027SOL    HW261950   3.547   2.013   9.034  0.7472  0.2927 -0.3685
20028SOL     OW61951   2.185   5.248   2.765 -0.6494 -0.1553 -0.2085
20028SOL    HW161952   2.197   5.237   2.859  0.1139  0.1273 -0.2612
20028SOL    HW261953   2.179   5.343   2.752  3.5897  0.2330 -0.8470
20029SOL     OW61954   3.857   0.652   1.187  0.7957 -0.7102  0.2541
20029SOL    HW161955   3.910   0.731   1.197 -1.6583  1.0698  0.0780
20029SOL    HW261956   3.856   0.636   1.093  0.2832 -0.1739  0.1606
20030SOL     OW61957   6.388   2.231   3.480 -0.1479  0.2680 -0.0129
20030SOL    HW161958   6.317   2.205   3.539 -0.3294  0.1950 -0.2649
20030SOL    HW261959   6.398   2.325   3.495  0.2022  0.1406  0.5650
20031SOL     OW61960   6.537   5.059   6.540 -0.2828  0.0859  0.3572
20031SOL    HW161961   6.588   5.140   6.526 -0.7181  0.6734  1.9530
20031SOL    HW261962   6.446   5.087   6.534 -0.4395 -0.4442  0.2138
20032SOL     OW61963   0.438   1.683   6.611  1.0601  0.3833 -0.3124
20032SOL    HW161964   0.512   1.700   6.552  0.2721  1.2965 -1.0772
20032SOL    HW261965   0.445   1.590   6.633  1.4134  0.0368 -1.7972
20033SOL     OW61966   0.273   4.206   3.175 -0.2339  0.1651  0.3159
20033SOL    HW161967   0.204   4.150   3.213  0.2381 -1.0297 -0.5519
20033SOL    HW261968   0.301   4.261   3.248 -0.2248 -1.2239  1.4045
20034SOL     OW61969   0.829   0.501   5.734  0.0334 -0.2587  0.5457
20034SOL    HW161970   0.848   0.479   5.643  2.6749 -0.6210  1.1044
20034SOL    HW261971   0.847   0.595   5.740  1.6754 -0.5830  1.0642
20035SOL     OW61972   3.456   5.151   6.390 -0.5259  1.0120  0.2827
20035SOL    HW161973   3.406   5.216   6.440 -2.7065 -1.1770  1.1782
20035SOL    HW261974   3.413   5.067   6.411  1.4143 -0.5824 -1.6965
20036SOL     OW61975   8.145   0.269   0.693 -0.2007 -0.5799 -0.1559
20036SOL    HW161976   8.061   0.294   0.734  1.0201  1.0506  1.5166
20036SOL    HW261977   8.131   0.282   0.600 -1.7242 -0.0299  0.1130
20037SOL     OW61978   3.597   1.766   1.252 -0.4430  0.4363 -0.0082
20037SOL    HW161979   3.534   1.837   1.245  0.8285  1.4993 -1.3970
20037SOL    HW261980   3.581   1.728   1.338 -3.0510  0.5316 -0.3694
20038SOL     OW61981   2.390   3.050   8.147 -0.2586 -0.3576 -0.7063
20038SOL    HW161982   2.349   3.061   8.062 -0.5045  0.0701 -0.5384
20038SOL    HW261983   2.439   3.131   8.161 -2.5539  0.8596  0.8092
20039SOL     OW61984   6.836   1.004   2.822  0.5342 -0.2344  0.7533
20039SOL    HW161985   6.856   1.073   2.885 -0.9965  1.4102 -0.4942
20039SOL    HW261986   6.921   0.981   2.784  1.1510  0.4687  1.6691
20040SOL     OW61987   5.516   3.081   0.782  0.1388 -0.4807 -0.6174
20040SOL    HW161988   5.590   3.098   0.840  0.3701 -0.6076 -0.8741
20040SOL    HW261989   5.460   3.021   0.832 -0.5623  0.7971  0.1884
20041SOL     OW61990   8.657   5.620   2.652 -0.0324 -0.0581 -0.4336
20041SOL    HW161991   8.699   5.536   2.635  0.1515  0.0721 -0.6256
20041SOL    HW261992   8.599   5.603   2.727  0.7725 -0.1189  0.1985
20042SOL     OW61993   5.375   4.628   2.313  0.0097 -0.0192 -0.1926
20042SOL    HW161994   5.467   4.627   2.339 -0.2520 -0.2811  0.7854
20042SOL    HW261995   5.340   4.709   2.350  0.1198  0.7074 -1.6253
20043SOL     OW61996   2.569   5.699   1.915 -0.1674  0.3175 -0.1736
20043SOL    HW161997   2.594   5.790   1.928  2.1240 -0.4319  1.2065
20043SOL    HW261998   2.502   5.702   1.846 -2.3608  3.2514  1.8654
20044SOL     OW61999   7.290   8.007   5.207 -0.1031  0.2683 -0.5650
20044SOL    HW162000   7.211   8.061   5.204 -1.0905 -1.0595  0.0107
20044SOL    HW262001   7.348   8.053   5.267 -0.7921  0.8525 -0.3245
20045SOL     OW62002   5.877   4.168   1.936  0.3374  0.1078  0.1424
20045SOL    HW162003   5.811   4.232   1.963  0.1648  0.6521 -1.4474
20045SOL    HW262004   5.829   4.085   1.931  0.2936  0.0630  1.0630
20046SOL     OW62005   1.627   6.502   5.875  0.2971 -0.0488  0.1900
20046SOL    HW162006   1.683   6.556   5.820  0.0773  1.0666  1.0115
20046SOL    HW262007   1.545   6.551   5.881 -0.1441 -0.8012  0.4165
20047SOL     OW62008   2.111   3.888   8.066  0.1880 -0.6134 -0.1325
20047SOL    HW162009   2.106   3.808   8.014 -0.9234 -0.9693  0.4864
20047SOL    HW262010   2.131   3.957   8.002  1.9222 -1.4606 -0.5613
20048SOL     OW62011   7.162   6.461   5.409 -0.0955  0.6718  0.3625
20048SOL    HW162012   7.202   6.462   5.496  1.2601 -0.6346 -0.2171
20048SOL    HW262013   7.202   6.535   5.364 -0.0148  0.7117  0.4977
20049SOL     OW62014   1.765   6.951   6.859 -0.4102 -0.0838  0.3655
20049SOL    HW162015   1.782   6.979   6.949 -1.5029  1.7781  0.0447
20049SOL    HW262016   1.688   7.001   6.832  0.1048 -0.3103 -1.7393
20050SOL     OW62017   0.526   1.875   4.345 -0.0860 -0.5867 -0.2727
20050SOL    HW162018   0.475   1.807   4.389 -2.4169 -0.1132 -2.0271
20050SOL    HW262019   0.467   1.908   4.276  1.5743  2.0216 -0.5742
20051SOL     OW62020   3.938   2.380   7.876  0.2633  0.2764 -0.3599
20051SOL    HW162021   3.877   2.446   7.844 -0.4784 -0.0004  0.4792
20051SOL    HW262022   3.986   2.352   7.797 -1.2384 -0.0924 -1.1697
20052SOL     OW62023   8.542   0.789   3.961  0.4922  0.0985 -0.4858
20052SOL    HW162024   8.462   0.828   3.925 -1.6561 -2.6108  0.9651
20052SOL    HW262025   8.574   0.853   4.024 -1.6089  0.5376  0.2223
20053SOL     OW62026   0.500   0.397   4.278  0.3352  0.3064  0.0414
20053SOL    HW162027   0.528   0.383   4.188  0.1816  1.3832 -0.1933
20053SOL    HW262028   0.483   0.310   4.312 -0.6781 -0.0686 -1.3219
20054SOL     OW62029   8.662   5.497   0.860 -0.5739 -0.1254 -0.2038
20054SOL    HW162030   8.609   5.493   0.780  0.7609 -1.0420 -1.0825
20054SOL    HW262031   8.751   5.480   0.831  0.2833  1.5791  1.2014
20055SOL     OW62032   5.445   3.113   1.495  0.4219 -0.4333 -0.0567
20055SOL    HW162033   5.367   3.094   1.547  0.3760  1.4655  0.6087
20055SOL    HW262034   5.513   3.055   1.532 -0.2443 -0.9322  0.4179
20056SOL     OW62035   6.963   0.299   4.281 -0.3255  0.4630 -0.2154
20056SOL    HW162036   6.927   0.225   4.330 -0.8806  0.3638 -0.7567
20056SOL    HW262037   6.904   0.309   4.206  0.2854  0.8542 -0.6549
20057SOL     OW62038   7.355   4.546   8.379 -0.2706  0.3335 -0.3441
20057SOL    HW162039   7.361   4.592   8.463 -1.2737  0.9542 -0.5933
20057SOL    HW262040   7.407   4.599   8.318  0.7205 -0.2877 -0.0633
20058SOL     OW62041   1.984   7.997   3.896 -0.8095 -0.0583 -0.1232
20058SOL    HW162042   1.913   7.933   3.886  0.0957 -1.0003 -0.6469
20058SOL    HW262043   2.064   7.944   3.900 -0.1224  0.9928  0.3900
20059SOL     OW62044   1.020   8.714   0.845 -0.5370  0.4731  0.0695
20059SOL    HW162045   0.938   8.762   0.848 -0.8141 -0.0413  1.8915
20059SOL    HW262046   0.998   8.630   0.805 -0.9341  0.3120  0.6090
20060SOL     OW62047   1.680   3.698   4.826  0.1186 -0.1554 -0.4537
20060SOL    HW162048   1.716   3.640   4.894 -0.5619 -0.8774 -0.6953
20060SOL    HW262049   1.751   3.759   4.807  1.0100 -1.1789 -0.5002
20061SOL     OW62050   5.550   4.404   4.820 -0.2188 -0.5282  0.4316
20061SOL    HW162051   5.470   4.401   4.768  1.3880 -0.5581 -2.1971
20061SOL    HW262052   5.542   4.484   4.872 -1.0190  0.6368 -1.4103
20062SOL     OW62053   2.804   6.446   7.493  0.0380 -0.0658 -0.0867
20062SOL    HW162054   2.831   6.397   7.415  0.7180 -0.3508  0.3143
20062SOL    HW262055   2.873   6.428   7.557  0.1618  1.2214  0.1534
20063SOL     OW62056   4.475   2.355   7.198  0.0781 -0.2122  0.2429
20063SOL    HW162057   4.562   2.337   7.162  0.4659  0.7314  0.6642
20063SOL    HW262058   4.429   2.401   7.128 -0.0026 -0.5153  0.0982
20064SOL     OW62059   2.584   5.882   7.284 -0.1687  0.0540 -0.4163
20064SOL    HW162060   2.639   5.815   7.324  2.6343  1.8638 -0.9508
20064SOL    HW262061   2.637   5.918   7.213 -1.2987  3.1613  0.1360
20065SOL     OW62062   2.049   3.990   4.841 -0.5934 -0.5472 -0.4433
20065SOL    HW162063   2.127   3.946   4.810 -1.3843 -1.8246 -0.6901
20065SOL    HW262064   2.073   4.083   4.844  0.8821 -0.9047 -0.5933
20066SOL     OW62065   0.523   0.013   2.383  0.0958 -0.4553 -1.0286
20066SOL    HW162066   0.573  -0.067   2.363 -0.5147 -1.1558  0.1409
20066SOL    HW262067   0.587   0.070   2.426  0.0378 -1.1833  0.0819
20067SOL     OW62068   5.470   8.690   5.375  0.0927 -0.1272 -0.0742
20067SOL    HW162069   5.550   8.665   5.328  0.7671  1.2513  0.2871
20067SOL    HW262070   5.502   8.727   5.458 -1.0557 -2.2064  1.3790
20068SOL     OW62071   1.084   1.975   7.400 -0.3907  0.0265  0.3841
20068SOL    HW162072   1.170   2.018   7.399 -0.5609  0.4158 -1.7643
20068SOL    HW262073   1.097   1.896   7.348 -1.0911 -0.4346  0.9101
20069SOL     OW62074   2.725   3.823   3.680  0.2076 -0.3605  0.3311
20069SOL    HW162075   2.811   3.863   3.692  0.1599  0.7742 -2.3483
20069SOL    HW262076   2.743   3.730   3.667  0.9729 -0.2256  0.4150
20070SOL     OW62077   7.994   3.335   8.669  0.1155  0.0475 -0.1345
20070SOL    HW162078   7.935   3.341   8.745  0.7279 -1.3802  0.4832
20070SOL    HW262079   7.945   3.284   8.605 -0.2521  0.9336 -0.5751
20071SOL     OW62080   0.013   8.738   4.287 -0.1689  0.5378 -0.3807
20071SOL    HW162081   0.018   8.745   4.192 -2.3037 -0.4944 -0.6241
20071SOL    HW262082  -0.028   8.820   4.315  0.4226  0.8238 -0.3395
20072SOL     OW62083   6.075   0.019   1.186  0.2932  0.3727  0.3223
20072SOL    HW162084   5.994  -0.030   1.198  0.2683  0.4246  0.3660
20072SOL    HW262085   6.134  -0.013   1.254  1.0953 -1.3092 -1.0795
20073SOL     OW62086   8.570   4.852   5.278 -0.3490 -0.4030 -0.7726
20073SOL    HW162087   8.619   4.813   5.206 -0.9142  1.2803 -2.1498
20073SOL    HW262088   8.482   4.867   5.243 -0.7475  0.1343  0.3730
20074SOL     OW62089   4.026   0.858   4.133 -0.6312 -0.2673 -0.0579
20074SOL    HW162090   3.983   0.804   4.065  0.0855  1.5357 -2.0529
20074SOL    HW262091   3.955   0.909   4.171 -0.7141  0.7580 -1.4875
20075SOL     OW62092   0.436   6.713   0.008  0.3530  0.0291  0.3058
20075SOL    HW162093   0.523   6.750  -0.003  0.8743 -0.8201  1.3027
20075SOL    HW262094   0.428   6.698   0.102 -0.9401  0.2462  0.2478
20076SOL     OW62095   5.210   0.463   0.391 -0.6495 -0.5235 -0.4339
20076SOL    HW162096   5.138   0.450   0.330 -1.8124  0.4947  0.6745
20076SOL    HW262097   5.201   0.553   0.421  0.6574 -0.6038  0.2849
20077SOL     OW62098   2.859   6.969   8.890  0.3400  0.3030 -0.0656
20077SOL    HW162099   2.787   6.996   8.834 -1.1260 -0.9016  1.1567
20077SOL    HW262100   2.870   6.876   8.872  0.2547  0.0313  1.1639
20078SOL     OW62101   7.066   6.099   2.510  0.0665 -0.3469  0.6335
20078SOL    HW162102   7.125   6.153   2.457  0.8217 -1.2882  0.4878
20078SOL    HW262103   7.010   6.055   2.447  0.6175 -1.0664  0.6367
20079SOL     OW62104   8.217   6.790   3.326  0.1809 -0.4304 -0.2012
20079SOL    HW162105   8.174   6.705   3.330  0.9953 -1.0063 -2.4249
20079SOL    HW262106   8.266   6.789   3.244 -0.7991  2.6508 -0.9938
20080SOL     OW62107   6.238   0.836   7.665  0.3033 -0.4866  0.5078
20080SOL    HW162108   6.311   0.831   7.604  1.7243 -1.6770  2.2104
20080SOL    HW262109   6.176   0.896   7.623  1.2049 -1.2087 -2.0413
20081SOL     OW62110   0.740   1.660   0.648  0.4007 -0.4397  0.0832
20081SOL    HW162111   0.717   1.614   0.729 -0.7136  1.5217  0.9407
20081SOL    HW262112   0.816   1.612   0.615 -0.6284 -2.8450  0.9136
20082SOL     OW62113   4.823   3.588   2.927  0.1936 -0.7244 -0.1418
20082SOL    HW162114   4.798   3.551   3.012  1.8005 -0.7951  0.3342
20082SOL    HW262115   4.743   3.585   2.875 -0.1636 -3.3400  0.4236
20083SOL     OW62116   6.450   3.456   3.073 -0.4323  0.1343 -0.0296
20083SOL    HW162117   6.420   3.519   3.006 -1.4555 -0.4492 -0.1331
20083SOL    HW262118   6.437   3.370   3.033 -1.5460 -0.2493  1.1042
20084SOL     OW62119   6.360   0.350   7.151 -0.0615 -0.0751 -0.5461
20084SOL    HW162120   6.417   0.348   7.227 -0.5034 -0.4700 -0.2176
20084SOL    HW262121   6.311   0.432   7.160  0.0441 -0.0144 -0.5246
20085SOL     OW62122   0.459   0.769   0.253 -0.2941 -0.4948 -0.6173
20085SOL    HW162123   0.521   0.790   0.183 -0.0273  0.9198  0.0084
20085SOL    HW262124   0.433   0.854   0.288 -1.6033 -1.1282 -0.0080
20086SOL     OW62125   0.130   8.989   1.074 -0.1331  0.0470  0.4771
20086SOL    HW162126   0.040   9.014   1.057 -1.0916 -2.9284  0.7216
20086SOL    HW262127   0.146   9.017   1.165 -1.1889 -0.3210  0.7849
20087SOL     OW62128   7.734   2.311   6.512  0.5410  0.1883  0.5727
20087SOL    HW162129   7.766   2.257   6.585 -0.1346 -0.9902  0.0129
20087SOL    HW262130   7.657   2.355   6.548 -0.5073 -1.3089  0.2542
20088SOL     OW62131   7.035   4.189   5.115  0.2571 -0.0166  0.8197
20088SOL    HW162132   6.982   4.195   5.195 -3.4737 -0.3568 -1.4016
20088SOL    HW262133   7.001   4.258   5.059  0.8102 -1.5169 -1.4675
20089SOL     OW62134   6.189   1.245   0.735 -0.1991  1.2865 -0.0919
20089SOL    HW162135   6.260   1.186   0.759 -1.0390 -0.2511 -1.1952
20089SOL    HW262136   6.228   1.306   0.672 -0.0231 -0.1587 -1.4517
20090SOL     OW62137   8.898   0.460   7.106 -0.3693 -0.5323 -0.3505
20090SOL    HW162138   8.832   0.458   7.174  0.1056 -1.9048  0.1059
20090SOL    HW262139   8.853   0.430   7.027 -0.5068 -0.5763 -0.2540
20091SOL     OW62140   7.762   4.514   0.325 -0.1757  0.3488  0.3051
20091SOL    HW162141   7.781   4.430   0.365 -1.8763 -1.0009 -1.5022
20091SOL    HW262142   7.847   4.558   0.319  0.9738 -1.7736  0.1375
20092SOL     OW62143   1.694   3.354   8.786 -0.2325  0.3352 -0.4210
20092SOL    HW162144   1.662   3.264   8.793  0.3904  0.2000  1.1176
20092SOL    HW262145   1.789   3.345   8.775 -0.0767  0.7839  0.4192
20093SOL     OW62146   1.120   6.097   8.091  0.0198 -0.4442  0.0076
20093SOL    HW162147   1.168   6.125   8.013  1.8189  0.9760  1.5217
20093SOL    HW262148   1.070   6.175   8.116  0.6005 -0.3963  1.0598
20094SOL     OW62149   4.820   8.143   0.767  0.3524 -0.2192 -0.3873
20094SOL    HW162150   4.767   8.180   0.696  0.2904  0.0470 -0.2039
20094SOL    HW262151   4.906   8.127   0.727  0.3994  0.1838 -0.4551
20095SOL     OW62152   0.710   0.780   0.438  0.4361 -0.1627 -0.2838
20095SOL    HW162153   0.741   0.693   0.461 -1.4076 -0.8347 -0.1752
20095SOL    HW262154   0.620   0.767   0.410 -1.6020  2.1753  4.1909
20096SOL     OW62155   8.889   8.776   7.723  0.4013  0.3523 -0.5276
20096SOL    HW162156   8.871   8.686   7.749 -0.5216  0.5389 -0.4857
20096SOL    HW262157   8.958   8.805   7.783 -0.8347  0.3839  0.9383
20097SOL     OW62158   1.266   4.877   4.369  0.3682 -0.0670  0.3744
20097SOL    HW162159   1.358   4.862   4.390  0.2446  0.3062  1.2537
20097SOL    HW262160   1.264   4.965   4.330  0.6110 -0.7998 -1.3647
20098SOL     OW62161   4.002   7.221   3.969 -0.1108  0.4957 -0.1385
20098SOL    HW162162   4.052   7.246   4.047 -1.1888  1.2608  0.3383
20098SOL    HW262163   3.932   7.165   4.003 -0.0119  0.0294 -0.6972
20099SOL     OW62164   7.642   8.010   3.903 -0.1808  0.0497  0.3004
20099SOL    HW162165   7.648   8.103   3.883  1.6193  0.5333  2.5337
20099SOL    HW262166   7.554   7.998   3.939 -0.2475  1.0254  0.4803
20100SOL     OW62167   6.705   6.978   8.607 -0.3128 -0.1553  0.2494
20100SOL    HW162168   6.634   6.980   8.671 -1.1070 -0.0615 -0.6135
20100SOL    HW262169   6.731   7.070   8.598 -1.7882  0.1535 -1.2599
20101SOL     OW62170   3.343   4.741   8.655  0.1042  0.4215 -0.0433
20101SOL    HW162171   3.402   4.693   8.598 -2.6112 -0.0774 -2.6964
20101SOL    HW262172   3.365   4.833   8.640 -0.1018  0.2654 -1.3851
20102SOL     OW62173   4.433   1.203   3.889  0.0539 -0.2158 -0.4632
20102SOL    HW162174   4.473   1.267   3.830 -0.6419  0.8968  0.2180
20102SOL    HW262175   4.347   1.186   3.852 -1.0837  1.7959  1.0384
20103SOL     OW62176   1.130   0.995   2.651  0.2521  0.3823 -0.1277
20103SOL    HW162177   1.181   1.050   2.592  0.0472  1.2066  0.4378
20103SOL    HW262178   1.088   1.057   2.711 -1.0755 -0.2969 -0.3092
20104SOL     OW62179   3.525   6.570   1.721  1.0727  0.2993 -0.3012
20104SOL    HW162180   3.491   6.487   1.755 -0.4309  0.1208 -2.1174
20104SOL    HW262181   3.535   6.625   1.799  0.2125 -0.9293  0.7201
20105SOL     OW62182   8.654   4.617   8.757  0.0398 -0.2844  0.0480
20105SOL    HW162183   8.570   4.580   8.783 -0.1271  0.5265  0.6825
20105SOL    HW262184   8.636   4.661   8.674 -0.2435  0.1709  0.3471
20106SOL     OW62185   6.053   7.995   4.854  0.4511 -0.2501  0.0849
20106SOL    HW162186   6.107   7.973   4.779 -2.1118  2.8140 -2.9810
20106SOL    HW262187   5.968   7.954   4.835 -0.8750  2.2873  0.1053
20107SOL     OW62188   1.544   4.771   5.268  0.1438 -0.0160  0.1560
20107SOL    HW162189   1.619   4.738   5.317  0.6496  1.3851  0.3810
20107SOL    HW262190   1.469   4.722   5.302  1.0037 -1.8820 -0.4997
20108SOL     OW62191   5.868   4.784   0.783 -0.6357  0.1894 -0.3139
20108SOL    HW162192   5.912   4.789   0.868  1.8554 -0.5336 -1.4767
20108SOL    HW262193   5.886   4.695   0.752 -2.7666 -0.0594 -1.0182
20109SOL     OW62194   0.324   7.561   6.136 -0.0731  0.7201  0.1859
20109SOL    HW162195   0.297   7.478   6.097 -0.8250  0.6359  0.8651
20109SOL    HW262196   0.411   7.577   6.100  0.2319 -0.5339  0.3302
20110SOL     OW62197   1.824   0.057   8.174  0.0426 -0.0556  0.2329
20110SOL    HW162198   1.743   0.025   8.214 -0.2873  1.1295  0.5479
20110SOL    HW262199   1.822   0.152   8.187  1.2872  0.0419 -0.1212
20111SOL     OW62200   3.860   8.454   3.211  0.4792 -0.3779  0.3284
20111SOL    HW162201   3.891   8.468   3.121  0.0460 -1.7303 -0.0530
20111SOL    HW262202   3.829   8.540   3.239  0.4585  0.0326 -0.8765
20112SOL     OW62203   2.451   4.068   2.077  0.5001 -0.2173  0.0273
20112SOL    HW162204   2.527   4.086   2.021 -0.1573  1.4626 -0.3732
20112SOL    HW262205   2.488   4.022   2.153  1.9493  0.7261 -0.0716
20113SOL     OW62206   6.806   6.432   6.373  0.0900 -0.0410 -0.4620
20113SOL    HW162207   6.806   6.400   6.463 -1.0397  0.3214 -0.3154
20113SOL    HW262208   6.895   6.464   6.359  0.6346 -1.2411  0.0942
20114SOL     OW62209   0.999   5.074   4.442 -0.0806  0.5717  0.0401
20114SOL    HW162210   0.929   5.021   4.481 -0.9563  0.8603 -1.0902
20114SOL    HW262211   1.056   5.095   4.516 -0.9905  0.0324  0.9335
20115SOL     OW62212   4.063   1.194   4.065  0.0436 -0.8514 -0.6940
20115SOL    HW162213   4.140   1.245   4.090 -0.3267 -0.9613  0.7731
20115SOL    HW262214   4.032   1.156   4.147 -0.7603 -1.9505 -1.4801
20116SOL     OW62215   1.337   7.995   0.042 -0.1095  0.0612  0.0985
20116SOL    HW162216   1.425   7.979   0.007  0.1797  0.7964  0.4711
20116SOL    HW262217   1.336   8.088   0.063 -0.6335 -0.1517  1.0582
20117SOL     OW62218   2.417   1.581   1.099  0.1537 -0.4227  0.3471
20117SOL    HW162219   2.325   1.565   1.079  0.4205  0.1406 -1.6048
20117SOL    HW262220   2.421   1.587   1.194 -1.8628 -0.2101  0.4564
20118SOL     OW62221   1.458   1.238   7.504  0.3184 -0.1954 -0.0385
20118SOL    HW162222   1.473   1.288   7.584  2.8011 -0.4887 -0.2561
20118SOL    HW262223   1.401   1.166   7.532  1.4498 -0.5231  1.5661
20119SOL     OW62224   5.130   8.206   8.045 -0.0128 -0.4442 -0.3151
20119SOL    HW162225   5.071   8.233   7.974  0.0305  0.3902 -0.0509
20119SOL    HW262226   5.209   8.258   8.032 -0.1640  0.0361  0.5800
20120SOL     OW62227   8.776   0.037   0.818  0.2539 -0.2487 -0.6905
20120SOL    HW162228   8.864   0.073   0.823  0.3052 -0.5138  0.6531
20120SOL    HW262229   8.785  -0.044   0.767  1.3801 -1.8755  1.8687
20121SOL     OW62230   6.685   5.748   0.922 -0.3119  0.0239 -0.0209
20121SOL    HW162231   6.680   5.658   0.891  1.4871 -0.2582  0.4200
20121SOL    HW262232   6.774   5.758   0.954 -0.7516  1.6880  0.8171
20122SOL     OW62233   1.740   0.949   7.325 -0.3187  0.1789  0.0923
20122SOL    HW162234   1.744   0.892   7.248 -2.4562 -3.0657  2.1216
20122SOL    HW262235   1.828   0.946   7.362  0.0353 -0.4031 -0.7805
20123SOL     OW62236   1.277   2.079   4.439  0.3659  0.1617  0.1523
20123SOL    HW162237   1.184   2.079   4.461  0.7655  1.9905  2.2814
20123SOL    HW262238   1.309   2.164   4.469  3.0236 -0.9997  0.9605
20124SOL     OW62239   5.980   5.817   0.171  0.0225 -0.0022  0.3005
20124SOL    HW162240   5.929   5.865   0.237  0.4952  1.2651 -0.2335
20124SOL    HW262241   5.913   5.773   0.118 -0.6284  2.1695 -0.8013
20125SOL     OW62242   8.401   5.933   5.379 -0.1784 -0.1502  0.1275
20125SOL    HW162243   8.480   5.901   5.421 -1.0530  1.4489  3.2683
20125SOL    HW262244   8.344   5.856   5.372  1.7052 -1.4608 -2.7455
20126SOL     OW62245   8.200   4.867   6.011 -0.0594 -0.9694  0.1154
20126SOL    HW162246   8.149   4.937   6.053  0.6856  0.8187 -1.8140
20126SOL    HW262247   8.268   4.913   5.962  1.0299 -3.1279 -0.5011
20127SOL     OW62248   3.223   3.359   3.091 -0.0741 -0.0263  0.3523
20127SOL    HW162249   3.175   3.354   3.174  0.2003 -0.4783  0.4916
20127SOL    HW262250   3.222   3.269   3.058  0.5069 -0.0017  0.2611
20128SOL     OW62251   0.852   3.663   7.802 -0.2744 -0.0580 -0.2719
20128SOL    HW162252   0.839   3.661   7.897  0.7770 -0.4535 -0.1246
20128SOL    HW262253   0.800   3.589   7.770 -1.8599  0.9758 -0.1921
20129SOL     OW62254   5.425   0.096   7.446 -0.1803  0.6312  0.5050
20129SOL    HW162255   5.330   0.097   7.441 -0.2080 -0.4745  0.6135
20129SOL    HW262256   5.447   0.176   7.494 -1.0833  0.6296  0.9416
20130SOL     OW62257   3.652   2.327   0.824 -0.4907  0.3809  0.9228
20130SOL    HW162258   3.746   2.315   0.809 -0.8570  0.6387 -2.2602
20130SOL    HW262259   3.613   2.242   0.802 -1.2565  1.2247 -1.1639
20131SOL     OW62260   0.841   4.477   3.267 -0.6788 -0.1325  0.3703
20131SOL    HW162261   0.759   4.519   3.242 -1.6934 -2.3771 -0.3405
20131SOL    HW262262   0.878   4.445   3.184 -0.1487 -0.9611  0.9104
20132SOL     OW62263   4.374   0.351   7.432 -0.0748 -0.9379 -0.3393
20132SOL    HW162264   4.462   0.388   7.429 -0.5571  0.3396  0.4181
20132SOL    HW262265   4.366   0.300   7.352  1.3745 -1.1375 -0.3778
20133SOL     OW62266   3.905   5.594   4.117 -0.3292 -0.5900 -0.0497
20133SOL    HW162267   3.947   5.510   4.101  0.8414 -0.3679  1.6022
20133SOL    HW262268   3.939   5.652   4.048  0.2884 -1.0019 -0.0922
20134SOL     OW62269   7.118   3.884   1.799  0.3668  0.1379  0.1127
20134SOL    HW162270   7.184   3.835   1.848 -0.4524 -1.5043 -0.3860
20134SOL    HW262271   7.042   3.827   1.796 -0.3126  1.0525 -1.3075
20135SOL     OW62272   2.665   0.121   4.322  0.2415 -0.2172 -0.1980
20135SOL    HW162273   2.693   0.181   4.253 -1.3022  0.3248 -0.3807
20135SOL    HW262274   2.742   0.112   4.379  0.8382  1.0574 -0.7734
20136SOL     OW62275   6.423   8.023   1.847  0.3449 -0.3439 -0.0730
20136SOL    HW162276   6.404   8.116   1.858 -2.0128 -0.8027  0.3737
20136SOL    HW262277   6.367   7.980   1.912 -0.0027 -2.1463 -1.4960
20137SOL     OW62278   3.736   8.949   0.419 -0.3849 -0.6259  0.7635
20137SOL    HW162279   3.740   8.872   0.363 -2.1847  0.3331 -0.7837
20137SOL    HW262280   3.705   9.020   0.362 -2.5770  0.3588  2.9444
20138SOL     OW62281   8.297   3.952   8.822 -0.6690  0.4799 -0.0473
20138SOL    HW162282   8.335   3.900   8.892  1.3815  2.6243  0.5683
20138SOL    HW262283   8.353   3.936   8.746 -0.2895  1.3706  0.0242
20139SOL     OW62284   8.820   2.923   3.070  0.2928 -0.0831  0.2383
20139SOL    HW162285   8.746   2.868   3.044  1.8117 -2.0528 -0.1005
20139SOL    HW262286   8.800   3.009   3.032 -1.1243 -0.9407 -1.0887
20140SOL     OW62287   2.244   5.196   1.664  0.0343 -0.1713  0.1616
20140SOL    HW162288   2.292   5.172   1.585 -0.4132  0.3918 -0.2945
20140SOL    HW262289   2.222   5.289   1.652  0.7333  0.1779  1.3549
20141SOL     OW62290   2.758   4.421   0.874 -0.4823  0.4148 -0.2603
20141SOL    HW162291   2.808   4.346   0.840 -0.8979 -0.2917  0.6664
20141SOL    HW262292   2.667   4.395   0.865 -0.6880  1.3751 -1.1740
20142SOL     OW62293   2.826   3.802   7.137  0.3628 -0.2106 -0.5990
20142SOL    HW162294   2.844   3.806   7.231  0.7371  0.0038 -0.6810
20142SOL    HW262295   2.758   3.868   7.124  0.1357 -0.4097 -0.4399
20143SOL     OW62296   7.993   8.261   5.569 -0.3701 -0.1658 -0.1196
20143SOL    HW162297   7.997   8.214   5.486 -1.5897  1.3221 -1.0763
20143SOL    HW262298   7.966   8.195   5.633 -0.3851 -1.1209 -1.0836
20144SOL     OW62299   3.076   4.210   8.207  0.1699  0.0191 -0.1197
20144SOL    HW162300   3.077   4.306   8.201 -1.2268 -0.0083 -1.2157
20144SOL    HW262301   3.063   4.192   8.300 -0.4838  0.9122 -0.0315
20145SOL     OW62302   6.458   5.496   0.557 -0.3025 -0.0714 -0.3452
20145SOL    HW162303   6.384   5.436   0.552  0.0667 -0.4246 -2.9516
20145SOL    HW262304   6.439   5.563   0.492  0.7539  0.9176  0.3371
20146SOL     OW62305   6.087   5.510   7.572 -0.4057 -0.1901  0.0691
20146SOL    HW162306   6.087   5.506   7.476 -0.4023  2.3221 -0.1258
20146SOL    HW262307   6.100   5.420   7.601 -2.3985 -1.3138 -2.2611
20147SOL     OW62308   3.671   8.841   4.817 -0.3385 -0.2945 -0.8887
20147SOL    HW162309   3.711   8.926   4.834  0.5063 -1.1085  1.6025
20147SOL    HW262310   3.597   8.837   4.876 -0.1011 -1.4570 -0.6547
20148SOL     OW62311   8.440   5.123   2.700 -0.2916 -0.1334 -0.1611
20148SOL    HW162312   8.439   5.040   2.747 -0.6966 -0.6980 -1.1597
20148SOL    HW262313   8.530   5.131   2.667 -0.2025 -0.0740  0.0909
20149SOL     OW62314   6.167   7.042   5.457 -0.2337 -0.4800 -0.1874
20149SOL    HW162315   6.257   7.015   5.438 -0.2772 -0.3029 -0.6659
20149SOL    HW262316   6.128   7.057   5.371 -0.8259 -0.8805  0.0007
20150SOL     OW62317   2.973   1.834   4.449  0.0903 -0.9110  0.3764
20150SOL    HW162318   2.878   1.831   4.457  0.0647 -0.8233  0.0965
20150SOL    HW262319   3.004   1.822   4.539 -0.2027  0.0132  0.6146
20151SOL     OW62320   2.235   7.487   2.999  0.5023 -0.3110  0.8600
20151SOL    HW162321   2.300   7.427   3.034  0.4773 -2.0044 -1.6943
20151SOL    HW262322   2.285   7.546   2.942  0.0309 -0.7597 -0.0500
20152SOL     OW62323   7.583   2.405   8.922 -0.3303  0.0746 -0.0446
20152SOL    HW162324   7.631   2.436   8.845  0.9313  0.7459  0.9720
20152SOL    HW262325   7.631   2.327   8.950  1.0267  1.4396  1.7064
20153SOL     OW62326   2.732   4.441   7.063  0.4389  0.4629  0.0170
20153SOL    HW162327   2.739   4.489   7.145 -0.7389  0.5166  0.0955
20153SOL    HW262328   2.751   4.506   6.995  0.7871  0.5615  0.2031
20154SOL     OW62329   8.447   7.188   3.341 -0.4154  0.6784 -0.1195
20154SOL    HW162330   8.397   7.123   3.292  0.7220  0.3730 -0.9191
20154SOL    HW262331   8.446   7.266   3.286 -0.4047  0.8110  0.0686
20155SOL     OW62332   1.199   3.815   7.244 -0.0046 -0.7053 -0.5969
20155SOL    HW162333   1.223   3.877   7.174 -1.7971 -0.2830 -0.8967
20155SOL    HW262334   1.161   3.870   7.312  1.3385 -1.1651  0.5753
20156SOL     OW62335   1.135   0.696   5.323  0.2819 -0.3482 -0.0614
20156SOL    HW162336   1.159   0.604   5.315 -0.1950 -0.5886  1.0514
20156SOL    HW262337   1.161   0.720   5.412 -1.2784  0.0535  0.3255
20157SOL     OW62338   8.919   0.209   1.782 -0.1226 -0.0743  0.4591
20157SOL    HW162339   8.867   0.128   1.790 -0.5123  0.3494  2.9009
20157SOL    HW262340   9.004   0.187   1.820 -0.0616  0.5128  0.6728
20158SOL     OW62341   4.208   4.603   3.197 -0.0092  0.1323  0.1225
20158SOL    HW162342   4.187   4.610   3.103 -0.2422  1.1031  0.2397
20158SOL    HW262343   4.145   4.661   3.240  0.2047 -0.1844  0.8724
20159SOL     OW62344   0.815   1.434   3.080 -0.8728  0.1544 -0.0603
20159SOL    HW162345   0.876   1.503   3.055  1.1944 -1.5078  0.0887
20159SOL    HW262346   0.785   1.396   2.998  1.5948 -1.6727 -0.2495
20160SOL     OW62347   4.875   1.659   2.285  0.3785  0.2593 -0.3193
20160SOL    HW162348   4.797   1.618   2.246 -0.0158  2.0002 -1.5377
20160SOL    HW262349   4.910   1.594   2.345  0.3123 -2.1730 -2.7256
20161SOL     OW62350   4.076   3.404   6.965 -0.0608 -0.1971  0.2477
20161SOL    HW162351   4.027   3.476   7.006 -0.9873  0.2580 -1.5494
20161SOL    HW262352   4.008   3.341   6.938  0.7349 -1.8357  1.8620
20162SOL     OW62353   0.615   3.459   8.751  0.1427 -0.1519 -0.3052
20162SOL    HW162354   0.579   3.394   8.691  0.3941 -0.5538 -0.0169
20162SOL    HW262355   0.549   3.529   8.753  0.0361 -0.2314 -0.8848
20163SOL     OW62356   0.695   8.721   1.687 -0.1041  0.0466  0.2291
20163SOL    HW162357   0.685   8.816   1.691  0.5106  0.1723 -0.8340
20163SOL    HW262358   0.720   8.696   1.776  0.9086  1.0382  0.2423
20164SOL     OW62359   8.239   0.176   2.107  0.1427  0.2616 -0.0096
20164SOL    HW162360   8.311   0.171   2.169 -0.6829 -0.9212  0.8861
20164SOL    HW262361   8.242   0.266   2.074  0.8086  0.8078  1.4748
20165SOL     OW62362   1.221   6.633   0.750  0.6472 -0.0159  0.3547
20165SOL    HW162363   1.276   6.581   0.809  1.0949 -0.3764 -0.3704
20165SOL    HW262364   1.276   6.648   0.673  0.5862  1.6806  0.6126
20166SOL     OW62365   4.925   6.366   5.924 -0.3789 -0.2178  0.4875
20166SOL    HW162366   4.845   6.373   5.975 -0.3618 -1.4121  0.6986
20166SOL    HW262367   4.953   6.457   5.911 -0.7873  0.1440  1.9469
20167SOL     OW62368   4.011   1.505   0.319 -0.0771  0.2916  0.7324
20167SOL    HW162369   4.032   1.418   0.286  0.8044  0.5030  0.7244
20167SOL    HW262370   4.076   1.522   0.387 -0.9045  0.5094  1.4934
20168SOL     OW62371   1.509   8.090   6.816 -0.1361  0.4358 -0.4225
20168SOL    HW162372   1.492   8.088   6.910 -0.4558  1.1277 -0.4632
20168SOL    HW262373   1.599   8.121   6.809  1.0135 -2.5122 -0.2388
20169SOL     OW62374   0.471   3.212   7.748 -0.8404  0.4914  0.3305
20169SOL    HW162375   0.468   3.148   7.818 -0.8922  2.3074  2.0706
20169SOL    HW262376   0.556   3.198   7.706 -0.5536 -0.2178  1.1366
20170SOL     OW62377   7.169   2.775   2.726  0.3942  0.1556  0.0574
20170SOL    HW162378   7.249   2.807   2.684  0.8317  0.7420  1.2779
20170SOL    HW262379   7.101   2.788   2.661  0.9408  1.6088 -0.2594
20171SOL     OW62380   8.181   7.363   3.311  0.7663 -0.3885  0.1568
20171SOL    HW162381   8.164   7.345   3.404  0.8698  1.2492  0.5218
20171SOL    HW262382   8.095   7.354   3.269  0.3958  0.4191  0.7034
20172SOL     OW62383   5.750   7.076   1.767  0.0281 -0.7031  0.2841
20172SOL    HW162384   5.680   7.056   1.704  0.1390  0.8020 -0.3704
20172SOL    HW262385   5.712   7.054   1.852 -1.1127 -0.3348 -0.0954
20173SOL     OW62386   4.907   8.997   3.086  0.2315  0.3518 -0.2848
20173SOL    HW162387   4.824   9.041   3.103  0.0017  0.1482 -0.8610
20173SOL    HW262388   4.954   9.057   3.028  0.0427 -0.0160 -0.8238
20174SOL     OW62389   1.319   8.214   7.412  0.0487  0.0957 -0.4426
20174SOL    HW162390   1.252   8.283   7.406 -0.5235 -0.4476 -0.4254
20174SOL    HW262391   1.269   8.133   7.419  0.7178 -0.3465 -0.7012
20175SOL     OW62392   3.932   4.934   2.529  0.5481  0.5827  0.2906
20175SOL    HW162393   3.985   5.013   2.537 -0.6310  1.2620  1.7141
20175SOL    HW262394   3.976   4.869   2.583  0.8805  0.5997  0.0455
20176SOL     OW62395   2.257   4.806   1.134 -0.0839  0.1034  0.1687
20176SOL    HW162396   2.341   4.852   1.126  0.9465 -0.9282  3.4339
20176SOL    HW262397   2.212   4.852   1.205 -1.6426 -0.3109 -0.5141
20177SOL     OW62398   7.267   6.457   5.879 -0.0741  0.1442  0.1710
20177SOL    HW162399   7.326   6.527   5.906 -2.4598  2.0897  0.5866
20177SOL    HW262400   7.246   6.411   5.960 -1.9938  1.8131  0.6865
20178SOL     OW62401   2.487   2.240   1.531  0.1569 -0.0813 -0.7587
20178SOL    HW162402   2.506   2.147   1.518  0.5261 -0.3561  1.3137
20178SOL    HW262403   2.548   2.268   1.600 -0.5193  1.4738 -0.7431
20179SOL     OW62404   8.561   4.210   3.463 -0.0050 -0.6320 -0.0999
20179SOL    HW162405   8.471   4.189   3.439  0.1677  0.9774 -2.5046
20179SOL    HW262406   8.610   4.201   3.381  1.5024  1.0915  0.5542
20180SOL     OW62407   0.203   2.888   3.454  0.0930  0.7077  0.5840
20180SOL    HW162408   0.180   2.952   3.522  0.3802  2.1675 -0.6331
20180SOL    HW262409   0.285   2.921   3.417  0.3195 -0.4573  0.0141
20181SOL     OW62410   7.007   6.468   4.831  0.1487 -0.5263  0.5676
20181SOL    HW162411   6.912   6.483   4.837  0.3798  1.2373  0.3656
20181SOL    HW262412   7.026   6.473   4.737  0.0776 -3.6720  0.3058
20182SOL     OW62413   5.289   5.105   3.759  0.0035  0.1963 -0.1489
20182SOL    HW162414   5.340   5.178   3.794 -1.0126  0.8577 -0.0004
20182SOL    HW262415   5.229   5.145   3.696 -1.4840 -0.2867  0.8979
20183SOL     OW62416   3.830   5.151   6.972  0.1340 -0.1574  0.4069
20183SOL    HW162417   3.779   5.212   6.918 -1.6563  0.7544  2.9418
20183SOL    HW262418   3.914   5.144   6.927 -0.5992  1.9431 -1.5002
20184SOL     OW62419   3.132   5.534   2.509 -0.4194  0.2293  0.5296
20184SOL    HW162420   3.216   5.546   2.554 -0.1159  0.3808 -0.0608
20184SOL    HW262421   3.156   5.494   2.425 -0.9923 -0.2295  0.5857
20185SOL     OW62422   1.606   3.053   4.859  0.1695  0.4725 -0.0191
20185SOL    HW162423   1.609   3.148   4.850  0.1514  0.6524  1.5337
20185SOL    HW262424   1.628   3.019   4.772  0.3531  1.8914 -0.5435
20186SOL     OW62425   8.160   6.201   0.047  0.5008  0.1575  0.6709
20186SOL    HW162426   8.121   6.287   0.032 -0.1797 -0.2727 -0.1250
20186SOL    HW262427   8.206   6.210   0.131  1.0481  1.4972  0.2583
20187SOL     OW62428   4.707   2.265   1.595 -0.3542  0.6225 -0.4989
20187SOL    HW162429   4.765   2.252   1.520  1.3128  2.2598  0.4296
20187SOL    HW262430   4.718   2.357   1.619 -3.9688  1.2745 -0.7189
20188SOL     OW62431   7.793   5.678   8.539  0.5806 -0.2325 -0.1214
20188SOL    HW162432   7.756   5.610   8.483  1.5482 -0.3011 -0.6875
20188SOL    HW262433   7.723   5.697   8.602 -0.3382 -0.5196 -1.0184
20189SOL     OW62434   2.704   8.090   7.441  0.1341  0.4220  0.4398
20189SOL    HW162435   2.673   8.148   7.372 -0.0130  0.1351  0.2662
20189SOL    HW262436   2.779   8.044   7.402 -0.9619 -0.9569 -0.0977
20190SOL     OW62437   8.638   1.571   6.649  0.3190 -0.3788  0.4791
20190SOL    HW162438   8.586   1.635   6.698  0.7191 -0.0294  0.4516
20190SOL    HW262439   8.704   1.623   6.603 -1.0682 -0.4952 -1.8033
20191SOL     OW62440   6.093   7.259   6.464  0.2949 -0.3540  0.3483
20191SOL    HW162441   6.045   7.228   6.541 -0.7752  0.0020 -0.1552
20191SOL    HW262442   6.053   7.344   6.445  3.7354  1.9151  2.2441
20192SOL     OW62443   8.287   8.125   0.664  0.4496  0.0304  0.0841
20192SOL    HW162444   8.359   8.069   0.693  0.4011 -1.8054 -2.9177
20192SOL    HW262445   8.329   8.191   0.609  0.0359  0.2794  0.0673
20193SOL     OW62446   8.543   8.301   5.761 -0.5384  0.5036 -0.3619
20193SOL    HW162447   8.524   8.268   5.849 -0.4570  0.1106 -0.4918
20193SOL    HW262448   8.550   8.396   5.772  0.1115  0.4029  0.1772
20194SOL     OW62449   3.717   5.389   5.699  0.2337 -0.1879  0.3038
20194SOL    HW162450   3.691   5.314   5.751  0.1676  0.5681  1.3984
20194SOL    HW262451   3.760   5.448   5.761 -1.3110  1.4798 -0.0962
20195SOL     OW62452   0.089   3.168   7.912  0.7665  0.0037 -0.0323
20195SOL    HW162453   0.165   3.180   7.968 -0.2541  0.8146  1.2533
20195SOL    HW262454   0.014   3.175   7.972 -0.3415 -0.1213 -1.3480
20196SOL     OW62455   6.286   7.116   2.785 -0.0717 -0.2264  0.2188
20196SOL    HW162456   6.244   7.063   2.717 -2.0727 -1.1387  2.0508
20196SOL    HW262457   6.347   7.056   2.828 -0.5244 -0.3600  0.6945
20197SOL     OW62458   4.251   0.975   3.127 -0.0342  0.3527  0.4825
20197SOL    HW162459   4.228   0.893   3.169  1.3095  0.1253  0.8361
20197SOL    HW262460   4.179   0.994   3.068  0.2929 -1.8434 -0.7113
20198SOL     OW62461   5.067   1.327   0.250  0.2489  0.4617  1.2788
20198SOL    HW162462   5.053   1.257   0.313  0.9397 -0.4235  0.4641
20198SOL    HW262463   5.136   1.295   0.192 -1.5137  0.5290 -0.9939
20199SOL     OW62464   1.784   6.254   4.213 -0.1223 -0.3231 -0.0194
20199SOL    HW162465   1.820   6.331   4.257 -0.9827  0.2630 -0.3101
20199SOL    HW262466   1.750   6.200   4.283  0.4573 -0.4317  0.1861
20200SOL     OW62467   6.768   6.375   1.513 -0.4060 -0.4712 -0.2623
20200SOL    HW162468   6.695   6.344   1.460  0.0551 -1.0480 -0.5727
20200SOL    HW262469   6.765   6.321   1.591 -0.9371  0.2153  0.2058
20201SOL     OW62470   5.785   6.529   5.159  0.3761  0.0081 -0.6269
20201SOL    HW162471   5.721   6.489   5.099 -0.7975 -2.8991  2.2568
20201SOL    HW262472   5.734   6.593   5.208  0.5283  0.0890 -0.5742
20202SOL     OW62473   0.898   1.857   4.696 -0.3530  0.0038 -0.3787
20202SOL    HW162474   0.875   1.823   4.610  2.4319 -0.6394 -0.9709
20202SOL    HW262475   0.815   1.887   4.733 -2.4471 -3.8047 -1.3981
20203SOL     OW62476   5.157   1.819   0.629  0.2512 -0.3008 -0.5512
20203SOL    HW162477   5.233   1.774   0.593 -0.1097 -1.1138 -0.3314
20203SOL    HW262478   5.100   1.834   0.554 -0.4283 -1.8515 -0.3989
20204SOL     OW62479   8.299   0.034   8.905  0.2888 -0.3280  0.3309
20204SOL    HW162480   8.304   0.073   8.992  2.7513  1.2952 -0.4243
20204SOL    HW262481   8.217   0.069   8.869  0.3155  0.7451  1.2353
20205SOL     OW62482   2.567   1.892   2.089  0.5127  0.0308 -0.1308
20205SOL    HW162483   2.548   1.943   2.168  1.5878 -0.0949  0.2335
20205SOL    HW262484   2.627   1.824   2.119 -0.8195 -1.4173 -0.6299
20206SOL     OW62485   8.410   6.144   0.609 -0.5608 -0.0171 -0.3356
20206SOL    HW162486   8.405   6.209   0.680 -1.1496 -0.0329 -0.3547
20206SOL    HW262487   8.332   6.090   0.622  0.7804 -1.8011  0.7065
20207SOL     OW62488   0.339   0.165   1.810 -0.3473 -0.0354 -0.0231
20207SOL    HW162489   0.308   0.159   1.900  0.9597 -5.6655  0.4295
20207SOL    HW262490   0.272   0.119   1.759  1.1761 -1.2608 -1.0157
20208SOL     OW62491   1.574   6.384   7.110 -0.4565 -0.1990 -0.5160
20208SOL    HW162492   1.634   6.319   7.145 -0.1704 -0.2033 -1.0002
20208SOL    HW262493   1.487   6.348   7.124 -0.2910 -0.8247 -1.0441
20209SOL     OW62494   4.838   7.109   1.844 -0.2307 -0.2882 -0.1238
20209SOL    HW162495   4.855   7.038   1.906 -0.2897 -0.7952 -0.6748
20209SOL    HW262496   4.908   7.172   1.859 -0.2791 -0.3783  0.4950
20210SOL     OW62497   2.652   4.033   4.248 -0.0369 -0.0838  0.2779
20210SOL    HW162498   2.596   4.094   4.297 -0.6123 -0.6890  0.3978
20210SOL    HW262499   2.612   4.029   4.161  0.1999 -0.0354  0.1665
20211SOL     OW62500   1.252   4.108   0.527 -0.0165 -0.4262  0.4443
20211SOL    HW162501   1.237   4.203   0.527 -4.4186 -0.9201 -0.7846
20211SOL    HW262502   1.237   4.082   0.436 -0.8940 -2.5144  1.1348
20212SOL     OW62503   1.431   2.458   0.911 -0.7306  0.3725  0.1236
20212SOL    HW162504   1.466   2.454   1.000  1.6742 -0.4905 -0.7899
20212SOL    HW262505   1.411   2.550   0.897  1.9583  1.0842  0.4937
20213SOL     OW62506   6.630   4.975   2.240  0.2202  0.0533 -0.5724
20213SOL    HW162507   6.561   4.992   2.175 -1.1116 -1.3474  0.4184
20213SOL    HW262508   6.701   4.935   2.190  0.6595  2.1081 -1.7265
20214SOL     OW62509   5.461   2.950   5.512 -0.2377  0.3541  0.0593
20214SOL    HW162510   5.399   3.021   5.491 -1.8452 -0.9892 -0.0059
20214SOL    HW262511   5.464   2.898   5.431  0.3795 -0.0324  0.3316
20215SOL     OW62512   2.504   8.309   2.939  0.1011  0.3733  0.1671
20215SOL    HW162513   2.582   8.354   2.971  0.3051  1.2406 -1.4343
20215SOL    HW262514   2.511   8.315   2.843 -2.2516  1.0403 -0.0179
20216SOL     OW62515   1.987   3.680   1.221  0.0315 -0.1818  0.4281
20216SOL    HW162516   1.904   3.655   1.262 -0.1616  1.0604  0.8470
20216SOL    HW262517   2.038   3.599   1.220 -1.1504 -0.9538  0.2262
20217SOL     OW62518   4.318   4.497   8.696 -0.5246  0.2104 -0.3736
20217SOL    HW162519   4.308   4.455   8.781 -0.8256 -0.1630 -0.5932
20217SOL    HW262520   4.405   4.536   8.699 -0.5469  0.2333  0.1202
20218SOL     OW62521   7.456   5.218   6.684 -0.1094  0.1828 -0.2254
20218SOL    HW162522   7.543   5.251   6.707 -0.5721  0.1115  1.7426
20218SOL    HW262523   7.464   5.123   6.690 -0.3338  0.1791  0.0187
20219SOL     OW62524   8.068   0.003   7.827  0.0520  0.1273 -0.0957
20219SOL    HW162525   7.981  -0.026   7.802 -0.1042  0.0728  0.4891
20219SOL    HW262526   8.080   0.087   7.784  1.0734 -1.3803 -3.0221
20220SOL     OW62527   6.036   8.210   0.258 -0.3519  0.1880  1.0481
20220SOL    HW162528   5.984   8.274   0.210  0.7789  1.3462  1.3045
20220SOL    HW262529   6.117   8.203   0.208 -0.7047 -1.5898  0.6487
20221SOL     OW62530   1.187   5.565   1.759 -0.6026  0.7335  0.0769
20221SOL    HW162531   1.126   5.586   1.687  0.3216  0.1927 -0.8913
20221SOL    HW262532   1.266   5.614   1.738  0.2832 -0.7709 -0.2318
20222SOL     OW62533   0.660   1.488   6.482 -0.2472 -0.0960 -0.3077
20222SOL    HW162534   0.712   1.556   6.525 -1.8424  0.2725  1.1079
20222SOL    HW262535   0.614   1.444   6.553 -1.9464 -0.3567 -1.5210
20223SOL     OW62536   6.266   6.180   1.456 -0.4977  0.1028 -0.2238
20223SOL    HW162537   6.180   6.221   1.449 -0.9671 -0.9314 -0.6566
20223SOL    HW262538   6.327   6.254   1.467 -1.3405  0.8913 -0.7241
20224SOL     OW62539   6.630   4.287   7.898  0.0924 -0.1173 -0.0537
20224SOL    HW162540   6.677   4.209   7.869  1.6284  0.6644  0.1768
20224SOL    HW262541   6.615   4.337   7.817  1.4008  0.5062  0.0540
20225SOL     OW62542   5.970   4.082   5.792 -0.0607  0.5564 -0.0894
20225SOL    HW162543   6.011   4.165   5.769 -0.2619  0.8464  0.5979
20225SOL    HW262544   5.879   4.092   5.766 -0.0061  0.4152 -0.3405
20226SOL     OW62545   6.535   2.205   5.878 -0.0440 -0.1913  0.1946
20226SOL    HW162546   6.515   2.187   5.970  1.5396  0.6990  0.7424
20226SOL    HW262547   6.512   2.297   5.866  3.4824  0.9298  0.8850
20227SOL     OW62548   1.749   1.664   6.270 -0.4074  0.0423 -0.2347
20227SOL    HW162549   1.667   1.667   6.319  1.0350  0.8236  2.3471
20227SOL    HW262550   1.793   1.586   6.303  0.8833  0.9362  0.2318
20228SOL     OW62551   6.245   1.505   7.339  0.0658  0.0119  0.6681
20228SOL    HW162552   6.204   1.440   7.396  0.1806 -0.6450  0.0108
20228SOL    HW262553   6.339   1.492   7.351  0.0889 -0.0635  0.3920
20229SOL     OW62554   6.361   5.231   7.268 -0.2162  0.9861 -0.2145
20229SOL    HW162555   6.402   5.145   7.268 -2.8431 -0.4950  2.7598
20229SOL    HW262556   6.403   5.277   7.341 -1.3408  0.7341  0.6233
20230SOL     OW62557   0.729   1.204   5.490 -0.1513  0.5502 -0.5837
20230SOL    HW162558   0.674   1.177   5.416  0.7036 -0.9030 -0.7304
20230SOL    HW262559   0.818   1.186   5.461  0.1556 -1.0204  1.1616
20231SOL     OW62560   2.953   0.444   7.210  0.2470  0.5666  0.4845
20231SOL    HW162561   2.942   0.350   7.227  0.7228  0.6169  1.0870
20231SOL    HW262562   2.863   0.477   7.206  0.0879  0.3039  1.5390
20232SOL     OW62563   6.647   8.325   7.891 -0.6396 -0.8980 -0.2178
20232SOL    HW162564   6.599   8.245   7.873 -2.1451  0.2479 -1.6668
20232SOL    HW262565   6.666   8.321   7.985 -0.3971 -3.0477 -0.3103
20233SOL     OW62566   8.983   7.956   8.572 -0.7546 -0.0659  0.1790
20233SOL    HW162567   8.918   8.023   8.555 -1.0372  0.3545  2.5209
20233SOL    HW262568   8.936   7.889   8.622  0.4258 -0.0563  1.3729
20234SOL     OW62569   0.286   3.607   2.333 -0.2645 -0.4149 -0.1355
20234SOL    HW162570   0.250   3.527   2.294 -0.1214 -1.2017  1.2805
20234SOL    HW262571   0.380   3.603   2.313 -0.3585 -0.2695 -0.6158
20235SOL     OW62572   3.644   0.602   5.363 -0.2796 -0.3739 -0.2634
20235SOL    HW162573   3.606   0.515   5.362 -0.8159 -0.1468 -1.0531
20235SOL    HW262574   3.715   0.597   5.427 -1.0682 -1.0483  0.5768
20236SOL     OW62575   3.266   7.612   7.153 -0.5862  0.4046 -0.0199
20236SOL    HW162576   3.298   7.558   7.081  0.7353 -0.0027  0.8414
20236SOL    HW262577   3.273   7.702   7.120 -1.6396  0.1532 -1.0102
20237SOL     OW62578   0.677   5.943   1.365  0.0954  0.3039 -0.0906
20237SOL    HW162579   0.688   5.964   1.458 -1.7966 -1.2156  0.5179
20237SOL    HW262580   0.684   6.028   1.321 -1.6764  1.4656  1.7145
20238SOL     OW62581   7.818   3.856   0.310 -0.1313 -0.0695 -0.1822
20238SOL    HW162582   7.839   3.763   0.296  3.7608  0.6169  0.0765
20238SOL    HW262583   7.797   3.862   0.403 -1.4996 -0.7743 -0.4081
20239SOL     OW62584   4.104   0.212   2.098 -0.3810  0.0248 -0.4318
20239SOL    HW162585   4.049   0.169   2.163 -2.7135  2.0569 -0.8931
20239SOL    HW262586   4.159   0.272   2.149  1.1364 -1.6248 -0.0203
20240SOL     OW62587   1.467   6.401   6.862  0.2469 -0.6621  0.2816
20240SOL    HW162588   1.535   6.396   6.929  1.0942 -1.2459 -0.5885
20240SOL    HW262589   1.470   6.316   6.818 -1.1513 -0.7561  0.2973
20241SOL     OW62590   1.243   8.497   7.200  0.1864 -0.9057  0.1266
20241SOL    HW162591   1.224   8.424   7.259 -0.5947  0.3129  1.4404
20241SOL    HW262592   1.160   8.546   7.195  0.8718  0.2509 -0.1885
20242SOL     OW62593   0.559   2.573   5.146 -0.6286  0.0144 -0.0801
20242SOL    HW162594   0.566   2.666   5.166 -1.0594 -0.1125  0.7051
20242SOL    HW262595   0.647   2.539   5.162 -0.6486  0.1587  0.3521
20243SOL     OW62596   5.595   0.057   1.622 -0.4118 -0.0132 -0.1610
20243SOL    HW162597   5.618   0.142   1.660  0.4152  0.6723 -2.0717
20243SOL    HW262598   5.533   0.078   1.553 -0.0835 -0.9341 -0.7577
20244SOL     OW62599   7.311   5.338   3.183 -0.1010  0.6042 -0.5736
20244SOL    HW162600   7.329   5.270   3.118 -1.7010  0.1857 -0.6034
20244SOL    HW262601   7.243   5.392   3.143  1.5201  2.5966 -0.7810
20245SOL     OW62602   2.889   6.480   1.538  0.3211 -0.6374 -0.0074
20245SOL    HW162603   2.881   6.560   1.591  0.5961 -0.5304 -0.1277
20245SOL    HW262604   2.850   6.412   1.593  1.6298 -0.7487  0.8153
20246SOL     OW62605   0.249   3.640   4.238  0.0479  0.0517 -0.0771
20246SOL    HW162606   0.274   3.559   4.282  0.0756 -0.0718 -0.3215
20246SOL    HW262607   0.303   3.643   4.159  0.8297  0.8488  0.4758
20247SOL     OW62608   0.823   3.706   5.881  0.0563 -0.5436 -0.1602
20247SOL    HW162609   0.913   3.710   5.849  0.3423  1.5252  0.7341
20247SOL    HW262610   0.830   3.732   5.973 -1.0543 -3.7784  0.9695
20248SOL     OW62611   2.987   3.031   5.090  0.0212 -0.9879  0.8312
20248SOL    HW162612   2.995   3.059   4.998  0.2299 -0.3732  1.0324
20248SOL    HW262613   3.007   2.937   5.088 -0.9227 -1.1847  0.1131
20249SOL     OW62614   5.772   8.378   6.242 -0.3438 -0.7222  0.0931
20249SOL    HW162615   5.851   8.422   6.274 -1.2375  2.1905 -1.3002
20249SOL    HW262616   5.746   8.320   6.314  1.6016  0.2079  1.6534
20250SOL     OW62617   2.202   8.964   4.972 -0.3241  0.0865  0.3216
20250SOL    HW162618   2.109   8.964   4.949 -0.4811  0.2791  0.9442
20250SOL    HW262619   2.207   9.010   5.055  0.6710  2.6166 -1.0385
20251SOL     OW62620   0.115   2.948   8.631  0.3378  0.4166  0.1377
20251SOL    HW162621   0.191   3.003   8.611 -0.5561  2.1415  1.2258
20251SOL    HW262622   0.041   2.992   8.590 -0.2774 -0.5006  0.2222
20252SOL     OW62623   5.711   8.228   6.015 -0.1721  0.2887 -0.2757
20252SOL    HW162624   5.784   8.175   5.984 -0.9219 -2.4551  2.1791
20252SOL    HW262625   5.746   8.275   6.091 -0.8297 -0.9207  0.8170
20253SOL     OW62626   7.167   6.084   6.413  0.1623  0.5054 -0.9792
20253SOL    HW162627   7.109   6.011   6.436 -0.0381  0.5621 -1.2989
20253SOL    HW262628   7.136   6.112   6.327  1.2542 -0.0623 -1.5762
20254SOL     OW62629   6.757   1.779   5.691  0.0269 -0.2597  0.0668
20254SOL    HW162630   6.719   1.805   5.775  1.1258  0.4498  0.3614
20254SOL    HW262631   6.834   1.727   5.715  1.1996  1.1592 -0.4462
20255SOL     OW62632   6.709   7.097   7.239  0.0164 -0.0545  0.1113
20255SOL    HW162633   6.785   7.043   7.220  0.8600  0.8286  0.9135
20255SOL    HW262634   6.684   7.075   7.329  1.7634  2.4243  1.3194
20256SOL     OW62635   4.645   5.020   5.448  0.6834  0.2534  0.9189
20256SOL    HW162636   4.581   4.950   5.460  0.9315 -0.1137  0.1963
20256SOL    HW262637   4.613   5.092   5.502  0.5554 -0.4986  1.8698
20257SOL     OW62638   2.379   2.781   4.800 -0.1605 -0.0966  0.1195
20257SOL    HW162639   2.404   2.691   4.780  0.0861 -0.1831  0.7749
20257SOL    HW262640   2.399   2.830   4.720  2.5529 -0.0921  0.6853
20258SOL     OW62641   4.890   2.143   2.743 -0.2176  0.0084  0.1115
20258SOL    HW162642   4.888   2.173   2.653  0.1016  0.0974  0.1338
20258SOL    HW262643   4.887   2.223   2.796  0.0718 -0.0222  0.1750
20259SOL     OW62644   0.980   1.401   5.771  0.7702 -0.4407 -0.0668
20259SOL    HW162645   1.032   1.321   5.776  1.6031  0.1585  1.7590
20259SOL    HW262646   1.040   1.467   5.738  1.0782  0.1505  1.6050
20260SOL     OW62647   8.391   0.400   5.701  0.2942  0.4778 -0.0337
20260SOL    HW162648   8.380   0.483   5.748 -0.6481  0.5907 -0.4249
20260SOL    HW262649   8.321   0.344   5.735 -0.6209  0.6683 -1.5034
20261SOL     OW62650   6.814   7.435   0.170 -0.0324 -0.2157  0.2032
20261SOL    HW162651   6.862   7.357   0.141  1.4301  0.5517  0.5366
20261SOL    HW262652   6.856   7.508   0.125 -0.9130  0.4827  0.4838
20262SOL     OW62653   3.681   0.697   2.901  0.5493  0.4237 -0.2321
20262SOL    HW162654   3.704   0.760   2.970  0.7672  0.5331 -0.4020
20262SOL    HW262655   3.594   0.725   2.871  0.6775  0.6933 -0.3585
20263SOL     OW62656   5.415   8.112   2.424  0.2542 -0.3398 -0.0633
20263SOL    HW162657   5.453   8.143   2.342  1.3464  0.3567  0.6775
20263SOL    HW262658   5.322   8.134   2.418  0.1066 -1.2314 -1.5257
20264SOL     OW62659   0.216   5.418   7.490  0.2276  0.1446  0.3027
20264SOL    HW162660   0.290   5.370   7.452  0.2268 -0.2202  0.7488
20264SOL    HW262661   0.250   5.456   7.571 -0.0601 -0.0083  0.5009
20265SOL     OW62662   2.228   1.281   6.672 -0.2702 -0.2955  0.2479
20265SOL    HW162663   2.271   1.335   6.605  1.4596 -1.4662  0.3454
20265SOL    HW262664   2.139   1.315   6.677  0.1278  1.0861 -1.2611
20266SOL     OW62665   5.155   6.601   4.781 -0.2414 -0.2438 -0.4464
20266SOL    HW162666   5.131   6.534   4.844  0.2035  0.0610  0.0503
20266SOL    HW262667   5.082   6.663   4.784  0.9839  1.2439  1.8496
20267SOL     OW62668   1.305   1.472   6.654 -0.4027 -0.4187  0.1079
20267SOL    HW162669   1.285   1.537   6.586  0.1296 -0.0873  0.2551
20267SOL    HW262670   1.338   1.396   6.605  3.0997  0.9259  0.0235
20268SOL     OW62671   4.276   5.321   5.609 -0.0427  0.0404  0.0679
20268SOL    HW162672   4.183   5.334   5.592  0.0114  2.4502  1.2041
20268SOL    HW262673   4.283   5.322   5.705  1.0905 -0.6514  0.0113
20269SOL     OW62674   6.597   3.421   2.303  0.1023  0.2688  0.5682
20269SOL    HW162675   6.650   3.364   2.248 -1.0137 -0.9943  0.7461
20269SOL    HW262676   6.648   3.431   2.383 -0.0098 -1.1444  0.8440
20270SOL     OW62677   3.585   3.447   4.918  0.1951  0.5748 -0.4276
20270SOL    HW162678   3.572   3.494   4.835  0.1855 -0.2838 -0.9198
20270SOL    HW262679   3.678   3.424   4.918  0.1508  0.3945 -0.2994
20271SOL     OW62680   8.759   6.447   4.848 -0.0910  0.4579  0.3746
20271SOL    HW162681   8.729   6.375   4.905 -0.4771  0.9840  0.8491
20271SOL    HW262682   8.852   6.429   4.835 -0.2956 -0.4352  0.0258
20272SOL     OW62683   4.697   7.686   0.285  0.0401 -0.1752 -0.6719
20272SOL    HW162684   4.661   7.753   0.227 -2.6053  0.5148  1.5218
20272SOL    HW262685   4.655   7.704   0.370  1.3037 -2.9979  0.6611
20273SOL     OW62686   8.914   0.990   3.250 -0.0441 -0.2261 -0.2261
20273SOL    HW162687   8.945   1.029   3.169 -0.5632 -0.4416 -0.5302
20273SOL    HW262688   8.901   1.064   3.309  1.3526 -0.1525  0.0199
20274SOL     OW62689   5.898   4.254   7.890  0.1285  0.2323 -0.2082
20274SOL    HW162690   5.816   4.229   7.847  0.3067  0.8108 -0.9172
20274SOL    HW262691   5.912   4.188   7.957 -1.9706  1.2052  1.2952
20275SOL     OW62692   8.938   1.752   3.980  0.3988  0.0037 -0.2233
20275SOL    HW162693   8.848   1.724   3.968 -0.1652  1.6545 -0.0177
20275SOL    HW262694   8.969   1.702   4.056 -0.5340 -0.1194  0.0816
20276SOL     OW62695   1.653   3.362   0.341  0.2707  0.7025  0.4986
20276SOL    HW162696   1.682   3.412   0.417 -3.9308  0.2114  2.6813
20276SOL    HW262697   1.606   3.426   0.287 -0.2524  0.2262  0.3878
20277SOL     OW62698   5.769   0.397   7.305 -0.2783  0.5305  0.6783
20277SOL    HW162699   5.793   0.402   7.397 -0.3070 -3.0066  1.0268
20277SOL    HW262700   5.831   0.455   7.261 -0.8262  3.0140  2.9178
20278SOL     OW62701   6.935   5.901   7.419 -0.2513 -0.3200  0.3697
20278SOL    HW162702   7.002   5.960   7.454 -0.3797  0.8257 -1.2315
20278SOL    HW262703   6.857   5.920   7.471 -0.6594  1.9256 -0.9471
20279SOL     OW62704   7.524   6.852   4.560 -0.0898 -0.5746 -0.8481
20279SOL    HW162705   7.541   6.945   4.546 -1.4217 -0.2753 -0.6012
20279SOL    HW262706   7.586   6.825   4.627 -0.5458  0.4459 -0.0035
20280SOL     OW62707   1.383   5.871   5.693 -0.0556 -0.7816  0.5942
20280SOL    HW162708   1.382   5.801   5.627 -0.0490 -0.4860  0.2738
20280SOL    HW262709   1.410   5.828   5.774  0.0893 -1.1213  0.3666
20281SOL     OW62710   8.918   5.396   1.822 -0.7363  0.5674  0.0146
20281SOL    HW162711   8.901   5.306   1.795 -1.3190  0.3299  1.1059
20281SOL    HW262712   8.834   5.426   1.857 -0.1382  0.9761  1.1526
20282SOL     OW62713   3.845   4.572   5.821  0.1986  0.4754  0.3847
20282SOL    HW162714   3.868   4.507   5.887  0.3741  0.4502  0.3007
20282SOL    HW262715   3.888   4.541   5.741 -1.0490 -0.1682 -0.0511
20283SOL     OW62716   1.702   1.539   2.726 -0.1071  0.0337 -0.2404
20283SOL    HW162717   1.759   1.614   2.746  0.0485  0.1023 -0.9286
20283SOL    HW262718   1.614   1.576   2.726 -0.0472  0.1761 -0.3929
20284SOL     OW62719   4.704   3.450   5.668 -0.2543  0.2978  0.3835
20284SOL    HW162720   4.639   3.516   5.692 -1.3494 -0.1105 -1.2665
20284SOL    HW262721   4.653   3.379   5.629  1.1093 -0.3867 -0.2320
20285SOL     OW62722   0.379   1.965   5.192 -0.3906  0.4733 -0.1845
20285SOL    HW162723   0.323   1.986   5.116 -0.3337 -0.8992 -0.6189
20285SOL    HW262724   0.321   1.918   5.251 -0.5513  1.9082  0.8640
20286SOL     OW62725   4.846   6.485   1.545 -0.0369 -0.1861 -0.1624
20286SOL    HW162726   4.769   6.434   1.521 -0.5514  1.2434 -1.7999
20286SOL    HW262727   4.908   6.469   1.473 -0.1266  1.2889 -0.5916
20287SOL     OW62728   7.695   1.301   5.798  0.1129  0.0480  0.8342
20287SOL    HW162729   7.766   1.342   5.749 -0.2640 -0.8476 -0.5297
20287SOL    HW262730   7.713   1.207   5.793 -0.5505 -0.1244  1.4606
20288SOL     OW62731   7.960   1.945   8.198 -0.1933 -0.0879  0.3914
20288SOL    HW162732   8.027   2.001   8.239 -1.3535  0.1595  2.0313
20288SOL    HW262733   7.993   1.931   8.109  0.1326  3.2967 -0.1667
20289SOL     OW62734   5.403   8.039   2.862  0.3007 -0.0734 -0.6112
20289SOL    HW162735   5.334   7.974   2.858  0.9393 -0.9452  1.1930
20289SOL    HW262736   5.462   8.008   2.931  0.5672  2.4758  0.4524
20290SOL     OW62737   5.336   4.934   1.267  0.1446 -0.1815 -0.0931
20290SOL    HW162738   5.369   4.940   1.356  0.5279  1.3023 -0.2983
20290SOL    HW262739   5.304   5.023   1.247 -0.2704 -0.5742 -1.2915
20291SOL     OW62740   5.170   7.456   0.769  0.0624  0.0992  0.2099
20291SOL    HW162741   5.110   7.475   0.696 -0.1324  0.1777  0.3914
20291SOL    HW262742   5.127   7.386   0.818  0.1281  0.1454  0.3324
20292SOL     OW62743   8.608   2.622   7.769  0.1868 -0.5386  0.4380
20292SOL    HW162744   8.702   2.623   7.753  0.0013 -0.7591 -0.7708
20292SOL    HW262745   8.575   2.700   7.724 -0.4508 -1.5540 -0.9381
20293SOL     OW62746   0.333   3.055   4.819  0.4978  0.0507 -0.0764
20293SOL    HW162747   0.333   3.095   4.731 -1.4514  0.7988  0.2102
20293SOL    HW262748   0.265   2.987   4.814  1.8985 -1.4411  0.2539
20294SOL     OW62749   2.995   3.447   8.047 -0.3076  0.0003  0.1552
20294SOL    HW162750   2.966   3.485   8.130  2.1958 -0.1007  1.1345
20294SOL    HW262751   3.024   3.359   8.069 -2.5974 -1.2824 -1.4585
20295SOL     OW62752   6.134   6.199   5.681  0.0795  0.3833  0.1001
20295SOL    HW162753   6.172   6.211   5.594  0.3783  1.6318  0.3749
20295SOL    HW262754   6.178   6.266   5.735 -3.4640  2.9703  0.1409
20296SOL     OW62755   3.598   7.586   0.800 -0.6049 -0.4965 -0.5626
20296SOL    HW162756   3.550   7.640   0.863 -0.6366 -1.3900  0.2037
20296SOL    HW262757   3.531   7.558   0.737 -0.6397  0.1244 -0.8050
20297SOL     OW62758   3.148   1.179   5.233 -0.1422 -0.2780 -0.2152
20297SOL    HW162759   3.056   1.154   5.227  0.2625 -1.5664 -2.4678
20297SOL    HW262760   3.147   1.274   5.239 -1.6146 -0.3368  1.0691
20298SOL     OW62761   3.702   2.185   8.608  0.0798  0.0053 -0.2343
20298SOL    HW162762   3.794   2.161   8.600  0.1526 -0.0513  0.6416
20298SOL    HW262763   3.655   2.110   8.570  0.3593 -0.7765  0.8867
20299SOL     OW62764   5.232   2.121   5.607 -0.5163  0.0214 -0.0658
20299SOL    HW162765   5.295   2.057   5.575 -0.2168  0.6027 -0.6803
20299SOL    HW262766   5.280   2.170   5.675 -0.6645 -0.2396  0.2292
20300SOL     OW62767   4.892   3.508   0.115  0.4163  0.0549 -0.4777
20300SOL    HW162768   4.977   3.465   0.115  0.1276 -0.5977 -2.5153
20300SOL    HW262769   4.842   3.462   0.182  2.0056  1.3057  1.7207
20301SOL     OW62770   7.196   5.071   1.120 -0.1384 -0.3488  0.0587
20301SOL    HW162771   7.258   5.143   1.109  0.9603 -1.5413 -2.1612
20301SOL    HW262772   7.207   5.017   1.042 -3.0539 -1.3551  0.2148
20302SOL     OW62773   7.520   3.044   4.046  0.5427 -0.3434  0.5912
20302SOL    HW162774   7.448   3.036   4.108 -0.8308 -0.8817 -0.9884
20302SOL    HW262775   7.543   2.954   4.023  0.7986 -0.1517  0.0792
20303SOL     OW62776   5.951   6.940   3.381  0.4485 -0.1193 -0.1296
20303SOL    HW162777   5.907   6.981   3.307  3.0851  1.4062 -0.9727
20303SOL    HW262778   5.945   7.005   3.451  0.7567 -0.1915 -0.0347
20304SOL     OW62779   1.389   5.391   4.727 -0.3901  0.4681  0.2442
20304SOL    HW162780   1.376   5.391   4.632 -0.3467 -1.8300  0.1770
20304SOL    HW262781   1.481   5.370   4.739 -0.3487  0.9432  0.8031
20305SOL     OW62782   5.384   2.557   6.588  0.1808  0.2007 -0.2602
20305SOL    HW162783   5.405   2.483   6.531 -1.5994 -1.6440  1.2931
20305SOL    HW262784   5.443   2.548   6.662  1.1638  1.4256 -0.8773
20306SOL     OW62785   1.028   1.619   1.467  0.1501  0.0500 -0.0894
20306SOL    HW162786   1.030   1.712   1.492  0.3740  0.4710 -1.5939
20306SOL    HW262787   0.947   1.586   1.507 -0.2360  1.0414 -0.0072
20307SOL     OW62788   7.172   0.771   3.414  0.7662  0.0165  0.3989
20307SOL    HW162789   7.233   0.760   3.486 -0.0511 -0.6961  1.0044
20307SOL    HW262790   7.094   0.810   3.454  0.2532 -0.5100 -0.0630
20308SOL     OW62791   2.317   8.506   5.498  0.0558  0.6657  0.7177
20308SOL    HW162792   2.310   8.538   5.408  0.8468  1.4231  0.9118
20308SOL    HW262793   2.226   8.490   5.524 -0.1046 -2.6972 -1.2494
20309SOL     OW62794   5.907   4.139   5.370 -0.1763 -0.1595 -0.6387
20309SOL    HW162795   5.840   4.127   5.302  1.6134  0.2566 -2.5850
20309SOL    HW262796   5.943   4.052   5.384  0.6340 -0.0098 -1.5902
20310SOL     OW62797   2.567   8.105   4.947 -0.1402  0.8292 -0.3837
20310SOL    HW162798   2.504   8.134   5.013 -0.2223 -0.1016 -0.0436
20310SOL    HW262799   2.599   8.186   4.907 -0.0725  1.4058  0.8064
20311SOL     OW62800   0.094   2.457   8.212  0.2708 -0.3254  0.4826
20311SOL    HW162801   0.092   2.480   8.305  0.8777 -1.0021  0.6692
20311SOL    HW262802   0.135   2.371   8.209 -0.1391 -0.5030 -0.3797
20312SOL     OW62803   6.458   5.357   2.102 -0.1482  0.0970  0.4132
20312SOL    HW162804   6.486   5.389   2.016  1.2695  0.7401  1.0775
20312SOL    HW262805   6.366   5.333   2.090  0.1978 -0.4786 -1.4555
20313SOL     OW62806   3.135   8.046   7.203 -0.2586  1.0712  0.1822
20313SOL    HW162807   3.178   8.107   7.142  0.5254  3.0006  2.5048
20313SOL    HW262808   3.205   8.015   7.260 -1.4442  2.2927  2.4557
20314SOL     OW62809   1.874   4.594   7.577  0.4997  0.3700 -0.1882
20314SOL    HW162810   1.805   4.617   7.639 -0.1627  1.6383 -1.3189
20314SOL    HW262811   1.955   4.602   7.627  0.0463  2.1787  0.3564
20315SOL     OW62812   5.668   2.066   5.170 -0.0036 -0.3448 -0.3054
20315SOL    HW162813   5.686   1.991   5.113  2.9747 -0.3877  0.5233
20315SOL    HW262814   5.661   2.029   5.257  0.4868  0.2114 -0.0211
20316SOL     OW62815   1.789   2.941   2.409 -0.5275 -0.4072 -0.1478
20316SOL    HW162816   1.851   2.904   2.472 -0.7718  1.4492  1.2962
20316SOL    HW262817   1.732   2.868   2.384  1.0393 -1.7147 -0.0548
20317SOL     OW62818   8.046   3.792   8.399  0.0270 -0.6033 -0.0054
20317SOL    HW162819   8.041   3.717   8.458  0.1876 -1.7620 -1.4084
20317SOL    HW262820   8.070   3.865   8.456 -1.4335 -1.3018  1.6366
20318SOL     OW62821   5.396   2.753   7.138 -0.6598  0.1935 -0.1596
20318SOL    HW162822   5.374   2.714   7.222 -1.6749 -0.1941 -0.5881
20318SOL    HW262823   5.404   2.847   7.156  0.7330 -0.0686  0.6659
20319SOL     OW62824   7.440   7.723   3.292  0.3210  0.1740  0.2997
20319SOL    HW162825   7.485   7.802   3.263 -0.0854  0.0145 -0.8094
20319SOL    HW262826   7.486   7.651   3.249 -0.0287 -0.1019  0.3782
20320SOL     OW62827   3.059   4.492   2.719 -0.3346  0.2495 -0.1412
20320SOL    HW162828   3.065   4.581   2.683  0.4429 -0.4123 -1.7511
20320SOL    HW262829   3.110   4.496   2.800 -2.1492  1.7937  1.0193
20321SOL     OW62830   1.059   8.957   7.687  0.5921  0.0776  0.5436
20321SOL    HW162831   1.090   8.980   7.600  1.0384 -0.2351  0.6188
20321SOL    HW262832   1.138   8.935   7.736  0.3515  0.3445  1.0577
20322SOL     OW62833   2.356   4.748   2.342 -0.3481 -0.0140 -0.2662
20322SOL    HW162834   2.439   4.709   2.315 -0.4988  0.0159 -0.7865
20322SOL    HW262835   2.377   4.796   2.422 -0.1261 -1.0466  0.3255
20323SOL     OW62836   5.134   5.396   0.721 -0.4569 -0.0617  0.4638
20323SOL    HW162837   5.134   5.434   0.633 -2.1856  1.0590  0.9055
20323SOL    HW262838   5.123   5.471   0.779  1.9535 -0.6292  1.7779
20324SOL     OW62839   7.103   5.520   3.127 -0.1098 -0.2562  0.4440
20324SOL    HW162840   7.011   5.520   3.155  0.4281  1.6174  2.4476
20324SOL    HW262841   7.102   5.566   3.043 -1.1771 -1.7929 -0.4309
20325SOL     OW62842   6.011   1.575   0.819 -0.3243 -0.2622 -0.0891
20325SOL    HW162843   5.964   1.500   0.783 -2.3235  1.6504 -1.8041
20325SOL    HW262844   6.058   1.540   0.894 -0.7974 -3.2800 -1.0396
20326SOL     OW62845   5.135   8.095   2.280 -0.1021  0.6297 -0.4314
20326SOL    HW162846   5.077   8.168   2.259 -0.8026  0.2549  0.1574
20326SOL    HW262847   5.155   8.055   2.195 -0.8514  0.6578 -0.6264
20327SOL     OW62848   6.639   2.880   1.708 -0.6380 -0.3095  0.0871
20327SOL    HW162849   6.697   2.911   1.777  0.0110 -1.1093 -0.0813
20327SOL    HW262850   6.583   2.955   1.688  0.8676  0.7606 -0.2988
20328SOL     OW62851   5.696   2.540   8.802 -0.0930  0.5208 -0.3301
20328SOL    HW162852   5.610   2.497   8.806  0.1979 -0.2051 -1.4047
20328SOL    HW262853   5.676   2.633   8.812 -1.0107  0.3694 -0.5826
20329SOL     OW62854   6.847   0.184   3.188  0.0721  1.2015  0.4716
20329SOL    HW162855   6.845   0.244   3.263  0.6845  2.5222 -0.5137
20329SOL    HW262856   6.805   0.233   3.118  0.3970  0.3741 -0.3168
20330SOL     OW62857   3.481   0.457   6.197 -0.1071 -0.1771 -0.6501
20330SOL    HW162858   3.477   0.490   6.107  0.1941  0.3952 -0.4591
20330SOL    HW262859   3.572   0.472   6.224 -0.4196  0.5404  0.0685
20331SOL     OW62860   7.820   2.995   8.913  0.6816 -0.0306  0.1688
20331SOL    HW162861   7.760   2.922   8.894  2.3995 -1.3706 -0.4566
20331SOL    HW262862   7.875   3.001   8.834  2.4661 -0.0237  1.3542
20332SOL     OW62863   4.070   4.759   8.967 -0.3358 -0.7843  0.4110
20332SOL    HW162864   4.099   4.841   9.008 -0.0595 -1.5485  1.8127
20332SOL    HW262865   4.082   4.774   8.873  1.9725 -0.0484  0.7561
20333SOL     OW62866   7.840   3.440   1.757 -0.1115 -0.3103 -0.1330
20333SOL    HW162867   7.825   3.345   1.759  1.9873 -0.6761  0.5033
20333SOL    HW262868   7.891   3.455   1.678  0.3811  0.1350  0.2577
20334SOL     OW62869   6.065   2.914   7.870  0.3710  0.0240  0.1736
20334SOL    HW162870   6.098   2.889   7.784  2.7327  0.9399  0.7309
20334SOL    HW262871   6.099   2.847   7.929  0.1345  0.2867  0.6140
20335SOL     OW62872   6.098   5.441   4.614 -0.5803 -0.5462  0.2251
20335SOL    HW162873   6.182   5.396   4.625 -1.4258 -1.9422  1.2480
20335SOL    HW262874   6.032   5.376   4.640 -1.9158  0.8900  0.5722
20336SOL     OW62875   1.841   8.760   6.363 -0.2774 -0.0279 -0.4559
20336SOL    HW162876   1.904   8.717   6.304 -1.5018 -1.1057 -1.0206
20336SOL    HW262877   1.797   8.687   6.408 -0.6620  0.7334  0.4345
20337SOL     OW62878   3.362   5.086   1.708 -0.0965  0.0207 -0.2030
20337SOL    HW162879   3.422   5.079   1.634  0.7013  0.6716  0.3717
20337SOL    HW262880   3.416   5.115   1.781 -1.4596  2.9386 -0.2039
20338SOL     OW62881   2.768   3.257   3.369  0.0045 -0.7240  0.0020
20338SOL    HW162882   2.739   3.259   3.278  0.4634  0.5485 -0.1300
20338SOL    HW262883   2.743   3.342   3.405  0.4146 -0.9576  0.8755
20339SOL     OW62884   2.688   3.043   0.828 -0.3603  0.3988 -0.0585
20339SOL    HW162885   2.686   3.109   0.759 -1.1295 -1.8672 -2.3473
20339SOL    HW262886   2.598   3.010   0.832  0.5278 -2.4590 -1.1119
20340SOL     OW62887   4.241   2.003   5.618  0.5757 -0.4056  0.1856
20340SOL    HW162888   4.194   2.073   5.663 -0.6259 -0.5502 -0.7928
20340SOL    HW262889   4.230   1.927   5.675  1.5345  0.0710  1.0462
20341SOL     OW62890   6.209   0.152   0.986  0.7548 -0.2094 -0.0188
20341SOL    HW162891   6.171   0.237   0.962 -1.5329 -1.8591 -2.7903
20341SOL    HW262892   6.153   0.122   1.058  1.5027  0.5326  0.8973
20342SOL     OW62893   4.411   7.338   2.391  0.4731  0.0954 -0.3179
20342SOL    HW162894   4.455   7.327   2.307  0.9453 -0.1455 -0.0408
20342SOL    HW262895   4.444   7.267   2.446  1.0387  0.9118  0.4348
20343SOL     OW62896   4.741   5.986   0.715 -0.3539 -0.3483 -0.5974
20343SOL    HW162897   4.688   5.917   0.753 -0.8711  0.9093  1.0932
20343SOL    HW262898   4.725   6.062   0.771  0.6830  0.9684 -2.0060
20344SOL     OW62899   7.392   3.979   7.820  0.0315 -0.5960  0.5153
20344SOL    HW162900   7.441   3.909   7.862 -0.0264 -0.8552  0.1526
20344SOL    HW262901   7.458   4.046   7.801  0.0518 -0.4596  1.0495
20345SOL     OW62902   3.022   1.163   3.127  0.0979  0.0702  0.6850
20345SOL    HW162903   3.065   1.244   3.153 -0.3463 -0.2716  2.6358
20345SOL    HW262904   3.072   1.132   3.051  1.0372  1.5082  0.6898
20346SOL     OW62905   8.734   2.106   1.073 -0.3325 -0.2571 -0.4028
20346SOL    HW162906   8.735   2.094   0.978  5.1395 -3.0071 -0.3559
20346SOL    HW262907   8.728   2.017   1.108 -3.0841  0.7431  2.0572
20347SOL     OW62908   4.921   3.186   8.573  0.5387 -0.0439 -0.5362
20347SOL    HW162909   4.961   3.230   8.648  0.9498 -1.7980  0.3379
20347SOL    HW262910   4.933   3.093   8.592 -2.1409 -0.5997 -1.2607
20348SOL     OW62911   2.429   1.778   0.268  0.6473 -0.0704 -0.5373
20348SOL    HW162912   2.436   1.685   0.246  2.0789 -0.2289  0.4530
20348SOL    HW262913   2.408   1.821   0.185 -1.1106 -1.3563 -0.8260
20349SOL     OW62914   5.316   6.442   8.335  0.5393  0.2527  0.0244
20349SOL    HW162915   5.323   6.537   8.322  0.0068  0.1664 -1.0078
20349SOL    HW262916   5.402   6.409   8.309  0.4589  0.3831 -0.4279
20350SOL     OW62917   5.594   1.936   0.307 -0.4556 -0.5989  0.2592
20350SOL    HW162918   5.517   1.993   0.301  0.6508  1.0462  1.2276
20350SOL    HW262919   5.663   1.991   0.344  1.2167 -2.0383 -0.5723
20351SOL     OW62920   5.919   1.948   0.067  0.3181 -0.8439 -0.6849
20351SOL    HW162921   5.829   1.950   0.034  0.4300  0.4350 -0.9482
20351SOL    HW262922   5.973   1.947  -0.011  0.5570  0.7941 -0.5830
20352SOL     OW62923   6.669   7.070   4.961  0.4026  0.0203 -0.4927
20352SOL    HW162924   6.714   7.128   5.023 -0.1131  0.5013 -0.5602
20352SOL    HW262925   6.577   7.073   4.988  0.3806 -0.8214 -0.4591
20353SOL     OW62926   0.209   2.063   5.676 -0.8190 -0.0080 -0.1600
20353SOL    HW162927   0.128   2.049   5.726 -0.1297  0.1247  1.0285
20353SOL    HW262928   0.241   1.975   5.657 -0.8801 -0.0623 -0.0145
20354SOL     OW62929   4.932   3.834   6.153  0.5739  0.0956  0.4831
20354SOL    HW162930   4.900   3.744   6.157  0.5579  0.0072 -1.1411
20354SOL    HW262931   4.930   3.864   6.244 -1.0790 -0.9598  0.8347
20355SOL     OW62932   3.786   2.483   5.686 -0.2057  0.1954  0.5241
20355SOL    HW162933   3.707   2.497   5.739 -0.9060 -1.9085  0.0886
20355SOL    HW262934   3.856   2.478   5.751 -0.6898  0.1521  1.0594
20356SOL     OW62935   4.790   3.840   7.589 -0.2997  0.1713 -0.2577
20356SOL    HW162936   4.711   3.832   7.535  0.1840  1.8302 -1.3084
20356SOL    HW262937   4.824   3.927   7.568  1.6407 -0.3771  0.4056
20357SOL     OW62938   5.699   7.700   5.289 -0.6613 -0.4209  0.8469
20357SOL    HW162939   5.736   7.767   5.346 -0.3586 -1.0590  1.4173
20357SOL    HW262940   5.751   7.622   5.308 -1.0121 -0.8179  0.1996
20358SOL     OW62941   2.927   5.676   2.628 -0.2206  0.2057  0.6854
20358SOL    HW162942   2.997   5.631   2.580 -0.0079 -0.7450  1.8373
20358SOL    HW262943   2.957   5.676   2.719 -1.8470 -0.5221  1.2642
20359SOL     OW62944   2.959   3.559   0.428  0.2484  0.1256 -0.4581
20359SOL    HW162945   2.918   3.630   0.378  0.1850 -0.8008 -1.7590
20359SOL    HW262946   2.895   3.537   0.495  0.0786  0.9774 -0.3264
20360SOL     OW62947   0.564   7.030   0.237 -0.3189 -0.1807 -0.1516
20360SOL    HW162948   0.505   6.961   0.208 -0.1240  0.3147 -1.8689
20360SOL    HW262949   0.606   7.060   0.156 -0.0490  1.6083  0.6108
20361SOL     OW62950   3.447   8.849   1.885 -0.0273 -0.0005  0.2370
20361SOL    HW162951   3.482   8.763   1.858  2.5875  1.4490 -1.4635
20361SOL    HW262952   3.499   8.873   1.962 -1.2763 -0.1942  1.1824
20362SOL     OW62953   0.711   1.908   4.964  0.2013 -0.2546  0.0260
20362SOL    HW162954   0.738   1.817   4.977  1.1188 -0.3722 -2.1237
20362SOL    HW262955   0.630   1.902   4.913  0.9646  0.0963 -1.2706
20363SOL     OW62956   4.020   5.692   2.023  0.0472  0.5502  0.2605
20363SOL    HW162957   4.066   5.773   2.041  0.0111  0.4415  0.8771
20363SOL    HW262958   4.071   5.625   2.068 -0.0489  0.2649 -0.0515
20364SOL     OW62959   3.145   6.317   1.588  0.4342 -0.1308 -0.2365
20364SOL    HW162960   3.092   6.336   1.665 -1.9006  2.3902 -2.2617
20364SOL    HW262961   3.110   6.235   1.554  0.5574 -0.5434  0.6214
20365SOL     OW62962   1.070   6.233   7.055 -0.0627  0.2382 -0.0440
20365SOL    HW162963   1.162   6.216   7.075  0.0134  1.9302  1.3022
20365SOL    HW262964   1.059   6.326   7.075 -1.9756  0.1634 -0.6086
20366SOL     OW62965   8.560   1.619   8.232  0.9332 -0.3989 -0.1171
20366SOL    HW162966   8.510   1.538   8.241 -0.4322  0.1419 -2.0629
20366SOL    HW262967   8.607   1.609   8.149  1.8255  0.2636  0.2975
20367SOL     OW62968   6.828   6.827   3.751 -0.1092  0.1809  0.0421
20367SOL    HW162969   6.907   6.811   3.700 -0.5958 -2.5841  0.0166
20367SOL    HW262970   6.835   6.768   3.826 -1.3187  1.2089  1.0149
20368SOL     OW62971   2.175   5.729   5.221 -0.2502 -0.2267  0.4618
20368SOL    HW162972   2.089   5.767   5.240 -0.2462 -0.1177  0.2644
20368SOL    HW262973   2.155   5.643   5.184 -0.2456 -0.6726  1.4599
20369SOL     OW62974   5.741   8.224   8.591  0.3586  0.1891 -0.0170
20369SOL    HW162975   5.825   8.240   8.634 -0.2940 -0.2066  1.4642
20369SOL    HW262976   5.685   8.295   8.622 -1.1283 -1.9790  2.6679
20370SOL     OW62977   0.958   3.502   6.692  0.0944  0.0330 -0.6087
20370SOL    HW162978   0.900   3.553   6.748 -1.8355 -2.2619 -0.4025
20370SOL    HW262979   0.955   3.547   6.607 -0.7621  0.8189 -0.1777
20371SOL     OW62980   7.789   3.798   1.158 -0.4682 -0.5183 -0.4849
20371SOL    HW162981   7.853   3.862   1.190 -0.0246 -1.7690  1.3803
20371SOL    HW262982   7.710   3.848   1.140 -0.2795  0.5375  1.3551
20372SOL     OW62983   5.523   7.619   8.942 -0.4390 -0.4360 -0.5332
20372SOL    HW162984   5.518   7.579   9.029  1.0832  1.0243  0.3058
20372SOL    HW262985   5.584   7.693   8.954 -0.5075  0.0409 -2.7555
20373SOL     OW62986   1.881   2.877   1.715  0.1120 -0.0987  0.1050
20373SOL    HW162987   1.874   2.788   1.750 -1.5150  0.1270  0.3881
20373SOL    HW262988   1.891   2.864   1.621  0.7811 -0.5933  0.2321
20374SOL     OW62989   7.719   0.765   1.122 -0.0148  0.1207 -0.2023
20374SOL    HW162990   7.762   0.689   1.082 -2.0439  0.1899 -2.7210
20374SOL    HW262991   7.644   0.728   1.169  0.4898  0.3803  0.8581
20375SOL     OW62992   8.732   8.041   5.165 -0.1085  0.0868 -0.5036
20375SOL    HW162993   8.659   8.050   5.226 -0.3017  0.8621 -0.8429
20375SOL    HW262994   8.730   7.949   5.139 -1.3585  0.2369 -0.9941
20376SOL     OW62995   4.377   5.610   5.013  0.4992  0.2287 -0.0129
20376SOL    HW162996   4.297   5.591   5.062 -0.3283  1.9358 -0.6109
20376SOL    HW262997   4.401   5.526   4.973 -1.3995 -0.1926 -0.3747
20377SOL     OW62998   7.052   0.577   4.278 -0.6430  0.5096  0.3689
20377SOL    HW162999   6.999   0.503   4.249 -0.7666  0.3486  0.9831
20377SOL    HW263000   7.028   0.589   4.370  2.9846 -1.8952  1.8536
20378SOL     OW63001   1.550   6.671   4.401  0.4391 -0.3679  0.2403
20378SOL    HW163002   1.580   6.585   4.431 -2.2311 -2.2503 -1.9225
20378SOL    HW263003   1.503   6.707   4.476 -1.0730 -2.2877  0.3010
20379SOL     OW63004   2.467   7.273   5.634 -0.2142  0.2559  0.2461
20379SOL    HW163005   2.387   7.238   5.673  0.1260 -0.2315  0.5116
20379SOL    HW263006   2.487   7.212   5.563 -0.1402  0.4421  0.1083
20380SOL     OW63007   0.455   3.340   3.486 -0.2413 -0.7371 -0.1769
20380SOL    HW163008   0.361   3.350   3.467  0.1556  2.1327 -1.1362
20380SOL    HW263009   0.490   3.295   3.409 -0.3649  1.2088 -1.4393
20381SOL     OW63010   5.549   1.138   6.051  0.1876 -0.0084  0.0702
20381SOL    HW163011   5.487   1.073   6.086 -1.6980  1.3053 -0.6547
20381SOL    HW263012   5.525   1.220   6.095  1.6612  0.4850  0.0042
20382SOL     OW63013   3.901   2.357   3.750 -0.0994  0.1376 -0.1883
20382SOL    HW163014   3.895   2.400   3.835 -0.0203 -0.1497 -0.0359
20382SOL    HW263015   3.811   2.332   3.729 -0.6488  2.8226 -1.5768
20383SOL     OW63016   1.769   2.876   2.023 -0.3699 -0.0928  0.1739
20383SOL    HW163017   1.720   2.958   2.022 -0.6321 -0.2359  0.8509
20383SOL    HW263018   1.861   2.904   2.025 -0.4633  0.1954  0.7633
20384SOL     OW63019   0.885   0.942   8.395 -0.6169 -0.3105 -0.3166
20384SOL    HW163020   0.958   0.970   8.340  0.4249 -1.3637  0.4672
20384SOL    HW263021   0.849   0.865   8.351 -0.2486 -0.7189  0.0879
20385SOL     OW63022   8.768   1.529   0.348 -0.3156 -0.0005  0.1125
20385SOL    HW163023   8.772   1.446   0.395  0.9257  1.0163  1.9228
20385SOL    HW263024   8.794   1.507   0.258  0.1239 -1.5453  0.5866
20386SOL     OW63025   8.708   3.265   0.715 -0.1726 -0.0366 -0.0943
20386SOL    HW163026   8.622   3.305   0.725 -0.3040 -0.2519 -0.3688
20386SOL    HW263027   8.767   3.322   0.764 -0.1804  1.0670 -1.3368
20387SOL     OW63028   3.310   4.492   6.241 -0.0298  0.1726  0.6079
20387SOL    HW163029   3.309   4.581   6.206  0.3246 -0.5009 -1.2282
20387SOL    HW263030   3.256   4.442   6.180  3.0363 -1.6818 -0.8038
20388SOL     OW63031   4.939   1.472   6.232 -0.2074 -0.1517 -0.4087
20388SOL    HW163032   4.953   1.526   6.310 -0.1941 -0.7177 -0.0191
20388SOL    HW263033   4.859   1.423   6.251 -1.7751  1.6626 -1.8306
20389SOL     OW63034   1.699   5.121   3.803  0.0434 -0.7217 -0.3415
20389SOL    HW163035   1.652   5.067   3.740  1.5814 -1.8713 -0.5786
20389SOL    HW263036   1.724   5.199   3.755  1.4423 -1.7041 -1.3087
20390SOL     OW63037   7.408   6.300   1.371  0.1012  0.2236  0.0760
20390SOL    HW163038   7.443   6.242   1.303  1.3449 -1.1359  1.8042
20390SOL    HW263039   7.482   6.317   1.429 -0.7293  1.9973  0.7171
20391SOL     OW63040   7.193   2.061   8.814  0.3496  0.2989 -0.0577
20391SOL    HW163041   7.120   2.097   8.763 -0.1595 -0.7433 -0.1049
20391SOL    HW263042   7.266   2.119   8.795 -0.6582  1.8695  0.6612
20392SOL     OW63043   5.020   8.973   0.078 -0.5008 -0.2789  0.0336
20392SOL    HW163044   4.961   9.039   0.112 -0.8654 -0.6811  0.1832
20392SOL    HW263045   5.076   9.020   0.016 -0.2399  0.3254  0.7148
20393SOL     OW63046   1.855   4.941   8.841  0.3445  0.0936 -0.3033
20393SOL    HW163047   1.838   4.887   8.918  0.7287 -3.1487 -2.3057
20393SOL    HW263048   1.785   5.007   8.842 -1.0668 -1.3142  1.5440
20394SOL     OW63049   5.423   0.672   2.004  0.4264  0.0454  0.0340
20394SOL    HW163050   5.353   0.659   1.941 -1.0090 -1.2678  1.7916
20394SOL    HW263051   5.504   0.662   1.954 -0.6496 -2.0443 -1.3938
20395SOL     OW63052   6.673   8.557   7.464  0.6067  0.2582 -0.1001
20395SOL    HW163053   6.624   8.639   7.460  0.6539  0.2467 -1.8058
20395SOL    HW263054   6.764   8.583   7.449  0.4971 -0.1731 -1.7006
20396SOL     OW63055   0.727   3.053   7.260  0.3539 -0.5044 -0.1597
20396SOL    HW163056   0.662   2.996   7.219 -1.1045  0.8839  0.1225
20396SOL    HW263057   0.811   3.015   7.235 -0.5337 -1.5853 -1.6755
20397SOL     OW63058   7.247   7.003   1.295 -0.0508  0.0185  0.4739
20397SOL    HW163059   7.279   6.941   1.360  0.6844  0.9754  1.0569
20397SOL    HW263060   7.199   7.069   1.345 -0.2529  0.2818 -0.0548
20398SOL     OW63061   4.393   2.375   7.756 -0.7249  0.1961  0.0874
20398SOL    HW163062   4.441   2.451   7.789 -2.1480  0.6867  1.1307
20398SOL    HW263063   4.416   2.371   7.663  0.1519  1.2848  0.2234
20399SOL     OW63064   3.307   1.553   4.871  0.2199 -0.3457  0.7937
20399SOL    HW163065   3.399   1.577   4.861 -0.2827  2.0549  1.1121
20399SOL    HW263066   3.269   1.564   4.784  0.2615 -1.5910  0.6036
20400SOL     OW63067   4.577   2.258   4.780  0.1093 -0.5122  0.1232
20400SOL    HW163068   4.648   2.210   4.736  0.4032  0.6355 -0.7239
20400SOL    HW263069   4.623   2.322   4.835 -0.2584 -0.1353 -0.0035
20401SOL     OW63070   8.075   6.677   8.925  0.1324 -0.0090  0.2489
20401SOL    HW163071   8.089   6.635   8.840  1.5658 -0.7637  0.8274
20401SOL    HW263072   7.985   6.708   8.921  0.6015  1.3660 -2.1528
20402SOL     OW63073   2.859   1.529   0.426 -0.0019  0.4563 -0.3652
20402SOL    HW163074   2.885   1.587   0.355  2.7606 -2.9371 -2.3983
20402SOL    HW263075   2.937   1.521   0.481 -0.6118 -0.5950  0.3909
20403SOL     OW63076   4.308   4.432   8.951  0.1964  0.0889 -0.0063
20403SOL    HW163077   4.255   4.358   8.981 -0.5451  0.9794  0.9808
20403SOL    HW263078   4.398   4.400   8.954 -0.1270 -0.8439  0.1796
20404SOL     OW63079   4.794   3.836   0.696  0.5017 -0.4440 -0.3325
20404SOL    HW163080   4.834   3.874   0.618 -0.9291 -1.1085 -1.4357
20404SOL    HW263081   4.702   3.827   0.674  0.4125 -2.5678  0.6777
20405SOL     OW63082   0.575   1.226   4.250  0.4666  0.2838 -0.2596
20405SOL    HW163083   0.590   1.222   4.156  1.7048  0.4402 -0.0832
20405SOL    HW263084   0.624   1.302   4.280  1.5204 -0.7297  0.7444
20406SOL     OW63085   7.192   5.549   3.408  0.6040  0.7323  0.5018
20406SOL    HW163086   7.126   5.616   3.424 -1.1726 -0.8641  0.1984
20406SOL    HW263087   7.177   5.520   3.318  2.1659  0.7478  0.1934
20407SOL     OW63088   8.192   2.446   6.730  0.5804  0.2478 -0.1343
20407SOL    HW163089   8.157   2.470   6.644  2.4580  0.4677 -0.9038
20407SOL    HW263090   8.245   2.368   6.712  0.1244 -0.3460  1.0486
20408SOL     OW63091   1.949   7.139   6.353 -0.2963  0.2216  0.3790
20408SOL    HW163092   1.928   7.139   6.447 -0.0112  1.1638  0.4605
20408SOL    HW263093   1.923   7.053   6.322  2.0946 -1.1516  1.8653
20409SOL     OW63094   1.445   5.433   2.112 -0.1450  0.3554 -0.5699
20409SOL    HW163095   1.412   5.369   2.049  2.0767 -2.1621  0.5863
20409SOL    HW263096   1.367   5.466   2.157 -1.4444 -1.3864 -1.4178
20410SOL     OW63097   6.247   6.187   8.658 -0.4391  0.0377 -0.0795
20410SOL    HW163098   6.263   6.215   8.568 -1.6670 -1.2411 -0.7398
20410SOL    HW263099   6.165   6.137   8.654 -0.6331  0.1027  1.7860
20411SOL     OW63100   7.977   8.823   4.162 -0.1399  0.1940  0.0295
20411SOL    HW163101   7.974   8.858   4.073 -1.6710 -0.0624 -0.0543
20411SOL    HW263102   7.983   8.901   4.218  0.8582  0.3553 -0.2829
20412SOL     OW63103   4.484   5.490   1.760 -0.4277  0.0877 -0.1172
20412SOL    HW163104   4.579   5.494   1.770 -0.5149 -0.2683  0.9014
20412SOL    HW263105   4.451   5.470   1.847 -1.3284 -1.5461 -0.7748
20413SOL     OW63106   0.423   3.020   6.345 -0.1152 -0.0530 -0.4166
20413SOL    HW163107   0.486   3.042   6.414 -0.2845 -1.9064  0.3701
20413SOL    HW263108   0.350   3.080   6.359  0.1559  0.0600  0.5551
20414SOL     OW63109   8.594   4.279   6.702  0.3771  0.0433  0.4489
20414SOL    HW163110   8.609   4.216   6.631  1.6748 -0.1589  0.8715
20414SOL    HW263111   8.523   4.241   6.754  0.8205 -0.8438  0.4212
20415SOL     OW63112   0.442   1.627   5.528  0.0457 -0.1130  0.6248
20415SOL    HW163113   0.403   1.541   5.515 -0.7623  0.5846 -2.3751
20415SOL    HW263114   0.379   1.688   5.488  1.8014  1.5747  0.2975
20416SOL     OW63115   1.605   5.681   0.034 -0.0952 -0.0072 -0.1423
20416SOL    HW163116   1.543   5.705   0.103 -0.3507 -0.1665 -0.3145
20416SOL    HW263117   1.550   5.661  -0.042  0.2186  0.9906 -0.6487
20417SOL     OW63118   7.026   7.176   4.323  0.1076  0.2972 -0.5955
20417SOL    HW163119   6.984   7.262   4.326 -1.4437 -0.3787 -1.7642
20417SOL    HW263120   6.997   7.138   4.241 -1.2506 -2.3432  0.9796
20418SOL     OW63121   7.542   3.076   8.584  0.2838 -0.3197  0.0158
20418SOL    HW163122   7.583   3.093   8.500 -1.3753 -0.7740 -0.9450
20418SOL    HW263123   7.486   2.999   8.568  1.7886 -1.9939  2.1826
20419SOL     OW63124   3.475   0.138   4.664  0.3599 -0.4233  0.2680
20419SOL    HW163125   3.468   0.224   4.706 -0.2271 -0.1806 -0.3035
20419SOL    HW263126   3.403   0.088   4.702  0.9583 -0.8095  0.9139
20420SOL     OW63127   3.750   2.494   8.201 -0.0606 -0.2551  0.3900
20420SOL    HW163128   3.759   2.576   8.153  0.4012 -0.3019  0.3866
20420SOL    HW263129   3.760   2.519   8.293 -4.1868  0.3653  0.8640
20421SOL     OW63130   1.335   6.196   0.225 -0.7353 -0.2215 -0.1268
20421SOL    HW163131   1.279   6.268   0.196 -0.7486 -0.2039 -0.0576
20421SOL    HW263132   1.424   6.230   0.213 -0.7448 -0.0371  0.2962
20422SOL     OW63133   5.230   2.741   3.097 -0.8525  0.1557 -0.3294
20422SOL    HW163134   5.320   2.771   3.112 -0.5250 -0.4463 -1.0229
20422SOL    HW263135   5.213   2.765   3.006 -1.5528  0.6400 -0.0763
20423SOL     OW63136   1.816   0.905   6.376 -0.2345  0.2372  0.1354
20423SOL    HW163137   1.877   0.979   6.374  0.4754 -0.2216  2.1008
20423SOL    HW263138   1.854   0.844   6.439 -2.1563 -0.5869  0.5933
20424SOL     OW63139   8.166   3.451   0.878  0.2049  0.0477 -0.2219
20424SOL    HW163140   8.165   3.375   0.820 -0.7206 -0.8325  0.9094
20424SOL    HW263141   8.228   3.428   0.947 -0.2184  0.2559  0.2283
20425SOL     OW63142   4.249   3.966   7.491 -0.1485 -0.0753  0.0578
20425SOL    HW163143   4.285   3.892   7.540  0.1273  0.0357  0.0291
20425SOL    HW263144   4.263   3.942   7.399 -3.0522 -1.5026 -0.1209
20426SOL     OW63145   8.673   8.687   8.524  0.0612 -0.2551 -0.4282
20426SOL    HW163146   8.583   8.709   8.547 -0.2050 -0.4864 -1.2361
20426SOL    HW263147   8.685   8.722   8.436  1.3557  1.4004  0.3558
20427SOL     OW63148   6.466   2.643   0.136 -0.0907  0.3311 -0.1424
20427SOL    HW163149   6.545   2.677   0.093  0.9993 -0.8815  0.8190
20427SOL    HW263150   6.498   2.599   0.214 -1.7588 -0.0322  0.3796
20428SOL     OW63151   4.242   5.572   1.657 -0.2283 -0.2418  0.1426
20428SOL    HW163152   4.308   5.543   1.721  0.8037 -0.3710 -0.9477
20428SOL    HW263153   4.170   5.510   1.668 -0.6892  0.5557  2.1256
20429SOL     OW63154   8.981   0.687   7.374  0.8865 -0.2726 -0.0286
20429SOL    HW163155   8.983   0.728   7.287  2.1245 -0.5477 -0.1575
20429SOL    HW263156   9.072   0.662   7.390  0.6727 -0.2256  1.3602
20430SOL     OW63157   3.493   0.786   6.156 -0.4708  0.6595  0.0056
20430SOL    HW163158   3.403   0.816   6.148 -1.0431 -0.7328  0.8408
20430SOL    HW263159   3.497   0.707   6.102 -0.1623 -0.0895  1.0943
20431SOL     OW63160   1.009   5.111   7.683  0.4711 -0.4757  0.1327
20431SOL    HW163161   1.091   5.075   7.650  1.2361  0.4376  0.9722
20431SOL    HW263162   1.019   5.206   7.674  0.4328 -0.2249  2.2484
20432SOL     OW63163   2.065   7.676   5.974  0.1436 -0.1713  0.2116
20432SOL    HW163164   2.156   7.695   5.952  0.5186 -0.1623  1.6706
20432SOL    HW263165   2.056   7.582   5.958  0.8769 -0.4919  1.5158
20433SOL     OW63166   6.365   4.633   4.300  0.1080  0.0565  0.1197
20433SOL    HW163167   6.416   4.602   4.225 -0.4319  1.5381 -0.9036
20433SOL    HW263168   6.403   4.717   4.322 -0.2272 -0.0224  1.0433
20434SOL     OW63169   5.642   4.940   0.063  0.1210  0.0388  0.1056
20434SOL    HW163170   5.664   4.847   0.051  0.1127  0.1587 -0.9857
20434SOL    HW263171   5.650   4.955   0.157  1.1449 -0.8116  0.1752
20435SOL     OW63172   6.893   0.177   8.467 -0.8089  0.1114 -0.0532
20435SOL    HW163173   6.934   0.177   8.380 -0.5099  0.7598  0.0849
20435SOL    HW263174   6.803   0.205   8.450 -0.6216  0.7083 -0.1039
20436SOL     OW63175   7.359   5.153   5.880  0.0765 -0.0797 -0.0421
20436SOL    HW163176   7.294   5.163   5.949  1.4448 -0.9458  1.4416
20436SOL    HW263177   7.441   5.136   5.926  1.4425  1.2013 -1.8315
20437SOL     OW63178   7.130   4.903   7.464 -0.1930  0.2429  0.1326
20437SOL    HW163179   7.171   4.877   7.381  1.5370 -2.7592  1.7556
20437SOL    HW263180   7.202   4.939   7.516 -1.2094  1.8705  0.4708
20438SOL     OW63181   6.769   1.173   5.008  0.3405  0.1091 -0.1804
20438SOL    HW163182   6.737   1.236   5.072 -1.3991  0.1414 -1.0170
20438SOL    HW263183   6.775   1.090   5.056  1.1869  0.5874  0.5500
20439SOL     OW63184   7.279   1.494   8.868 -0.3416  0.0536 -0.0052
20439SOL    HW163185   7.331   1.414   8.869 -0.2135  0.1220  1.5279
20439SOL    HW263186   7.246   1.503   8.958  0.3844  2.1725  0.1207
20440SOL     OW63187   2.588   5.048   4.791 -0.3983 -0.1459 -0.0879
20440SOL    HW163188   2.608   5.134   4.828  1.3733  0.8200 -2.9545
20440SOL    HW263189   2.525   5.066   4.720 -0.0693 -1.2050 -0.6679
20441SOL     OW63190   8.513   5.733   7.106 -0.1596  0.3676  0.3037
20441SOL    HW163191   8.429   5.741   7.061 -0.5554  1.8002  1.2198
20441SOL    HW263192   8.541   5.824   7.119  0.7543 -0.0619  1.4116
20442SOL     OW63193   6.117   0.805   2.781  0.5944  0.1787  0.2388
20442SOL    HW163194   6.181   0.801   2.852  1.6738  0.9415 -0.6456
20442SOL    HW263195   6.033   0.793   2.823  1.3571 -1.7960  1.3365
20443SOL     OW63196   2.594   4.747   2.634 -0.0845 -0.3738  0.0264
20443SOL    HW163197   2.509   4.787   2.617 -0.0657  0.4125  1.5658
20443SOL    HW263198   2.647   4.818   2.670  1.4550 -0.6944 -1.5305
20444SOL     OW63199   7.387   0.098   5.306 -0.2348  0.1012  0.5053
20444SOL    HW163200   7.374   0.189   5.333 -0.3181  0.0909  0.5002
20444SOL    HW263201   7.333   0.047   5.367  0.7464 -0.0441  1.2837
20445SOL     OW63202   1.957   6.487   2.735  0.6072 -0.1577 -0.2540
20445SOL    HW163203   1.996   6.574   2.741 -0.9869  0.4999  3.1887
20445SOL    HW263204   1.863   6.503   2.728  0.1788 -1.5300  1.5735
20446SOL     OW63205   1.370   3.577   7.117  0.1812  0.8190 -0.2680
20446SOL    HW163206   1.403   3.488   7.127 -0.5814  0.6091  0.4681
20446SOL    HW263207   1.293   3.568   7.061 -0.1696  0.9442  0.1860
20447SOL     OW63208   5.556   2.884   2.498  0.2131 -0.2053 -0.0677
20447SOL    HW163209   5.525   2.959   2.447  1.9774  0.3069 -0.4548
20447SOL    HW263210   5.534   2.808   2.445 -0.5498  0.1111 -0.2217
20448SOL     OW63211   8.996   4.151   7.922 -0.3783 -0.2734  0.2016
20448SOL    HW163212   9.029   4.213   7.987  1.0685  0.1564 -0.8882
20448SOL    HW263213   8.953   4.206   7.856 -0.6188 -0.5757  0.1067
20449SOL     OW63214   7.460   4.089   8.925  0.2849 -0.1655 -0.4485
20449SOL    HW163215   7.497   4.176   8.942 -0.1759 -0.0587  0.0213
20449SOL    HW263216   7.371   4.094   8.960  0.3253 -0.8940 -0.2388
20450SOL     OW63217   4.516   1.834   7.953 -0.6123  0.6021 -0.0343
20450SOL    HW163218   4.558   1.768   8.009 -1.7309  0.4212  0.6132
20450SOL    HW263219   4.488   1.902   8.014  0.0906  1.4566 -0.6447
20451SOL     OW63220   1.230   5.557   5.245  0.3918 -0.0199 -0.1485
20451SOL    HW163221   1.194   5.636   5.286  2.0187  0.8824 -0.3815
20451SOL    HW263222   1.184   5.485   5.289 -2.5834  1.0167 -1.2749
20452SOL     OW63223   8.129   4.904   8.185 -0.2848 -0.0340 -0.2490
20452SOL    HW163224   8.046   4.894   8.232 -0.0678  0.9981  0.3942
20452SOL    HW263225   8.108   4.883   8.094 -0.4698 -3.1917  0.4379
20453SOL     OW63226   6.139   4.277   0.389 -0.6898  0.6691 -0.6376
20453SOL    HW163227   6.094   4.355   0.422  1.0119  1.7963 -0.8669
20453SOL    HW263228   6.225   4.279   0.431 -1.3054 -2.2879  1.0104
20454SOL     OW63229   4.949   7.564   2.854  0.5372 -0.0555  0.3133
20454SOL    HW163230   4.945   7.655   2.825  1.7742  0.1103  0.6116
20454SOL    HW263231   5.017   7.525   2.799  1.8355 -0.1268  1.9224
20455SOL     OW63232   6.037   8.057   1.167  0.0410  0.2336  0.3085
20455SOL    HW163233   6.054   7.979   1.220 -0.6860  1.0098  1.7676
20455SOL    HW263234   6.110   8.116   1.187  0.8310 -0.2282 -1.1431
20456SOL     OW63235   0.139   8.954   7.535 -0.1459  0.0121  0.4637
20456SOL    HW163236   0.131   8.915   7.622 -3.1165 -0.9554 -0.1370
20456SOL    HW263237   0.083   8.900   7.479  1.2552  0.9166 -1.9769
20457SOL     OW63238   8.092   2.095   3.872 -0.8584 -0.0036  0.4412
20457SOL    HW163239   8.074   2.005   3.901 -2.1403 -0.1721 -0.7718
20457SOL    HW263240   8.022   2.147   3.910 -0.1633  0.4807  1.0695
20458SOL     OW63241   4.246   7.077   8.441  0.2736  0.0627 -0.3172
20458SOL    HW163242   4.162   7.096   8.485  0.8583  2.1327  0.0259
20458SOL    HW263243   4.224   7.072   8.348 -0.1040  1.9619 -0.3868
20459SOL     OW63244   3.263   2.893   6.418  0.2063 -0.1529 -0.3654
20459SOL    HW163245   3.356   2.902   6.439  0.4987 -1.8162 -0.8119
20459SOL    HW263246   3.218   2.919   6.499  1.0161  0.9538 -0.2407
20460SOL     OW63247   2.086   6.255   2.460 -0.5113  0.1768  0.5968
20460SOL    HW163248   2.152   6.204   2.413 -0.9769 -0.1723  0.3212
20460SOL    HW263249   2.059   6.199   2.532 -0.0044  0.5985  1.1241
20461SOL     OW63250   5.926   0.290   6.803  0.9524  0.0202 -0.4053
20461SOL    HW163251   5.902   0.382   6.790 -0.1261 -0.1607  0.2375
20461SOL    HW263252   5.871   0.261   6.875  1.3758 -1.1066 -0.5208
20462SOL     OW63253   6.438   2.403   0.936  0.2177 -0.4101 -0.1993
20462SOL    HW163254   6.531   2.428   0.931 -0.0140  0.4339 -0.6211
20462SOL    HW263255   6.422   2.390   1.029  0.7161 -0.3657 -0.1015
20463SOL     OW63256   4.430   1.386   5.178  0.7524  0.0311  0.1236
20463SOL    HW163257   4.504   1.383   5.116  0.6519 -2.6528  0.0172
20463SOL    HW263258   4.468   1.357   5.261  0.5912  2.3453  1.0602
20464SOL     OW63259   4.879   1.826   8.182  0.1661 -0.1052  0.1876
20464SOL    HW163260   4.895   1.757   8.246 -0.6260 -0.1613  0.3381
20464SOL    HW263261   4.905   1.907   8.227 -1.3616 -0.0197  0.9951
20465SOL     OW63262   8.703   5.113   7.972 -0.3962  0.2246 -0.2824
20465SOL    HW163263   8.717   5.109   7.878 -1.1576 -0.1889 -0.3862
20465SOL    HW263264   8.747   5.193   8.000 -0.2107  0.3742 -0.9900
20466SOL     OW63265   8.520   5.464   7.819 -0.1764  0.2399  0.1279
20466SOL    HW163266   8.563   5.390   7.776 -2.1648 -0.5485 -0.5930
20466SOL    HW263267   8.534   5.538   7.760  1.8021  0.5171  0.8419
20467SOL     OW63268   6.582   0.747   3.431 -0.2105 -0.1805 -0.1464
20467SOL    HW163269   6.554   0.685   3.364  1.2654 -1.5823  0.4573
20467SOL    HW263270   6.674   0.766   3.409  0.5036 -1.1578  1.7514
20468SOL     OW63271   3.877   1.034   0.805  0.4573  0.3656 -0.2353
20468SOL    HW163272   3.836   1.119   0.786  2.8431  1.4098 -1.1668
20468SOL    HW263273   3.927   1.050   0.885 -0.9035 -0.8919  0.9163
20469SOL     OW63274   0.890   6.494   0.254 -0.2361  0.8140  0.2979
20469SOL    HW163275   0.847   6.532   0.330  0.3345  1.3432  0.3662
20469SOL    HW263276   0.886   6.563   0.188 -0.4202  0.4843 -0.0411
20470SOL     OW63277   7.198   7.604   6.627  0.4466  0.4558 -0.5174
20470SOL    HW163278   7.169   7.603   6.719  1.3439  0.3426 -0.2201
20470SOL    HW263279   7.239   7.690   6.616  0.1901  0.5340 -0.8611
20471SOL     OW63280   1.547   4.201   3.959 -0.1145  0.1920 -0.0215
20471SOL    HW163281   1.591   4.285   3.947 -0.0728  0.1405 -0.2269
20471SOL    HW263282   1.455   4.224   3.971 -0.4876  0.1516 -2.2928
20472SOL     OW63283   2.430   0.533   8.074 -0.1608  0.0802 -0.0229
20472SOL    HW163284   2.385   0.573   8.148  0.5978  0.4101  0.2725
20472SOL    HW263285   2.391   0.575   7.997 -0.5324  0.1801  0.2161
20473SOL     OW63286   3.267   4.004   3.038  0.0338  0.2562 -0.0090
20473SOL    HW163287   3.190   4.035   3.086 -0.5423  0.8886 -1.2988
20473SOL    HW263288   3.243   3.916   3.010  0.1714  0.0802  0.4184
20474SOL     OW63289   0.818   2.718   6.044  0.1789 -0.0232 -0.1122
20474SOL    HW163290   0.787   2.641   6.091 -0.0852  0.2422  0.1544
20474SOL    HW263291   0.820   2.787   6.111  0.9623  0.0629 -0.2108
20475SOL     OW63292   6.629   2.739   2.986 -0.0985  1.3527  0.1089
20475SOL    HW163293   6.636   2.717   3.079  0.5746  1.4110  0.0836
20475SOL    HW263294   6.581   2.822   2.984  0.2506  1.5674  0.4400
20476SOL     OW63295   3.851   5.556   3.158  0.2895  0.4385 -0.0852
20476SOL    HW163296   3.911   5.550   3.083 -0.4431  0.9122 -0.7274
20476SOL    HW263297   3.896   5.614   3.219  0.7966  0.2366 -0.2609
20477SOL     OW63298   8.917   0.719   1.008 -0.4172 -0.0579  0.2706
20477SOL    HW163299   8.914   0.810   1.038  0.6199  0.1100 -0.0888
20477SOL    HW263300   8.848   0.713   0.942 -0.2478  0.5710  0.0300
20478SOL     OW63301   5.784   5.339   6.376  0.0174  0.1720 -0.1639
20478SOL    HW163302   5.745   5.425   6.393 -2.7064 -0.6669 -1.6276
20478SOL    HW263303   5.713   5.277   6.388  1.1216 -1.5940 -2.0727
20479SOL     OW63304   3.418   4.446   0.351  0.4436  0.0969  0.1592
20479SOL    HW163305   3.335   4.410   0.381  0.6230 -0.5628 -0.1187
20479SOL    HW263306   3.402   4.471   0.260  0.4605  0.2678  0.2023
20480SOL     OW63307   4.180   7.306   0.030 -0.0789  0.1360  0.2620
20480SOL    HW163308   4.222   7.391   0.022 -0.6067  0.3896  0.1780
20480SOL    HW263309   4.193   7.281   0.121  3.2978 -1.3839 -0.4773
20481SOL     OW63310   6.687   3.300   7.065 -0.0769 -0.3704 -0.0107
20481SOL    HW163311   6.670   3.227   7.007  0.8674 -1.4116  0.9744
20481SOL    HW263312   6.783   3.301   7.075  0.0370  1.6145 -0.7665
20482SOL     OW63313   3.051   5.874   6.433 -0.0275 -0.2270  0.5092
20482SOL    HW163314   2.993   5.799   6.423 -0.2393 -0.0235  0.2042
20482SOL    HW263315   3.057   5.913   6.346  2.5845 -1.7103 -0.0814
20483SOL     OW63316   7.009   6.573   0.571  0.2012  0.7621 -0.5808
20483SOL    HW163317   7.065   6.649   0.559 -1.2745  1.8804 -0.6852
20483SOL    HW263318   6.921   6.604   0.549 -0.2108 -1.4661 -2.4365
20484SOL     OW63319   4.398   6.528   4.375 -0.0100  0.8454 -0.2072
20484SOL    HW163320   4.386   6.478   4.295  0.8533 -0.2840  0.3371
20484SOL    HW263321   4.473   6.584   4.357  1.2050 -0.5432  0.2905
20485SOL     OW63322   0.098   1.533   3.736 -0.8331 -0.3813 -0.4848
20485SOL    HW163323   0.130   1.615   3.773  2.3598 -1.8183  0.3497
20485SOL    HW263324   0.035   1.500   3.800 -0.2367  0.2523  0.4555
20486SOL     OW63325   5.722   2.629   8.408 -0.2406  0.1586  0.0290
20486SOL    HW163326   5.651   2.579   8.370  0.7198 -1.0292 -0.2795
20486SOL    HW263327   5.686   2.666   8.489 -0.6811 -1.9796  0.8598
20487SOL     OW63328   8.136   5.457   0.297 -0.4489 -0.6156 -0.6213
20487SOL    HW163329   8.170   5.459   0.208 -0.4838  2.4998 -0.6979
20487SOL    HW263330   8.042   5.472   0.287 -0.6100 -1.2440 -0.0892
20488SOL     OW63331   6.950   6.134   6.910 -0.2486 -0.4872  0.1584
20488SOL    HW163332   7.002   6.097   6.839  0.5896 -0.3777  0.6931
20488SOL    HW263333   7.002   6.116   6.989 -0.6236  0.3520  0.6114
20489SOL     OW63334   8.341   0.330   3.051 -0.0799 -0.0274  0.2448
20489SOL    HW163335   8.416   0.302   3.104 -0.3356 -0.6609  0.2827
20489SOL    HW263336   8.266   0.284   3.089 -0.6667  1.3422  0.8254
20490SOL     OW63337   1.376   3.181   4.400 -0.0358  0.7262  0.2270
20490SOL    HW163338   1.313   3.205   4.332  0.1517  2.6680  0.6912
20490SOL    HW263339   1.409   3.264   4.434  1.7278 -0.2124  0.9947
20491SOL     OW63340   5.376   5.444   8.494 -0.5740  0.0749  0.4195
20491SOL    HW163341   5.346   5.439   8.403 -0.0950  0.6963  0.2207
20491SOL    HW263342   5.385   5.353   8.521  0.7718 -0.1394 -0.6498
20492SOL     OW63343   4.826   3.428   7.009  0.1035  0.1283 -0.0865
20492SOL    HW163344   4.810   3.354   6.951  0.1975 -0.4532  0.6266
20492SOL    HW263345   4.910   3.464   6.980 -0.7968  1.1109 -1.6318
20493SOL     OW63346   1.419   5.659   0.232 -0.8269 -0.4489  0.2620
20493SOL    HW163347   1.368   5.736   0.256  0.2629  1.1450 -2.1250
20493SOL    HW263348   1.479   5.647   0.306 -2.3042 -0.2563  1.5468
20494SOL     OW63349   6.735   4.210   3.276  0.1330 -0.5029  0.3702
20494SOL    HW163350   6.689   4.252   3.204  0.8500  0.4773  0.4666
20494SOL    HW263351   6.828   4.216   3.253  0.3186 -0.9872  0.9458
20495SOL     OW63352   1.835   1.059   2.221  0.0448 -0.5436  0.4900
20495SOL    HW163353   1.925   1.091   2.224 -0.0163 -0.2655 -0.3002
20495SOL    HW263354   1.832   0.986   2.282  1.3064 -1.8137 -0.9063
20496SOL     OW63355   1.338   2.009   0.551 -0.3815  0.0349 -0.6487
20496SOL    HW163356   1.370   2.046   0.633  1.0748 -0.9409 -0.7511
20496SOL    HW263357   1.366   2.071   0.483  0.5428 -0.3567 -0.6404
20497SOL     OW63358   1.028   0.170   0.670  0.2142 -0.4369 -0.3126
20497SOL    HW163359   0.996   0.085   0.641  1.5236 -0.8387 -0.6819
20497SOL    HW263360   1.058   0.213   0.590 -0.8052  0.5577 -0.1837
20498SOL     OW63361   1.712   2.485   6.760  0.1120  0.4597 -0.1272
20498SOL    HW163362   1.776   2.502   6.830 -0.2363 -0.9322  0.5705
20498SOL    HW263363   1.731   2.551   6.694  1.7326  0.5993  0.4288
20499SOL     OW63364   0.494   2.122   8.786 -0.6912 -0.3297 -0.0606
20499SOL    HW163365   0.454   2.162   8.709 -0.9539  1.2536  0.8652
20499SOL    HW263366   0.467   2.177   8.859 -1.6274 -2.5706  1.3996
20500SOL     OW63367   8.306   3.138   3.049  0.4484 -0.0382  0.6747
20500SOL    HW163368   8.232   3.183   3.008  0.3036 -1.3921 -0.6317
20500SOL    HW263369   8.305   3.051   3.011  0.7527 -1.1785  3.0866
20501SOL     OW63370   2.366   5.925   6.830  0.1540  0.0962 -0.3805
20501SOL    HW163371   2.367   5.830   6.841  0.1903 -0.0594 -1.5692
20501SOL    HW263372   2.281   5.944   6.789  1.6748  0.0416 -3.9362
20502SOL     OW63373   2.351   0.737   5.874 -0.2749 -0.2433 -0.4547
20502SOL    HW163374   2.427   0.680   5.862 -0.9176 -0.8692 -1.6506
20502SOL    HW263375   2.288   0.683   5.922  0.5706  0.7839  2.0026
20503SOL     OW63376   3.846   1.888   3.426  0.9709  0.1205 -0.6494
20503SOL    HW163377   3.848   1.844   3.511  1.5856  1.0920 -0.1518
20503SOL    HW263378   3.797   1.968   3.441  2.4390  1.0872 -0.8090
20504SOL     OW63379   2.616   5.987   8.520 -0.1204  0.2622  0.1054
20504SOL    HW163380   2.618   5.968   8.426  1.6007  0.0299  0.1529
20504SOL    HW263381   2.524   6.004   8.539 -0.5081  0.2843 -1.6134
20505SOL     OW63382   2.817   5.089   7.005  0.0358 -0.1400 -0.1525
20505SOL    HW163383   2.740   5.139   7.031  0.2225 -0.0500  0.2342
20505SOL    HW263384   2.817   5.014   7.064 -0.6892 -1.0252 -1.2498
20506SOL     OW63385   2.758   4.982   6.142 -0.0327  0.3131 -0.3215
20506SOL    HW163386   2.834   4.924   6.130  0.2018  0.8306 -1.4253
20506SOL    HW263387   2.693   4.927   6.186  0.1824 -0.8076 -1.3561
20507SOL     OW63388   4.696   7.755   7.114  0.0540  0.2747 -0.5705
20507SOL    HW163389   4.726   7.673   7.153  0.8406  1.1041  0.6233
20507SOL    HW263390   4.615   7.731   7.069 -0.4499 -0.9082  0.8706
20508SOL     OW63391   0.458   0.968   4.743  0.6535  0.0071 -0.0104
20508SOL    HW163392   0.370   0.938   4.721  0.3722 -1.3741  2.6234
20508SOL    HW263393   0.463   1.057   4.707 -0.9798 -0.6928 -2.1349
20509SOL     OW63394   0.799   1.096   6.929  0.2203 -0.1865  0.0414
20509SOL    HW163395   0.893   1.102   6.944  0.1896  0.2256  0.0727
20509SOL    HW263396   0.781   1.002   6.928  1.0871 -0.4272 -2.8343
20510SOL     OW63397   5.486   6.581   5.733  0.0798  0.0690  0.0350
20510SOL    HW163398   5.441   6.625   5.660  0.1661  0.4169  0.1916
20510SOL    HW263399   5.486   6.488   5.708 -0.2630  0.1325 -0.2117
20511SOL     OW63400   7.975   0.222   3.900  0.0179 -0.2438  0.3218
20511SOL    HW163401   8.046   0.161   3.919  2.3959  1.5796 -1.9958
20511SOL    HW263402   7.987   0.294   3.961  0.0931  0.0201 -0.0033
20512SOL     OW63403   6.656   6.524   5.811  0.7586  0.3071  0.7626
20512SOL    HW163404   6.673   6.446   5.863  0.4539  0.4943  1.1448
20512SOL    HW263405   6.656   6.596   5.874  0.8261  0.5916  0.4440
20513SOL     OW63406   1.959   2.954   3.507  0.5654 -0.4888  0.3067
20513SOL    HW163407   1.920   2.881   3.556  0.8894 -1.8488 -1.3597
20513SOL    HW263408   1.929   2.940   3.417  2.4017  0.2069 -0.4459
20514SOL     OW63409   4.042   0.085   7.149  0.3948  0.1463 -0.2200
20514SOL    HW163410   4.033   0.013   7.211  0.9459  1.3115  1.2807
20514SOL    HW263411   4.110   0.057   7.089 -0.1222 -0.9998 -0.2983
20515SOL     OW63412   0.414   4.452   0.047  0.3579 -0.2045 -0.1101
20515SOL    HW163413   0.449   4.510  -0.020  1.3360 -1.2158 -0.5167
20515SOL    HW263414   0.455   4.367   0.029 -1.6500 -1.2463 -0.0536
20516SOL     OW63415   4.964   0.276   6.243 -0.5543 -0.3922  0.3935
20516SOL    HW163416   4.950   0.344   6.308 -1.6072  1.2383 -1.4312
20516SOL    HW263417   5.045   0.301   6.199 -0.2773 -1.0348  0.5209
20517SOL     OW63418   0.986   1.408   0.191 -0.5622 -0.3694 -0.4415
20517SOL    HW163419   1.032   1.325   0.199 -1.4197 -0.8327 -0.1483
20517SOL    HW263420   0.934   1.416   0.271  0.4423  1.0589  0.1131
20518SOL     OW63421   5.301   2.635   8.043 -0.1003  0.1470  0.3146
20518SOL    HW163422   5.256   2.616   7.960 -0.2454  0.1600  0.3897
20518SOL    HW263423   5.380   2.682   8.017 -1.4038  2.5372  0.2900
20519SOL     OW63424   6.226   4.082   6.498 -0.3253 -0.0446 -0.1212
20519SOL    HW163425   6.130   4.088   6.495 -0.2684  1.5307  0.2401
20519SOL    HW263426   6.252   4.069   6.407 -0.8633 -0.0212 -0.2831
20520SOL     OW63427   0.287   7.744   4.993  0.4080 -0.1905  0.0349
20520SOL    HW163428   0.362   7.744   5.052 -0.1514 -1.2912  0.7755
20520SOL    HW263429   0.316   7.795   4.917  1.3229  0.8032  1.0148
20521SOL     OW63430   6.368   2.266   2.518 -0.0771 -0.0979  0.0337
20521SOL    HW163431   6.273   2.278   2.527 -0.0443  0.2175 -0.0464
20521SOL    HW263432   6.377   2.184   2.471 -0.3376  0.4398 -0.9747
20522SOL     OW63433   6.326   8.182   4.808 -0.1209  0.2900 -0.2251
20522SOL    HW163434   6.419   8.202   4.804 -0.1080  0.0356 -2.1004
20522SOL    HW263435   6.293   8.234   4.882  1.4575  0.5174  0.3495
20523SOL     OW63436   7.744   5.214   1.256  0.4872  0.8136 -0.1961
20523SOL    HW163437   7.666   5.189   1.306  1.1596 -0.1381  0.4104
20523SOL    HW263438   7.745   5.154   1.181  0.8493  0.5407  0.0210
20524SOL     OW63439   4.952   6.525   3.930 -0.3913  0.4569 -0.1310
20524SOL    HW163440   5.035   6.536   3.884 -1.2078  0.0668 -1.7657
20524SOL    HW263441   4.907   6.609   3.918  0.1393  1.0482  1.6410
20525SOL     OW63442   1.759   0.118   4.643  0.6212  0.2070 -1.1817
20525SOL    HW163443   1.724   0.191   4.591 -0.9584 -1.2926 -2.3502
20525SOL    HW263444   1.849   0.144   4.663  0.2687  2.2369 -2.0039
20526SOL     OW63445   7.642   3.435   5.441 -0.1538  0.1334 -0.1778
20526SOL    HW163446   7.678   3.399   5.360  0.2104 -1.5599  0.6864
20526SOL    HW263447   7.547   3.431   5.429 -0.1117 -0.6687 -0.3270
20527SOL     OW63448   4.880   8.533   6.849  0.3271  0.2225  0.5290
20527SOL    HW163449   4.905   8.465   6.786  1.9473  0.3472  0.9933
20527SOL    HW263450   4.902   8.615   6.805  0.6750  0.3435  0.9255
20528SOL     OW63451   4.002   6.374   5.021  1.4247 -0.0277 -0.1598
20528SOL    HW163452   4.031   6.283   5.024  0.6941 -0.2633 -0.0221
20528SOL    HW263453   3.978   6.388   4.930 -2.4469 -1.2930  0.4875
20529SOL     OW63454   8.522   4.772   2.558 -0.1863 -0.6521 -0.2041
20529SOL    HW163455   8.596   4.792   2.502  0.0805 -1.7108 -0.2519
20529SOL    HW263456   8.465   4.717   2.505 -2.1391  1.8652 -0.9486
20530SOL     OW63457   4.757   8.367   2.870  0.2155  0.4697  0.0864
20530SOL    HW163458   4.749   8.421   2.948  3.4622  0.4318  0.5605
20530SOL    HW263459   4.667   8.357   2.839 -1.1640  0.9031  3.4945
20531SOL     OW63460   2.324   7.072   3.475 -0.1326 -0.3350 -0.6342
20531SOL    HW163461   2.255   7.100   3.415  0.5133 -0.9499 -1.7056
20531SOL    HW263462   2.307   7.121   3.555 -3.7682 -2.8433  0.3467
20532SOL     OW63463   3.588   1.701   4.021 -0.2542 -0.2267 -0.2073
20532SOL    HW163464   3.634   1.746   4.092 -0.6709 -0.3350  0.1323
20532SOL    HW263465   3.502   1.681   4.057 -0.9617  0.9314 -1.1846
20533SOL     OW63466   8.621   8.072   7.239  0.2481  0.0938  0.1434
20533SOL    HW163467   8.702   8.122   7.251  0.8962 -0.4973 -1.4906
20533SOL    HW263468   8.590   8.097   7.152 -0.8812 -0.3401  0.4064
20534SOL     OW63469   2.365   0.859   1.447  0.6933 -0.0227  0.5694
20534SOL    HW163470   2.405   0.944   1.428 -0.4079  0.3771 -0.0452
20534SOL    HW263471   2.347   0.821   1.361 -2.4367  0.8877  0.6705
20535SOL     OW63472   8.241   0.798   3.138  0.0364 -0.0253  0.1265
20535SOL    HW163473   8.184   0.721   3.132 -3.2961  1.9328  2.9326
20535SOL    HW263474   8.216   0.853   3.064  1.0063 -0.6757 -0.7250
20536SOL     OW63475   6.553   1.168   1.580 -0.1146  0.1980  0.7223
20536SOL    HW163476   6.544   1.123   1.664  1.1244 -1.0827  0.2209
20536SOL    HW263477   6.648   1.174   1.567 -0.2896  0.5922 -0.4657
20537SOL     OW63478   2.686   1.062   4.595 -0.0743 -0.3567  0.4474
20537SOL    HW163479   2.756   1.093   4.653  0.2007  0.4958 -0.3117
20537SOL    HW263480   2.689   1.122   4.520  0.5450 -2.2979 -1.1486
20538SOL     OW63481   5.243   5.440   1.089  0.1590 -0.8638 -0.0630
20538SOL    HW163482   5.167   5.475   1.042 -0.0505 -1.3340 -0.0780
20538SOL    HW263483   5.305   5.418   1.019  0.6930  0.3771 -0.0097
20539SOL     OW63484   5.375   3.837   2.530  0.0802 -0.7415 -0.1975
20539SOL    HW163485   5.452   3.816   2.478  1.1218 -0.8340  1.3049
20539SOL    HW263486   5.310   3.773   2.504  0.9923 -1.5772 -0.4987
20540SOL     OW63487   2.915   0.288   6.767 -0.2559 -0.3315 -0.0670
20540SOL    HW163488   2.977   0.259   6.833  1.3867 -0.0775 -1.4201
20540SOL    HW263489   2.930   0.383   6.759 -0.5540 -0.3260 -0.6522
20541SOL     OW63490   5.812   4.984   6.507 -0.2546 -0.1550 -0.1276
20541SOL    HW163491   5.799   5.073   6.540 -2.3579 -1.1810  2.1400
20541SOL    HW263492   5.841   4.934   6.584 -1.6910 -1.9304 -0.6748
20542SOL     OW63493   4.132   8.484   2.061 -0.3721  0.1258  0.2562
20542SOL    HW163494   4.111   8.563   2.011  0.2717  0.2234  0.1265
20542SOL    HW263495   4.131   8.512   2.153  0.3101  0.4031  0.1852
20543SOL     OW63496   6.559   8.163   8.229  0.5652  0.3176  0.3284
20543SOL    HW163497   6.617   8.097   8.191  1.3480  1.6574 -0.8634
20543SOL    HW263498   6.617   8.220   8.280 -0.2893 -0.6847  2.5980
20544SOL     OW63499   8.129   3.490   5.460 -0.2961  0.8309 -0.6952
20544SOL    HW163500   8.212   3.492   5.509 -0.3711  1.9196 -0.5964
20544SOL    HW263501   8.063   3.518   5.523 -1.0876 -1.8007 -0.2149
20545SOL     OW63502   3.496   8.803   6.494 -0.5040  0.1263 -0.3062
20545SOL    HW163503   3.402   8.812   6.478 -0.6756 -0.9256  0.0381
20545SOL    HW263504   3.532   8.889   6.472 -1.2715 -0.0045 -2.2874
20546SOL     OW63505   7.231   1.210   7.308  0.5678  0.4414  0.0252
20546SOL    HW163506   7.190   1.152   7.244  0.4511  0.3009  0.2231
20546SOL    HW263507   7.280   1.274   7.256 -1.0280  1.4707 -0.2630
20547SOL     OW63508   1.828   2.858   6.883  0.1136 -0.2698 -0.3916
20547SOL    HW163509   1.827   2.780   6.938  0.0463  0.1232  0.1803
20547SOL    HW263510   1.910   2.903   6.906  0.2864 -0.3057 -0.9146
20548SOL     OW63511   4.895   0.658   5.850 -0.4683  0.6258  0.2271
20548SOL    HW163512   4.855   0.580   5.813  2.5864 -1.0927  0.1655
20548SOL    HW263513   4.906   0.637   5.943  0.5749  0.8211  0.1677
20549SOL     OW63514   3.374   6.854   1.741 -0.4000  0.3691  0.2656
20549SOL    HW163515   3.408   6.832   1.654  1.3536  1.2202  0.6913
20549SOL    HW263516   3.438   6.818   1.802 -0.2146  2.0166  1.1098
20550SOL     OW63517   6.564   0.113   6.410 -0.2433 -0.4972 -0.1409
20550SOL    HW163518   6.471   0.135   6.411  0.0428  0.9970 -1.7007
20550SOL    HW263519   6.594   0.139   6.323  1.7337 -0.5474  0.4777
20551SOL     OW63520   0.720   0.218   8.259 -0.3523  0.5139  0.2201
20551SOL    HW163521   0.784   0.168   8.209 -0.8672  1.4477 -1.4377
20551SOL    HW263522   0.660   0.151   8.295  0.2947 -0.2005 -0.0141
20552SOL     OW63523   7.331   4.828   8.534 -0.1854 -0.3936 -0.2638
20552SOL    HW163524   7.425   4.846   8.535 -0.0687 -0.9848  0.2207
20552SOL    HW263525   7.290   4.913   8.547  0.3163 -0.3044  0.8433
20553SOL     OW63526   3.184   2.644   2.075  0.0913  0.2017 -0.0345
20553SOL    HW163527   3.224   2.717   2.123  1.0138  0.9106 -1.7618
20553SOL    HW263528   3.101   2.628   2.119  1.2183  0.2713  2.2282
20554SOL     OW63529   0.590   7.263   6.933  0.2868 -0.2789  0.3539
20554SOL    HW163530   0.583   7.269   6.838  0.3747  1.3775  0.4167
20554SOL    HW263531   0.684   7.252   6.949  0.5231  1.4260  0.2900
20555SOL     OW63532   7.834   6.228   2.933  0.4015 -0.1884 -0.1055
20555SOL    HW163533   7.778   6.175   2.990  0.3336 -0.4619 -0.4189
20555SOL    HW263534   7.838   6.314   2.976 -1.0123  0.1270 -0.5283
20556SOL     OW63535   5.556   0.150   3.797  0.3256 -0.2887  0.0787
20556SOL    HW163536   5.530   0.241   3.789  1.2945 -0.0685 -0.7696
20556SOL    HW263537   5.630   0.151   3.858  0.7929 -0.3903 -0.4665
20557SOL     OW63538   8.092   2.987   6.652  0.1250  0.0735 -0.0012
20557SOL    HW163539   8.160   3.022   6.595 -0.6255  1.5535 -0.0456
20557SOL    HW263540   8.133   2.981   6.738  1.4964 -2.8944 -0.7445
20558SOL     OW63541   4.365   3.019   1.872 -0.1691  0.3434  0.3688
20558SOL    HW163542   4.452   3.048   1.898 -0.1159 -0.3432  0.9965
20558SOL    HW263543   4.320   3.000   1.955 -0.2977 -1.0340  0.0109
20559SOL     OW63544   6.941   0.055   4.545  0.4379 -0.1718  0.2549
20559SOL    HW163545   7.021   0.003   4.557  1.4255  0.7016 -2.0390
20559SOL    HW263546   6.967   0.144   4.570  0.7456  0.4448 -2.0261
20560SOL     OW63547   4.302   4.146   3.070  0.1165 -0.0610  0.0066
20560SOL    HW163548   4.267   4.190   3.147  1.7444  1.0118  0.1830
20560SOL    HW263549   4.395   4.137   3.088  0.3389 -0.7923 -1.3756
20561SOL     OW63550   0.587   5.367   3.012  0.4473  0.3278 -0.3560
20561SOL    HW163551   0.546   5.296   2.963 -0.2214  0.1362  0.4615
20561SOL    HW263552   0.668   5.329   3.046  0.3230  0.0968 -0.3186
20562SOL     OW63553   0.959   2.085   4.228 -0.0531 -0.4988 -0.8721
20562SOL    HW163554   0.983   2.096   4.320 -0.3317 -0.6233 -0.7835
20562SOL    HW263555   0.867   2.061   4.230 -0.9599  2.5585 -1.3151
20563SOL     OW63556   2.502   5.425   6.575  0.4325 -0.1904 -0.1487
20563SOL    HW163557   2.432   5.360   6.574 -1.4253  1.7103  0.8533
20563SOL    HW263558   2.461   5.507   6.547  2.3738  0.9054 -0.0229
20564SOL     OW63559   0.741   5.447   6.080 -0.0461  0.1603 -0.2223
20564SOL    HW163560   0.788   5.466   6.161  1.1022  2.3985 -1.3416
20564SOL    HW263561   0.662   5.500   6.085  0.4979  1.0628 -0.9685
20565SOL     OW63562   0.505   1.146   1.240  0.6407  0.1585  0.1691
20565SOL    HW163563   0.590   1.125   1.202  1.1281 -0.5578  1.5709
20565SOL    HW263564   0.507   1.106   1.327 -0.4201  1.7068  0.9503
20566SOL     OW63565   2.083   5.273   0.006 -0.0654  0.0828 -0.0701
20566SOL    HW163566   2.093   5.196  -0.049 -0.5201 -0.0833  0.0787
20566SOL    HW263567   2.012   5.323  -0.033 -0.9516 -0.4431  0.8151
20567SOL     OW63568   1.246   0.418   1.630 -0.3949 -0.3929  0.0967
20567SOL    HW163569   1.201   0.402   1.547  1.6928  1.1959 -1.4557
20567SOL    HW263570   1.212   0.502   1.661  0.1001 -0.1243 -0.0820
20568SOL     OW63571   4.634   0.254   6.194  0.4380  0.0754  0.2066
20568SOL    HW163572   4.618   0.334   6.143 -0.2202  0.2510  0.6708
20568SOL    HW263573   4.611   0.183   6.134 -1.1007  0.2942  0.4729
20569SOL     OW63574   4.680   2.825   8.307 -0.5083 -0.6391  0.0055
20569SOL    HW163575   4.596   2.868   8.318 -0.0699 -0.1581  1.7561
20569SOL    HW263576   4.740   2.895   8.281 -0.2301 -0.5720  0.8015
20570SOL     OW63577   3.944   8.243   0.468 -0.4328 -0.0348  0.3083
20570SOL    HW163578   3.938   8.339   0.461 -5.0144  0.1428  2.3986
20570SOL    HW263579   3.994   8.229   0.549  1.9265  0.3934 -0.9966
20571SOL     OW63580   8.105   4.205   6.780  0.1807  0.1422 -0.4345
20571SOL    HW163581   8.053   4.133   6.816  1.2656 -0.0623  0.7816
20571SOL    HW263582   8.054   4.283   6.800 -0.3725 -0.1672 -0.5922
20572SOL     OW63583   6.657   1.873   8.377 -0.1522  0.5173 -0.0235
20572SOL    HW163584   6.700   1.941   8.325  0.5362  0.6614  0.7122
20572SOL    HW263585   6.568   1.907   8.391 -0.2803  0.5714 -0.9014
20573SOL     OW63586   2.929   0.630   7.628  0.4799  0.4791 -0.3879
20573SOL    HW163587   2.880   0.624   7.710  1.6405 -0.5341  0.2484
20573SOL    HW263588   2.862   0.620   7.560 -0.2673 -0.4006  0.4460
20574SOL     OW63589   5.139   3.443   3.695  0.1655  0.6262  0.6125
20574SOL    HW163590   5.133   3.420   3.602 -0.8323  0.1735  0.7749
20574SOL    HW263591   5.117   3.362   3.741  0.8521  0.7957  1.2527
20575SOL     OW63592   3.837   8.554   7.047  0.0834  0.3871 -0.5747
20575SOL    HW163593   3.780   8.524   6.977  0.9743  0.8014 -1.4994
20575SOL    HW263594   3.837   8.481   7.110 -0.7830  0.0413 -0.9571
20576SOL     OW63595   3.565   7.804   7.940 -0.6889 -0.2788 -0.0769
20576SOL    HW163596   3.548   7.872   7.876 -0.4536 -1.1408 -1.0810
20576SOL    HW263597   3.569   7.723   7.889 -1.1794 -1.0799  1.1146
20577SOL     OW63598   7.226   3.857   8.678 -0.1573 -0.3741 -0.0259
20577SOL    HW163599   7.197   3.803   8.604 -1.9174  1.4649 -0.7742
20577SOL    HW263600   7.249   3.941   8.638  0.2302  0.2073  1.3740
20578SOL     OW63601   3.294   8.627   5.976 -0.2078 -0.2556 -0.0572
20578SOL    HW163602   3.290   8.720   5.954 -2.9345 -0.3118 -0.1670
20578SOL    HW263603   3.387   8.606   5.978  0.4345  2.2001 -1.1678
20579SOL     OW63604   4.294   0.721   8.633  0.0728  0.2892 -0.1925
20579SOL    HW163605   4.351   0.794   8.607 -0.0102  0.0327 -1.1230
20579SOL    HW263606   4.292   0.726   8.729  4.0975 -1.4893  0.1904
20580SOL     OW63607   2.548   5.908   1.335 -0.2783 -0.8118  0.0822
20580SOL    HW163608   2.508   5.841   1.280 -0.4016 -0.8110  0.1690
20580SOL    HW263609   2.599   5.859   1.400 -1.4694 -0.8853  1.0014
20581SOL     OW63610   5.579   2.198   4.239  0.0270  0.5980  0.0086
20581SOL    HW163611   5.544   2.169   4.155 -0.2743 -0.8431  0.6098
20581SOL    HW263612   5.515   2.169   4.303  1.0598  0.1718  0.8840
20582SOL     OW63613   4.051   7.005   1.696 -0.4578 -0.1035  0.0505
20582SOL    HW163614   4.137   6.966   1.714 -0.0033  1.5438  1.7065
20582SOL    HW263615   3.998   6.979   1.771 -1.9072 -2.2419 -1.5796
20583SOL     OW63616   2.353   0.109   0.121 -0.2117 -0.2289 -0.2335
20583SOL    HW163617   2.305   0.028   0.141 -0.3878 -0.3148 -0.9950
20583SOL    HW263618   2.392   0.134   0.205 -1.3710 -0.3004  0.3542
20584SOL     OW63619   2.109   6.085   0.800  0.3311 -1.0584 -0.2896
20584SOL    HW163620   2.056   6.013   0.766 -1.7886  0.5837 -0.7358
20584SOL    HW263621   2.090   6.087   0.894 -0.0966 -0.7597 -0.3745
20585SOL     OW63622   6.691   6.078   8.953 -0.0924  0.0303  0.1232
20585SOL    HW163623   6.660   5.995   8.917  0.3093  0.0547 -0.2879
20585SOL    HW263624   6.781   6.085   8.923 -0.6337  1.4247 -1.3252
20586SOL     OW63625   3.812   7.692   4.323 -0.0347  0.0124 -0.2296
20586SOL    HW163626   3.847   7.676   4.236  0.3343  1.1956 -0.3166
20586SOL    HW263627   3.850   7.622   4.377  0.3000 -0.3073 -0.8624
20587SOL     OW63628   1.323   1.703   6.094 -0.3614 -0.0102  0.6714
20587SOL    HW163629   1.287   1.729   6.010  0.7461 -0.0769  0.1551
20587SOL    HW263630   1.274   1.753   6.158 -0.9838  0.3000 -0.0366
20588SOL     OW63631   3.423   1.265   6.353 -0.4822  0.2883  0.2842
20588SOL    HW163632   3.493   1.256   6.288 -1.6147 -1.8701 -0.7444
20588SOL    HW263633   3.444   1.201   6.421 -1.7508 -0.9146 -0.3929
20589SOL     OW63634   1.360   8.595   8.628 -0.5442 -0.2674  0.1814
20589SOL    HW163635   1.392   8.662   8.688 -1.1359  0.3491 -0.1781
20589SOL    HW263636   1.274   8.571   8.662 -0.6577 -0.2959 -0.1264
20590SOL     OW63637   5.011   3.683   6.845 -0.5648 -0.6501 -0.3439
20590SOL    HW163638   4.968   3.767   6.829 -0.8043 -0.4158  1.3424
20590SOL    HW263639   5.103   3.706   6.858 -0.6873 -0.5749  0.4759
20591SOL     OW63640   6.366   1.230   2.844 -0.6526 -0.4637  0.3143
20591SOL    HW163641   6.289   1.195   2.889 -0.5224  0.6028  1.4050
20591SOL    HW263642   6.426   1.256   2.914  0.5680 -0.9203 -0.5058
20592SOL     OW63643   4.569   8.296   2.084 -0.2997  0.3394 -0.3081
20592SOL    HW163644   4.606   8.384   2.074  0.1566  0.1290 -0.4947
20592SOL    HW263645   4.612   8.261   2.162 -0.7746  0.4276 -0.0054
20593SOL     OW63646   6.263   2.807   1.655 -0.3372 -0.2314  0.1448
20593SOL    HW163647   6.242   2.719   1.687  1.2515 -1.3103 -1.5498
20593SOL    HW263648   6.284   2.857   1.734 -1.3050 -1.3366  1.1472
20594SOL     OW63649   5.698   8.450   0.448 -0.2473  0.1039 -0.1803
20594SOL    HW163650   5.742   8.383   0.500  1.4022  0.9291 -0.4470
20594SOL    HW263651   5.674   8.406   0.366  0.9255 -0.1633 -0.4006
20595SOL     OW63652   0.164   5.347   7.105 -0.2765  0.0399  0.2236
20595SOL    HW163653   0.175   5.390   7.020 -1.8080  0.3785  0.1596
20595SOL    HW263654   0.131   5.416   7.163  1.8865  0.1263  1.4684
20596SOL     OW63655   6.532   0.808   5.935 -0.4574 -0.8991  0.0207
20596SOL    HW163656   6.620   0.780   5.959 -0.8179 -0.0577  2.6006
20596SOL    HW263657   6.515   0.764   5.852  3.2838  0.7274 -1.8904
20597SOL     OW63658   1.035   2.808   8.574 -0.0816  0.1014 -0.3377
20597SOL    HW163659   1.081   2.769   8.500 -0.3133 -2.6325  0.8510
20597SOL    HW263660   1.090   2.786   8.650 -0.4578  1.8004  0.4760
20598SOL     OW63661   2.933   3.066   7.485  0.0175 -0.7652  0.3829
20598SOL    HW163662   2.908   3.158   7.481  1.3333 -0.3980  0.1352
20598SOL    HW263663   3.029   3.067   7.485  0.0510 -2.1280  0.5409
20599SOL     OW63664   4.735   8.240   5.038 -0.7728  0.0219 -0.2301
20599SOL    HW163665   4.667   8.237   5.105 -0.7728  0.0079 -0.2312
20599SOL    HW263666   4.718   8.164   4.983  0.3172 -1.0023  0.8072
20600SOL     OW63667   4.107   5.994   4.475  0.4282  0.1206  0.3914
20600SOL    HW163668   4.074   6.082   4.490 -0.7333 -0.3920  1.0798
20600SOL    HW263669   4.202   6.003   4.476  0.3259  1.3920  0.2173
20601SOL     OW63670   3.016   1.100   4.370 -0.0168  0.0402 -0.1314
20601SOL    HW163671   2.961   1.172   4.401  0.0988 -0.2362  0.7410
20601SOL    HW263672   2.961   1.052   4.308 -0.3990  0.3598 -0.0388
20602SOL     OW63673   1.494   3.664   7.715 -0.9188  0.2413  0.0100
20602SOL    HW163674   1.557   3.733   7.695  2.3209 -2.4962 -0.2682
20602SOL    HW263675   1.456   3.689   7.799  0.1179  2.3204 -0.0802
20603SOL     OW63676   7.867   4.248   0.928  0.1552 -0.5027  0.3246
20603SOL    HW163677   7.857   4.216   1.018  1.6851  1.2066  1.1806
20603SOL    HW263678   7.949   4.210   0.898  0.2390 -0.1450  0.0922
20604SOL     OW63679   3.351   8.160   6.706 -0.1046 -0.0989 -0.4495
20604SOL    HW163680   3.445   8.141   6.699 -0.4574 -1.4212 -2.3857
20604SOL    HW263681   3.312   8.114   6.632 -1.8413  3.7823 -2.1924
20605SOL     OW63682   1.846   1.143   4.258  0.5815  0.3675  0.9403
20605SOL    HW163683   1.898   1.215   4.295 -0.9464  1.9953  0.0872
20605SOL    HW263684   1.811   1.098   4.335  2.0564  0.1396  1.5011
20606SOL     OW63685   3.064   6.278   0.121  0.1778 -0.3823  0.0176
20606SOL    HW163686   2.980   6.247   0.088  0.2012  0.0545 -0.4532
20606SOL    HW263687   3.082   6.222   0.197 -0.8548 -0.0264  0.5334
20607SOL     OW63688   1.583   3.804   1.640 -0.1578  0.4660  0.1970
20607SOL    HW163689   1.487   3.810   1.644 -0.1341  0.7839  0.3553
20607SOL    HW263690   1.605   3.832   1.551 -0.2750 -0.5771 -0.1736
20608SOL     OW63691   1.658   4.085   1.762  0.0446 -0.3976 -0.0091
20608SOL    HW163692   1.705   4.146   1.705  1.1359 -0.0009  1.2768
20608SOL    HW263693   1.703   4.001   1.750 -0.2919 -0.5219 -0.4017
20609SOL     OW63694   1.839   3.843   7.155  0.0183  0.0261  0.9240
20609SOL    HW163695   1.854   3.751   7.132 -0.5708  0.5983 -2.1949
20609SOL    HW263696   1.749   3.860   7.128  1.2037  2.3606 -2.0270
20610SOL     OW63697   5.506   6.163   6.371 -0.9018 -0.7043  0.3037
20610SOL    HW163698   5.431   6.104   6.362 -0.6418 -1.5561  2.9803
20610SOL    HW263699   5.506   6.188   6.463  2.0847 -0.6423  0.3705
20611SOL     OW63700   6.019   7.652   0.276  0.2248  0.2581 -0.1316
20611SOL    HW163701   5.986   7.705   0.349  2.3704  1.9170 -0.2448
20611SOL    HW263702   6.111   7.636   0.298  0.9359  0.7943 -2.4333
20612SOL     OW63703   6.571   3.676   4.849 -0.3252 -0.3563 -0.1905
20612SOL    HW163704   6.478   3.652   4.844 -0.1251 -1.0891 -0.6177
20612SOL    HW263705   6.592   3.672   4.942 -0.9357  0.6928  0.0068
20613SOL     OW63706   5.537   4.843   3.936  0.3424 -0.3068 -0.3134
20613SOL    HW163707   5.565   4.877   4.021 -1.2140  2.1653 -0.6969
20613SOL    HW263708   5.442   4.831   3.944  0.5771 -3.1095 -0.7645
20614SOL     OW63709   8.169   4.648   2.607 -0.1974 -0.2373 -0.2789
20614SOL    HW163710   8.079   4.615   2.609  0.6975 -2.9274 -0.0448
20614SOL    HW263711   8.160   4.741   2.589 -2.9769 -0.6095 -1.3034
20615SOL     OW63712   6.862   4.136   2.446 -0.0606  0.2643  0.3880
20615SOL    HW163713   6.909   4.107   2.524  1.7927  0.3641 -0.6198
20615SOL    HW263714   6.870   4.231   2.447  1.6098  0.1824 -0.8242
20616SOL     OW63715   5.305   7.552   0.968  0.2145  0.1402 -0.3426
20616SOL    HW163716   5.274   7.508   0.888  0.0161 -0.4775  0.0700
20616SOL    HW263717   5.239   7.619   0.985 -0.4510 -0.6010  0.0431
20617SOL     OW63718   4.278   3.224   1.461 -0.3962  0.1600  0.1247
20617SOL    HW163719   4.249   3.165   1.531 -2.0064 -0.1477 -0.7382
20617SOL    HW263720   4.206   3.221   1.397  0.5282  1.2995 -1.0058
20618SOL     OW63721   7.048   5.456   0.139  0.0906  0.4838  0.3088
20618SOL    HW163722   6.986   5.383   0.136  2.7799 -1.9451 -0.8145
20618SOL    HW263723   7.108   5.434   0.211  0.1340  2.4063  0.9327
20619SOL     OW63724   3.925   4.373   5.597 -0.0483  0.0882  0.2949
20619SOL    HW163725   4.011   4.355   5.636  0.2115 -0.7839 -0.6620
20619SOL    HW263726   3.886   4.287   5.583 -0.7997  0.4548  0.0674
20620SOL     OW63727   2.659   1.216   8.954 -0.0769 -0.0390  0.3416
20620SOL    HW163728   2.579   1.238   9.003 -0.2308 -0.4301  0.2701
20620SOL    HW263729   2.630   1.151   8.889  0.1413  0.4123 -0.2168
20621SOL     OW63730   2.314   5.895   2.986  0.6625 -0.2284  0.0386
20621SOL    HW163731   2.242   5.956   2.970  1.0214  0.1772 -0.0583
20621SOL    HW263732   2.335   5.859   2.900  1.2962  0.4797 -0.1128
20622SOL     OW63733   6.822   7.624   6.396 -0.1126 -0.0350 -0.2913
20622SOL    HW163734   6.797   7.537   6.428 -0.0196  0.3447  0.8446
20622SOL    HW263735   6.917   7.619   6.385  0.0739  0.3202  1.0591
20623SOL     OW63736   5.527   6.789   8.605  0.1251  0.0765  0.0601
20623SOL    HW163737   5.611   6.809   8.647  0.0577  0.3365  0.0724
20623SOL    HW263738   5.546   6.791   8.511 -0.0434  0.9609  0.0338
20624SOL     OW63739   8.557   1.692   0.237 -0.2431  0.6325  0.3037
20624SOL    HW163740   8.614   1.621   0.269 -0.1732  0.0318 -1.0809
20624SOL    HW263741   8.553   1.754   0.310  3.6243  1.6095 -0.0893
20625SOL     OW63742   5.658   3.793   8.746  0.4049 -0.1017  0.7203
20625SOL    HW163743   5.691   3.724   8.690  2.2055  0.9107  0.4289
20625SOL    HW263744   5.573   3.762   8.777 -0.2728 -1.0502 -1.8585
20626SOL     OW63745   0.534   7.921   7.612  0.4645 -0.1296 -0.1534
20626SOL    HW163746   0.539   7.907   7.707 -0.0075 -1.5027 -0.3143
20626SOL    HW263747   0.446   7.893   7.588  1.6816 -3.4283 -1.4884
20627SOL     OW63748   5.767   7.296   0.610  0.0117 -0.0317 -0.1102
20627SOL    HW163749   5.722   7.380   0.600  1.3274  0.4793 -2.3111
20627SOL    HW263750   5.848   7.306   0.560  1.1816 -1.9348  1.2833
20628SOL     OW63751   1.759   4.071   6.405  0.6680  0.6168 -0.7556
20628SOL    HW163752   1.826   4.110   6.349  1.4365 -1.1440 -1.1210
20628SOL    HW263753   1.714   4.008   6.348 -0.5334  0.9306 -0.1851
20629SOL     OW63754   1.004   3.001   3.567 -0.5851  0.2218 -0.5186
20629SOL    HW163755   0.980   3.026   3.478 -0.3913 -1.0357 -0.9390
20629SOL    HW263756   0.929   2.952   3.600 -1.7624  2.8237  0.9955
20630SOL     OW63757   5.726   8.438   4.853  0.1134  0.1874 -0.2514
20630SOL    HW163758   5.809   8.391   4.845  0.0777  0.3191 -1.7250
20630SOL    HW263759   5.749   8.529   4.837 -0.1784  0.3686  0.3235
20631SOL     OW63760   6.560   7.334   3.927 -0.4823  0.0612  0.1493
20631SOL    HW163761   6.617   7.387   3.983  0.5252  0.5285 -1.2641
20631SOL    HW263762   6.579   7.244   3.952  0.6893  0.2236 -0.1100
20632SOL     OW63763   8.895   0.352   1.350 -0.0224 -0.1576 -0.0995
20632SOL    HW163764   8.819   0.300   1.376  0.3659 -0.4831  0.4098
20632SOL    HW263765   8.858   0.430   1.308 -0.6058 -1.0197 -1.2470
20633SOL     OW63766   2.758   8.267   5.286 -0.0938  0.9559  0.2066
20633SOL    HW163767   2.692   8.311   5.341  0.1000 -0.6692  1.8098
20633SOL    HW263768   2.831   8.250   5.345  0.9991  1.0040 -1.0924
20634SOL     OW63769   2.156   2.927   1.768  0.7556  0.4259 -0.4602
20634SOL    HW163770   2.066   2.900   1.787  0.8230  0.5923  0.1107
20634SOL    HW263771   2.167   2.910   1.674  0.1430  0.3739 -0.5249
20635SOL     OW63772   1.131   4.101   5.326 -0.4982  0.3678  0.2215
20635SOL    HW163773   1.052   4.138   5.365 -0.8122  0.8088 -0.8201
20635SOL    HW263774   1.099   4.040   5.260  0.0352 -0.5093  0.7367
20636SOL     OW63775   4.142   7.126   7.255 -0.2966 -0.1536  0.5666
20636SOL    HW163776   4.205   7.126   7.327 -1.7230 -0.9090  1.8813
20636SOL    HW263777   4.128   7.034   7.236  0.5099  0.0463 -1.1289
20637SOL     OW63778   7.127   6.835   1.554  0.2763 -0.3950  0.3270
20637SOL    HW163779   7.069   6.800   1.486  0.6895  0.4643 -0.4932
20637SOL    HW263780   7.209   6.854   1.508  0.2333  1.1367  0.8373
20638SOL     OW63781   2.327   3.140   4.423  0.5434 -0.0566 -0.4405
20638SOL    HW163782   2.345   3.183   4.340 -0.0703  0.5885 -0.2472
20638SOL    HW263783   2.324   3.212   4.487 -0.5134 -0.3765 -0.1165
20639SOL     OW63784   5.665   2.755   4.323 -0.0145  0.0887 -0.8879
20639SOL    HW163785   5.708   2.670   4.318  1.4703  0.5391  2.2453
20639SOL    HW263786   5.718   2.811   4.267  1.2185 -0.2648 -0.1236
20640SOL     OW63787   6.074   6.741   4.179  0.2622  0.3680 -0.7028
20640SOL    HW163788   6.049   6.658   4.139 -0.1429  0.7504 -1.2728
20640SOL    HW263789   6.169   6.745   4.169  0.2066  0.2855 -1.3166
20641SOL     OW63790   8.931   4.479   2.304 -0.3531 -0.0866  0.3435
20641SOL    HW163791   9.002   4.433   2.261 -0.9400 -0.6396 -0.0619
20641SOL    HW263792   8.972   4.525   2.377  0.5370  0.2353 -0.3394
20642SOL     OW63793   8.001   0.832   5.018 -0.1611  0.2968 -0.5548
20642SOL    HW163794   7.941   0.765   4.986 -2.6216  1.5829  0.9947
20642SOL    HW263795   7.967   0.914   4.981 -1.8014  1.5488  3.2194
20643SOL     OW63796   4.950   8.902   4.276  0.1137 -0.1711 -0.2333
20643SOL    HW163797   4.952   8.971   4.343  1.3712 -0.4773  0.0563
20643SOL    HW263798   4.992   8.941   4.200 -0.0110 -0.3167 -0.3784
20644SOL     OW63799   1.975   8.994   7.552 -0.1829 -0.1735  0.4345
20644SOL    HW163800   1.909   9.062   7.566  1.3642  0.8297  3.9820
20644SOL    HW263801   2.056   9.042   7.535  0.4737 -1.2159  0.5310
20645SOL     OW63802   2.080   2.902   2.091  0.2529  0.8566  0.2705
20645SOL    HW163803   2.108   2.943   2.009  1.0577  0.1680  0.1916
20645SOL    HW263804   2.096   2.969   2.158  1.2624  0.7999  0.0994
20646SOL     OW63805   2.504   4.058   8.331  0.2827 -0.3801  0.0802
20646SOL    HW163806   2.471   3.971   8.307 -0.3139  0.4834 -2.5345
20646SOL    HW263807   2.595   4.042   8.356 -0.0883 -1.8753  0.6080
20647SOL     OW63808   2.116   0.286   8.779  0.0866  0.2225  0.4475
20647SOL    HW163809   2.051   0.329   8.834  1.0632  0.2807  1.5947
20647SOL    HW263810   2.194   0.279   8.834  1.1624  0.4248 -0.9681
20648SOL     OW63811   4.023   2.334   5.102 -0.3187  0.4163  0.9418
20648SOL    HW163812   4.117   2.340   5.085 -0.7072  0.1750 -1.8717
20648SOL    HW263813   3.990   2.423   5.088 -0.8406 -0.0460 -1.2588
20649SOL     OW63814   8.774   0.447   1.724  0.3213  0.0928 -0.0784
20649SOL    HW163815   8.817   0.370   1.761  1.1964  0.9551  0.7631
20649SOL    HW263816   8.737   0.416   1.642 -0.5222 -1.5482  0.8756
20650SOL     OW63817   6.692   3.359   8.454 -0.3450  0.1949  0.0088
20650SOL    HW163818   6.686   3.264   8.460 -0.8935  0.3342  2.8788
20650SOL    HW263819   6.783   3.380   8.474 -0.0739  0.3018 -1.2134
20651SOL     OW63820   1.085   6.897   8.016 -0.4146  0.0399  0.4103
20651SOL    HW163821   1.030   6.965   8.056  1.0140 -0.1827  2.9408
20651SOL    HW263822   1.161   6.892   8.073  0.7600 -1.8729 -1.2268
20652SOL     OW63823   8.676   8.258   0.057 -0.4997 -0.3012 -0.0835
20652SOL    HW163824   8.697   8.221  -0.028 -0.9693 -0.5512 -0.0941
20652SOL    HW263825   8.656   8.350   0.039  0.3257 -0.1168 -0.1052
20653SOL     OW63826   8.717   4.651   5.706 -0.2166  0.1941  0.1499
20653SOL    HW163827   8.719   4.677   5.798 -1.4615  0.1994  0.1909
20653SOL    HW263828   8.807   4.664   5.676  0.4724 -0.8059  1.6231
20654SOL     OW63829   5.588   0.779   7.803  0.3082 -0.3492 -0.1604
20654SOL    HW163830   5.610   0.815   7.889 -0.3386 -0.9659  0.2845
20654SOL    HW263831   5.497   0.805   7.790  0.2687 -0.6302 -0.4529
20655SOL     OW63832   2.129   6.567   1.346 -0.1234 -0.2195 -0.2525
20655SOL    HW163833   2.105   6.644   1.293  0.0014 -0.1561 -0.2160
20655SOL    HW263834   2.200   6.526   1.297  0.8984  0.5819  0.5429
20656SOL     OW63835   4.523   3.751   5.125 -0.5351  0.0176  0.4515
20656SOL    HW163836   4.437   3.710   5.125 -0.3740 -0.3256  0.1683
20656SOL    HW263837   4.561   3.729   5.210 -0.1064 -1.1628 -0.0243
20657SOL     OW63838   4.712   2.936   7.127  0.5654  0.4708 -0.3855
20657SOL    HW163839   4.767   2.961   7.053  1.7156  0.9168  0.5956
20657SOL    HW263840   4.652   3.010   7.138  0.3293  0.3642 -0.9122
20658SOL     OW63841   1.266   6.519   3.063 -0.2007 -0.6420  0.1356
20658SOL    HW163842   1.251   6.501   2.970 -1.0615  0.5090  0.0340
20658SOL    HW263843   1.188   6.486   3.107  0.7622 -2.3761  0.6403
20659SOL     OW63844   5.231   3.616   8.998  0.1315 -0.1857  0.0863
20659SOL    HW163845   5.138   3.636   8.984  0.0310 -0.9396 -0.4152
20659SOL    HW263846   5.232   3.523   9.022  0.7622 -0.2086 -0.0124
20660SOL     OW63847   6.464   1.875   6.988 -0.5577  0.1304  0.0976
20660SOL    HW163848   6.412   1.830   6.922 -0.5919  1.1611 -0.5908
20660SOL    HW263849   6.542   1.905   6.942 -0.5953  0.8806  0.5134
20661SOL     OW63850   0.740   4.402   2.505 -0.5778  0.7613  0.4894
20661SOL    HW163851   0.810   4.401   2.440  0.6726 -1.8350  1.7112
20661SOL    HW263852   0.773   4.460   2.574  1.2182 -1.6139  1.7684
20662SOL     OW63853   3.272   3.018   6.790  0.0690 -0.0696  0.1577
20662SOL    HW163854   3.202   2.991   6.730  2.4078 -1.0506 -2.3666
20662SOL    HW263855   3.251   3.109   6.811 -1.8335 -0.2597 -0.6601
20663SOL     OW63856   6.752   3.018   8.922  1.0085 -0.3312 -0.4248
20663SOL    HW163857   6.677   3.000   8.865  0.8587  0.1868 -0.3966
20663SOL    HW263858   6.827   2.979   8.876  0.6829 -1.1234 -0.3010
20664SOL     OW63859   5.136   1.590   7.442 -0.3638  0.0311  0.1997
20664SOL    HW163860   5.143   1.554   7.531 -0.7596  0.4845  0.4209
20664SOL    HW263861   5.154   1.683   7.453  2.1760 -0.2811 -0.5973
20665SOL     OW63862   6.793   5.449   1.616 -0.1366 -0.1945  0.2024
20665SOL    HW163863   6.811   5.530   1.569 -0.2876 -0.1364  0.2439
20665SOL    HW263864   6.784   5.383   1.547 -1.2280  0.0558  0.0968
20666SOL     OW63865   4.755   7.782   3.700 -0.7154  0.1802 -0.4396
20666SOL    HW163866   4.738   7.730   3.778  2.2076 -1.6028 -0.8602
20666SOL    HW263867   4.833   7.833   3.721  0.0765 -0.2596 -2.0899
20667SOL     OW63868   1.179   1.694   1.265 -0.4191  0.1354  0.4657
20667SOL    HW163869   1.269   1.665   1.250  0.1989  2.0130  0.2629
20667SOL    HW263870   1.153   1.651   1.347 -0.0027 -1.8148 -0.3737
20668SOL     OW63871   6.567   3.181   8.115 -0.1973  0.3361 -0.1191
20668SOL    HW163872   6.536   3.102   8.160 -0.7558  0.9124  0.5359
20668SOL    HW263873   6.628   3.222   8.177  0.9719 -0.1546 -0.9127
20669SOL     OW63874   5.120   3.272   8.784 -0.3366  0.3278 -0.4957
20669SOL    HW163875   5.192   3.216   8.753  0.3718 -0.4718  2.2768
20669SOL    HW263876   5.151   3.306   8.868 -3.1653 -0.0804  0.8463
20670SOL     OW63877   1.511   7.257   7.098  0.0678  0.1517 -0.1402
20670SOL    HW163878   1.529   7.203   7.175  1.2853  0.2060 -0.3533
20670SOL    HW263879   1.452   7.325   7.128  1.1074  0.6100  0.9368
20671SOL     OW63880   7.748   3.204   8.376 -0.1767  0.1492 -0.4091
20671SOL    HW163881   7.794   3.185   8.457 -0.0720 -0.0959 -0.5248
20671SOL    HW263882   7.817   3.223   8.313 -0.2954  2.0496 -0.0363
20672SOL     OW63883   4.509   2.562   0.895 -0.6979 -0.3235 -0.7746
20672SOL    HW163884   4.519   2.613   0.975  1.3881 -0.7251 -0.7249
20672SOL    HW263885   4.489   2.473   0.925 -3.6962  0.2249 -0.8490
20673SOL     OW63886   5.971   7.853   4.316  0.0228  0.7955 -0.0738
20673SOL    HW163887   5.921   7.772   4.326 -0.0060  0.8017 -0.1703
20673SOL    HW263888   5.956   7.879   4.225 -1.1727  1.6987  0.3447
20674SOL     OW63889   3.333   4.947   0.086 -0.1295  0.0671 -0.3028
20674SOL    HW163890   3.343   4.904   0.171  0.1153 -0.1543 -0.4414
20674SOL    HW263891   3.238   4.949   0.071 -0.1044 -1.9231 -1.0402
20675SOL     OW63892   4.771   1.280   2.936 -0.0438 -0.3310  0.0203
20675SOL    HW163893   4.823   1.214   2.890 -0.3553 -0.6179  0.0703
20675SOL    HW263894   4.689   1.284   2.887  0.2928  0.6393 -0.4815
20676SOL     OW63895   5.880   3.198   4.840 -0.0898  0.3730 -0.2424
20676SOL    HW163896   5.955   3.138   4.844  0.7197  1.3111 -0.8946
20676SOL    HW263897   5.899   3.256   4.766 -1.2506  0.9181 -0.1400
20677SOL     OW63898   2.659   4.229   0.088  0.5474  0.7877  0.1209
20677SOL    HW163899   2.596   4.253   0.156  1.3144  1.4632  0.6010
20677SOL    HW263900   2.706   4.310   0.068 -0.1243  0.7769 -1.7259
20678SOL     OW63901   5.566   7.878   1.070 -0.0729  0.5830  0.0815
20678SOL    HW163902   5.632   7.932   1.113  1.0587 -0.9915  0.3880
20678SOL    HW263903   5.536   7.817   1.138  0.1540 -0.4968 -0.7513
20679SOL     OW63904   3.725   1.042   6.401 -0.2104 -0.4573  0.2018
20679SOL    HW163905   3.783   1.064   6.474 -1.4477  1.2256  0.7499
20679SOL    HW263906   3.646   1.006   6.442  0.0198 -1.7689 -0.4683
20680SOL     OW63907   8.757   7.251   5.782 -0.0532  0.0098  0.3224
20680SOL    HW163908   8.698   7.202   5.726  0.4128  0.4817 -0.6018
20680SOL    HW263909   8.842   7.208   5.770 -0.0723 -0.2916  1.1807
20681SOL     OW63910   7.543   1.330   2.593 -0.0520  0.0296  0.7078
20681SOL    HW163911   7.629   1.287   2.594  0.2785  0.6341 -0.0980
20681SOL    HW263912   7.564   1.423   2.587 -0.7550  0.3128  2.3762
20682SOL     OW63913   5.368   0.803   8.253  0.6299  0.0431  0.1269
20682SOL    HW163914   5.401   0.713   8.253  0.6626  0.0234 -1.8366
20682SOL    HW263915   5.292   0.801   8.195 -0.1710  1.0338  1.0951
20683SOL     OW63916   1.784   7.426   7.608  0.1597  0.5502  0.1118
20683SOL    HW163917   1.764   7.333   7.617 -0.0237  0.5543 -0.2230
20683SOL    HW263918   1.863   7.428   7.553 -0.6658  0.6374 -1.1037
20684SOL     OW63919   4.332   1.617   8.598  0.4085 -0.3596  0.1540
20684SOL    HW163920   4.314   1.636   8.506 -1.8811  1.4184  0.8785
20684SOL    HW263921   4.402   1.551   8.596  0.3181 -0.4803 -2.8256
20685SOL     OW63922   7.649   2.005   8.761 -0.2405  0.3926 -0.2760
20685SOL    HW163923   7.679   2.014   8.670 -1.1187 -2.4711 -0.9848
20685SOL    HW263924   7.656   1.911   8.779  1.3141  1.0214  3.1977
20686SOL     OW63925   6.823   5.380   0.430 -0.0239  0.6304 -0.0577
20686SOL    HW163926   6.910   5.398   0.465 -0.4121  2.8159 -0.0658
20686SOL    HW263927   6.778   5.465   0.432 -1.4064  0.0424 -2.1291
20687SOL     OW63928   5.979   1.359   3.905 -0.0718  0.0941  0.3904
20687SOL    HW163929   5.975   1.296   3.833 -2.8342  1.3411 -0.6677
20687SOL    HW263930   5.893   1.354   3.946  0.6069  1.2112  2.0446
20688SOL     OW63931   0.187   0.648   3.589 -0.1474 -0.1860 -0.1214
20688SOL    HW163932   0.165   0.700   3.511 -1.6352 -0.5531  0.0235
20688SOL    HW263933   0.151   0.699   3.662  2.5672  0.9392  0.5568
20689SOL     OW63934   0.539   8.958   1.807 -0.1607 -0.0544 -0.5752
20689SOL    HW163935   0.497   8.882   1.848  0.5056  1.3740  3.1211
20689SOL    HW263936   0.466   9.016   1.784 -0.5000  0.1111  0.8423
20690SOL     OW63937   6.190   5.168   7.040  0.3196 -0.3279  0.4878
20690SOL    HW163938   6.234   5.210   7.114  0.8428  0.8971 -0.4805
20690SOL    HW263939   6.210   5.225   6.965 -1.6740 -0.5512 -0.2696
20691SOL     OW63940   5.284   4.187   0.089  0.1665 -0.9168 -0.2121
20691SOL    HW163941   5.260   4.246   0.018  0.0352 -0.0481  0.5391
20691SOL    HW263942   5.208   4.130   0.100 -1.2805  1.1702  1.4952
20692SOL     OW63943   3.661   7.513   8.127  0.2927  0.0293 -0.3622
20692SOL    HW163944   3.750   7.538   8.103  0.6206 -1.5366 -0.9241
20692SOL    HW263945   3.663   7.501   8.221  1.6976 -3.4081 -0.6785
20693SOL     OW63946   3.775   2.603   1.602 -0.3903 -0.1128  0.0608
20693SOL    HW163947   3.701   2.663   1.611 -0.4999 -0.3027  0.4547
20693SOL    HW263948   3.844   2.643   1.655 -0.7478 -0.7740  1.0718
20694SOL     OW63949   0.259   6.109   4.514  0.7630  0.6569 -0.1458
20694SOL    HW163950   0.343   6.150   4.537 -0.1042  1.2455  2.1813
20694SOL    HW263951   0.228   6.070   4.595 -1.0162  0.0158 -1.0784
20695SOL     OW63952   5.640   5.625   3.497 -0.0707  0.4786 -0.0866
20695SOL    HW163953   5.578   5.642   3.426 -1.6733  0.4478  1.2533
20695SOL    HW263954   5.631   5.531   3.514 -1.2186  0.8556  1.4999
20696SOL     OW63955   0.630   2.563   0.056  0.3680  0.2934 -0.2123
20696SOL    HW163956   0.704   2.539   0.001 -0.1717  0.1920 -0.9059
20696SOL    HW263957   0.625   2.492   0.121  1.0349  0.4387 -0.0004
20697SOL     OW63958   8.351   2.978   4.121  1.0060  0.6644  0.6910
20697SOL    HW163959   8.399   3.003   4.200  1.4433  0.3224  0.5377
20697SOL    HW263960   8.260   2.970   4.149  1.5658 -2.4863  1.8964
20698SOL     OW63961   6.407   7.519   7.433  0.2653 -0.2393 -0.6299
20698SOL    HW163962   6.406   7.557   7.345 -0.2261  0.2541 -0.4211
20698SOL    HW263963   6.368   7.433   7.423  1.9319 -0.9587 -1.2179
20699SOL     OW63964   0.611   7.611   5.230  0.2875  0.1409 -0.1855
20699SOL    HW163965   0.684   7.550   5.239  0.2143  0.1921  0.8868
20699SOL    HW263966   0.623   7.651   5.144  0.1139 -1.6644 -1.0894
20700SOL     OW63967   6.127   2.085   2.558  0.2856 -0.5482  0.3735
20700SOL    HW163968   6.140   2.047   2.645 -0.7485 -0.3263  0.6428
20700SOL    HW263969   6.091   2.172   2.575  0.0337 -0.5215 -0.2783
20701SOL     OW63970   2.554   4.601   0.636 -0.4679 -0.6411 -0.1969
20701SOL    HW163971   2.586   4.639   0.718 -0.5823  0.5291 -0.6871
20701SOL    HW263972   2.609   4.640   0.569 -0.5145 -1.4407 -0.7091
20702SOL     OW63973   6.652   4.369   0.759  0.1609  0.3827  0.1374
20702SOL    HW163974   6.622   4.375   0.668 -0.3082  0.4800  0.2941
20702SOL    HW263975   6.702   4.288   0.762  1.6757  1.2546 -0.6245
20703SOL     OW63976   5.237   4.844   7.826 -0.5897  0.0967 -0.2692
20703SOL    HW163977   5.193   4.895   7.894  0.4491 -1.2998  1.5673
20703SOL    HW263978   5.322   4.886   7.815 -1.2231  1.0861 -1.7190
20704SOL     OW63979   5.227   1.742   4.060 -0.2358  0.3865  0.1205
20704SOL    HW163980   5.200   1.827   4.095  0.9231  1.0501 -0.5325
20704SOL    HW263981   5.320   1.737   4.079 -0.4759 -1.2264  1.0774
20705SOL     OW63982   1.115   3.753   6.747  0.1121 -0.0091  0.2010
20705SOL    HW163983   1.021   3.735   6.751  0.0082  0.6989  1.4628
20705SOL    HW263984   1.120   3.847   6.728  0.5254  0.2297  1.3970
20706SOL     OW63985   3.897   6.736   2.714  0.0115 -0.0846  0.0736
20706SOL    HW163986   3.848   6.655   2.704  2.3449 -1.6706  0.5920
20706SOL    HW263987   3.984   6.708   2.745  0.8157  2.6342  0.5776
20707SOL     OW63988   1.601   2.936   0.745  0.1730  0.0695  0.0670
20707SOL    HW163989   1.555   2.855   0.724  1.8768 -1.3856  1.5743
20707SOL    HW263990   1.679   2.935   0.690  1.3857 -0.5498  1.7099
20708SOL     OW63991   3.223   4.388   2.500  0.0897  0.2711  0.2191
20708SOL    HW163992   3.312   4.412   2.527  0.0219 -0.1046  0.7901
20708SOL    HW263993   3.167   4.423   2.570 -0.0014 -1.7072  1.2124
20709SOL     OW63994   8.664   8.412   2.288  0.1804  0.1087 -0.6195
20709SOL    HW163995   8.609   8.410   2.209  1.1425 -1.4424 -1.3045
20709SOL    HW263996   8.604   8.393   2.360 -0.8073  2.0395 -0.8657
20710SOL     OW63997   2.339   6.541   2.970 -0.1106 -0.0074 -0.5212
20710SOL    HW163998   2.381   6.485   2.905  2.1503  0.5280  0.3967
20710SOL    HW263999   2.338   6.628   2.929  3.3039  0.8039  0.8574
20711SOL     OW64000   7.176   0.161   5.044  0.3731 -0.2365 -0.1919
20711SOL    HW164001   7.184   0.145   5.138 -0.1420  0.3021 -0.0458
20711SOL    HW264002   7.113   0.096   5.014  0.9003 -0.7187 -0.2559
20712SOL     OW64003   5.303   2.100   0.231  0.9788 -0.2375 -0.0666
20712SOL    HW164004   5.318   2.037   0.161 -1.6526  0.3553 -1.2578
20712SOL    HW264005   5.244   2.055   0.292  1.3482  0.1012  0.5572
20713SOL     OW64006   3.431   7.726   0.982  0.6436  0.0947 -0.0362
20713SOL    HW164007   3.338   7.704   0.971  0.6846  0.6497 -1.7766
20713SOL    HW264008   3.430   7.816   1.014  0.5668  0.4699 -1.0486
20714SOL     OW64009   6.209   6.816   0.846 -0.2112  0.2099  0.4136
20714SOL    HW164010   6.190   6.810   0.752 -2.0488 -1.0871  0.8079
20714SOL    HW264011   6.209   6.910   0.865 -1.9042  0.4409 -0.5284
20715SOL     OW64012   0.586   7.142   4.962 -0.0120  0.2879 -0.3820
20715SOL    HW164013   0.490   7.137   4.967  0.0841 -0.4329  1.2131
20715SOL    HW264014   0.616   7.054   4.984  1.0524  0.9531  0.9396
20716SOL     OW64015   5.341   3.255   4.283  0.1249 -0.6569  0.4574
20716SOL    HW164016   5.353   3.191   4.353  3.0221 -1.2387 -0.4208
20716SOL    HW264017   5.377   3.336   4.319  0.7292 -0.7184  0.0115
20717SOL     OW64018   8.474   5.062   4.546  0.2368  0.1887 -0.0692
20717SOL    HW164019   8.556   5.039   4.502 -0.4084 -2.8787  0.0647
20717SOL    HW264020   8.486   5.032   4.636 -1.4523 -1.6707 -0.3898
20718SOL     OW64021   0.998   5.301   2.570 -0.0814  0.0147 -0.1974
20718SOL    HW164022   1.077   5.248   2.556 -0.2110 -0.1709 -0.2299
20718SOL    HW264023   0.963   5.316   2.482  0.0283  0.2683 -0.1980
20719SOL     OW64024   4.017   5.090   6.752 -0.0054  0.1488  0.0410
20719SOL    HW164025   4.100   5.050   6.778 -0.9695 -1.9462  0.1309
20719SOL    HW264026   4.042   5.173   6.712  2.0692 -0.0846  0.7133
20720SOL     OW64027   8.192   4.090   2.156 -0.1680  0.2707  0.0843
20720SOL    HW164028   8.164   4.083   2.247  0.3335 -1.5306  0.1284
20720SOL    HW264029   8.145   4.020   2.110 -1.9244  2.3251 -1.5000
20721SOL     OW64030   3.437   0.321   8.280  0.5347 -0.4078  0.2068
20721SOL    HW164031   3.454   0.348   8.189  0.7104 -0.9075  0.0872
20721SOL    HW264032   3.518   0.342   8.326 -0.1660  1.4922  0.6456
20722SOL     OW64033   2.436   0.019   3.233  0.1040 -0.1965 -0.5321
20722SOL    HW164034   2.480  -0.059   3.201  0.6952 -0.9868  2.0079
20722SOL    HW264035   2.374  -0.014   3.298  0.6116  1.4618  0.8438
20723SOL     OW64036   2.946   4.282   6.818  0.4484 -0.3074 -0.1484
20723SOL    HW164037   2.905   4.264   6.903  0.3154  0.5980 -0.0145
20723SOL    HW264038   2.890   4.238   6.755  0.7405 -1.2825  0.2541
20724SOL     OW64039   5.647   3.758   6.321 -0.5202  0.3150 -0.3960
20724SOL    HW164040   5.712   3.828   6.313 -1.2419  0.9496 -0.8249
20724SOL    HW264041   5.694   3.679   6.296  0.0449  0.7891 -0.8701
20725SOL     OW64042   1.947   3.897   5.082 -0.2350  0.2766 -0.3114
20725SOL    HW164043   2.028   3.878   5.130 -0.0044  1.5322 -0.1609
20725SOL    HW264044   1.975   3.919   4.994 -0.3775  0.9155 -0.2063
20726SOL     OW64045   7.581   5.511   6.908 -0.1806 -0.3746 -0.6981
20726SOL    HW164046   7.524   5.494   6.983 -0.3741 -3.4377 -1.4308
20726SOL    HW264047   7.560   5.601   6.883 -2.8411 -0.5218  0.6096
20727SOL     OW64048   5.115   2.921   3.492  0.6420 -0.0616 -0.2846
20727SOL    HW164049   5.173   2.869   3.547  0.7696  0.2590 -0.1154
20727SOL    HW264050   5.097   3.000   3.542  0.8857  0.3039 -0.7614
20728SOL     OW64051   7.286   8.663   3.142  0.0914  0.5267 -0.3516
20728SOL    HW164052   7.270   8.571   3.120 -1.2948  1.0603 -1.7052
20728SOL    HW264053   7.215   8.686   3.202  0.6831  0.6134  0.3291
20729SOL     OW64054   0.027   7.622   4.936 -0.3097 -0.6187 -0.4402
20729SOL    HW164055  -0.015   7.705   4.913 -0.3774  0.1390  2.0899
20729SOL    HW264056   0.118   7.646   4.953  0.2984 -1.5644 -2.0684
20730SOL     OW64057   8.158   6.147   3.665  0.1343  0.4818  0.6415
20730SOL    HW164058   8.140   6.184   3.579 -0.0338 -1.4024 -0.1902
20730SOL    HW264059   8.251   6.163   3.680 -0.0823  1.8221  0.6446
20731SOL     OW64060   0.871   1.247   0.910 -0.0902  0.3202 -0.3227
20731SOL    HW164061   0.822   1.249   0.828  0.7117 -0.8482 -0.8610
20731SOL    HW264062   0.957   1.283   0.887  0.3296 -0.5339 -0.1619
20732SOL     OW64063   0.208   3.841   4.454 -0.0178 -0.2357 -0.4056
20732SOL    HW164064   0.224   3.789   4.375 -0.9115 -2.0688  0.5614
20732SOL    HW264065   0.267   3.803   4.520  0.1998  0.8074  0.0224
20733SOL     OW64066   1.491   7.692   0.052  0.1804  0.1656 -0.3076
20733SOL    HW164067   1.556   7.657   0.114  0.4308 -3.1508 -2.2432
20733SOL    HW264068   1.430   7.620   0.037 -2.5882  2.3675 -0.5092
20734SOL     OW64069   8.652   2.821   8.523 -0.1301 -0.3383  0.0001
20734SOL    HW164070   8.582   2.819   8.458  0.4443 -0.5248 -0.6292
20734SOL    HW264071   8.677   2.730   8.535 -1.2942 -0.4685  1.6874
20735SOL     OW64072   0.244   5.341   4.232 -0.4754  0.0102 -0.2919
20735SOL    HW164073   0.215   5.263   4.183 -1.2714  0.2980 -0.2833
20735SOL    HW264074   0.339   5.338   4.226 -0.2633 -2.6272  2.2425
20736SOL     OW64075   6.353   6.437   4.668 -0.4636  0.1124  0.1985
20736SOL    HW164076   6.283   6.376   4.693 -1.3638  0.4273 -1.4272
20736SOL    HW264077   6.346   6.508   4.731 -0.8302 -0.4198  0.7746
20737SOL     OW64078   6.201   5.407   1.546  0.2414  0.1910 -0.3871
20737SOL    HW164079   6.134   5.466   1.511  0.7831  0.8627 -0.3172
20737SOL    HW264080   6.282   5.435   1.503  0.9524  1.1109  1.4576
20738SOL     OW64081   5.456   8.345   3.679  0.2528  0.0857 -0.2423
20738SOL    HW164082   5.420   8.257   3.692  0.5559 -0.0202 -0.0887
20738SOL    HW264083   5.522   8.354   3.749 -0.5160  0.8466  0.4166
20739SOL     OW64084   3.574   0.835   6.723  0.3013  0.0805 -0.1826
20739SOL    HW164085   3.583   0.740   6.727 -0.8072 -0.0268  0.2300
20739SOL    HW264086   3.572   0.855   6.630  0.6831 -0.2895 -0.2703
20740SOL     OW64087   4.077   0.359   6.362 -0.1693 -0.2278 -0.2281
20740SOL    HW164088   4.068   0.277   6.314  0.4958 -0.4848  0.0768
20740SOL    HW264089   4.023   0.347   6.440  0.5378 -0.6761  0.1979
20741SOL     OW64090   8.843   8.479   8.198  0.4766  0.1331  0.3462
20741SOL    HW164091   8.785   8.554   8.211  0.9024  1.0436 -2.3893
20741SOL    HW264092   8.914   8.513   8.143  1.4180 -1.9484  0.2050
20742SOL     OW64093   6.320   7.239   3.428  0.3617  0.0685  0.3800
20742SOL    HW164094   6.303   7.190   3.508  2.4704 -0.8941  0.3036
20742SOL    HW264095   6.238   7.232   3.378 -0.2012 -1.3182  1.4238
20743SOL     OW64096   1.392   6.982   1.937  0.4299  0.0793 -0.4315
20743SOL    HW164097   1.384   7.076   1.917  0.8338  0.6671  1.8671
20743SOL    HW264098   1.320   6.965   1.998 -1.0553 -1.7157 -2.5287
20744SOL     OW64099   7.805   3.699   2.975  0.2531 -0.0170  0.4952
20744SOL    HW164100   7.718   3.725   2.943 -0.5577 -1.0668  1.7365
20744SOL    HW264101   7.808   3.734   3.064  1.6644  1.1470  0.0224
20745SOL     OW64102   2.638   1.533   8.711 -0.3242 -0.4537  0.6739
20745SOL    HW164103   2.645   1.556   8.804  0.6296 -1.2654  0.8224
20745SOL    HW264104   2.545   1.519   8.697 -0.5749  0.4974  1.3007
20746SOL     OW64105   0.621   4.134   3.668 -0.4850 -0.3235 -0.3803
20746SOL    HW164106   0.679   4.194   3.621 -0.0447 -2.7928 -3.3463
20746SOL    HW264107   0.678   4.089   3.730 -0.5040  1.1632  0.7607
20747SOL     OW64108   1.881   2.018   1.988 -1.1035  0.1162 -0.3327
20747SOL    HW164109   1.946   2.084   1.964  0.0231 -0.0302  2.0290
20747SOL    HW264110   1.918   1.935   1.958 -0.8212  0.1760 -0.1516
20748SOL     OW64111   8.420   0.381   6.952  0.5802  0.3937 -0.0930
20748SOL    HW164112   8.385   0.301   6.992 -0.5374  0.5136 -0.7849
20748SOL    HW264113   8.507   0.391   6.990  0.8349 -1.2872 -0.1778
20749SOL     OW64114   6.861   7.638   1.434 -0.0001  0.2263  0.1339
20749SOL    HW164115   6.843   7.684   1.516 -1.3679  0.1554 -0.0977
20749SOL    HW264116   6.906   7.703   1.380  0.5967  0.3818  0.8054
20750SOL     OW64117   5.780   6.460   4.826  0.1401  0.5615  0.2628
20750SOL    HW164118   5.779   6.513   4.746  0.4227 -1.4781 -1.1639
20750SOL    HW264119   5.873   6.451   4.847  0.1412 -0.0413  0.0148
20751SOL     OW64120   3.784   7.258   3.474  0.0910  0.2107 -0.0952
20751SOL    HW164121   3.732   7.179   3.465 -0.1372  0.4792 -1.2739
20751SOL    HW264122   3.816   7.255   3.564 -1.0068 -0.5405  0.2979
20752SOL     OW64123   2.693   6.344   0.588  0.2578  0.1129 -0.4061
20752SOL    HW164124   2.621   6.407   0.590 -1.0612 -1.3016  1.3528
20752SOL    HW264125   2.661   6.273   0.533  0.9990  0.1945 -0.9492
20753SOL     OW64126   8.170   8.624   7.754 -0.0785  0.4711 -0.0952
20753SOL    HW164127   8.170   8.537   7.713  1.6289  1.1526 -1.6525
20753SOL    HW264128   8.117   8.678   7.696 -0.4746  0.6647  0.4415
20754SOL     OW64129   0.879   2.035   0.040 -0.4200 -0.4430 -0.1477
20754SOL    HW164130   0.968   2.011   0.013  0.8883  1.3805  2.1019
20754SOL    HW264131   0.869   1.994   0.126 -2.3214 -1.6639 -0.8949
20755SOL     OW64132   2.821   5.636   4.822  0.5197  0.5214 -0.2858
20755SOL    HW164133   2.913   5.609   4.821  0.0058 -1.3736 -1.0953
20755SOL    HW264134   2.779   5.579   4.887 -0.1654  1.1061 -0.1965
20756SOL     OW64135   8.862   6.926   1.610  1.0066 -0.0547 -0.0374
20756SOL    HW164136   8.866   6.886   1.523  0.9279 -1.1644  0.4601
20756SOL    HW264137   8.836   7.017   1.593  3.2951  0.4288 -1.3781
20757SOL     OW64138   3.960   5.570   6.486  0.0563 -0.1704 -0.1486
20757SOL    HW164139   3.930   5.646   6.436  0.1253 -1.0842 -1.6426
20757SOL    HW264140   3.960   5.600   6.577 -3.4057  0.5274 -0.2499
20758SOL     OW64141   5.949   5.771   2.459 -0.8946  0.1567 -0.0090
20758SOL    HW164142   5.875   5.711   2.458 -0.9077  0.1253  1.4527
20758SOL    HW264143   5.923   5.841   2.518  0.0337  0.4119  0.1175
20759SOL     OW64144   5.125   2.520   6.745  0.3678  0.0943  0.0337
20759SOL    HW164145   5.211   2.505   6.706  2.7922  2.0007  4.0232
20759SOL    HW264146   5.136   2.498   6.837 -3.0766  1.5457  0.9476
20760SOL     OW64147   6.347   7.632   3.467 -0.1165 -0.4288 -0.1628
20760SOL    HW164148   6.401   7.570   3.516 -0.5975 -0.1643  0.7182
20760SOL    HW264149   6.343   7.710   3.523 -1.5337 -0.5002 -0.1406
20761SOL     OW64150   4.647   6.950   4.706  0.0595  0.3160 -0.0157
20761SOL    HW164151   4.647   6.865   4.663  1.2494  0.0866  0.4134
20761SOL    HW264152   4.646   6.930   4.799  0.3277  0.7700  0.0882
20762SOL     OW64153   3.586   7.669   8.778  0.2287  0.0754  0.3829
20762SOL    HW164154   3.606   7.703   8.691 -2.2399  1.4982  0.2731
20762SOL    HW264155   3.632   7.727   8.838 -1.1197  1.5521  0.0722
20763SOL     OW64156   3.456   0.664   1.093  0.1410 -0.6149 -0.0786
20763SOL    HW164157   3.531   0.694   1.144 -0.5044 -1.2994  1.3238
20763SOL    HW264158   3.432   0.580   1.132 -2.7741  0.6140  1.0628
20764SOL     OW64159   0.430   7.317   5.374  0.2892 -0.0300 -0.1554
20764SOL    HW164160   0.521   7.304   5.401  0.7037  0.8823 -1.0589
20764SOL    HW264161   0.401   7.231   5.344  0.9477 -0.2636 -0.1383
20765SOL     OW64162   5.071   0.607   1.207  0.5065  0.1823 -0.5751
20765SOL    HW164163   5.085   0.544   1.277  0.0414  0.3749 -0.3014
20765SOL    HW264164   4.995   0.574   1.159  0.8137  0.0602 -0.9797
20766SOL     OW64165   7.240   5.641   0.444  0.1717  0.4009 -0.4637
20766SOL    HW164166   7.212   5.665   0.532 -1.5512  0.1657 -0.9165
20766SOL    HW264167   7.212   5.550   0.433  1.7092 -0.0807 -0.7486
20767SOL     OW64168   5.668   0.440   0.735 -0.4184 -0.0877 -0.0266
20767SOL    HW164169   5.574   0.429   0.745 -0.2935 -0.8642  0.3440
20767SOL    HW264170   5.678   0.495   0.657 -1.2523  2.0897  1.3219
20768SOL     OW64171   8.871   4.448   4.075  0.0621  0.7371  0.1764
20768SOL    HW164172   8.870   4.359   4.110 -0.0680  0.8230  0.3922
20768SOL    HW264173   8.961   4.460   4.044 -0.4260 -0.2204 -1.8212
20769SOL     OW64174   3.230   4.485   6.872 -0.4647 -0.0460 -0.9703
20769SOL    HW164175   3.249   4.391   6.875 -0.8538 -0.1394 -1.2979
20769SOL    HW264176   3.144   4.490   6.830 -0.9210  0.3889 -0.0063
20770SOL     OW64177   4.600   6.806   2.562 -0.3797  0.5994 -0.3046
20770SOL    HW164178   4.653   6.805   2.482 -1.5471 -1.3162 -1.1149
20770SOL    HW264179   4.663   6.792   2.632  0.1516 -3.6285 -1.3653
20771SOL     OW64180   6.726   7.954   8.101  0.0860 -0.0169 -0.0578
20771SOL    HW164181   6.781   7.876   8.112 -0.3495 -0.3097  0.0934
20771SOL    HW264182   6.748   7.986   8.014 -2.4183 -2.4978 -1.7631
20772SOL     OW64183   1.756   4.834   1.688 -0.0013 -0.3220  0.3959
20772SOL    HW164184   1.824   4.805   1.628 -0.5313 -0.9012  0.0587
20772SOL    HW264185   1.755   4.929   1.680 -1.0021 -0.4496 -1.5709
20773SOL     OW64186   0.967   7.488   6.976 -0.4269  0.1273  0.4563
20773SOL    HW164187   1.008   7.530   6.900 -0.8237  1.8436  1.1285
20773SOL    HW264188   1.040   7.470   7.035 -0.4833  2.7395  1.4478
20774SOL     OW64189   3.705   4.074   0.066  0.9268 -0.1055 -0.1401
20774SOL    HW164190   3.796   4.062   0.036  1.3356 -0.1898  1.0793
20774SOL    HW264191   3.688   4.167   0.051  1.7041  0.2234  0.8571
20775SOL     OW64192   6.272   1.825   0.413 -0.0330  0.2844  0.4601
20775SOL    HW164193   6.345   1.767   0.391 -0.5549 -0.4003  0.5167
20775SOL    HW264194   6.235   1.788   0.493 -0.2675  0.7983  0.5949
20776SOL     OW64195   2.176   7.413   5.341 -0.2574  0.1284 -0.2457
20776SOL    HW164196   2.156   7.451   5.255  0.2376  2.4288  0.6033
20776SOL    HW264197   2.100   7.435   5.395  0.1032  0.0207  0.3069
20777SOL     OW64198   5.292   5.636   5.333 -0.2745 -0.0663 -0.7721
20777SOL    HW164199   5.248   5.638   5.248 -0.1487  0.3539 -0.8296
20777SOL    HW264200   5.238   5.579   5.387 -0.2983 -0.4197 -1.1644
20778SOL     OW64201   8.911   8.578   0.447  0.6962 -0.4103  0.1163
20778SOL    HW164202   8.993   8.559   0.401  1.5575 -0.6620  1.6969
20778SOL    HW264203   8.928   8.554   0.538 -1.6063 -1.8558  0.2438
20779SOL     OW64204   4.276   0.013   0.857 -0.4607  0.3315  0.1085
20779SOL    HW164205   4.312   0.050   0.938 -0.5738 -2.1782  1.3938
20779SOL    HW264206   4.352   0.000   0.800 -0.1542  0.6413  0.4446
20780SOL     OW64207   6.606   4.672   8.247  0.2103  0.1042 -0.1055
20780SOL    HW164208   6.652   4.620   8.180 -1.0016 -0.5300 -0.4721
20780SOL    HW264209   6.523   4.697   8.206 -0.5115 -0.2045  1.1141
20781SOL     OW64210   0.286   2.542   5.149  0.4388  0.3463  0.7650
20781SOL    HW164211   0.381   2.543   5.150  0.5160  3.6378 -0.1643
20781SOL    HW264212   0.260   2.614   5.206 -1.3443  1.5931 -1.4346
20782SOL     OW64213   3.317   3.380   3.538 -0.4116 -0.1660 -0.0524
20782SOL    HW164214   3.311   3.454   3.479 -1.4135 -0.2072 -0.0317
20782SOL    HW264215   3.289   3.305   3.485 -0.1172 -0.4017  0.1259
20783SOL     OW64216   7.181   5.823   1.570 -0.1289  0.0357 -0.0483
20783SOL    HW164217   7.141   5.910   1.560 -0.0616  0.0346 -0.3243
20783SOL    HW264218   7.117   5.773   1.621 -2.1003 -1.0330 -3.2744
20784SOL     OW64219   0.736   6.560   2.520 -0.2627  0.6476  0.2599
20784SOL    HW164220   0.710   6.631   2.460  1.2375  1.3156  0.3475
20784SOL    HW264221   0.794   6.603   2.583 -0.6615 -0.3488  1.3182
20785SOL     OW64222   4.242   5.330   4.247  0.0023 -0.0621 -0.4631
20785SOL    HW164223   4.322   5.292   4.211 -0.7149 -0.5831 -1.5525
20785SOL    HW264224   4.272   5.397   4.309  1.2702 -0.5744 -0.5126
20786SOL     OW64225   7.438   7.183   3.990  0.1543  0.4697 -0.7535
20786SOL    HW164226   7.463   7.093   4.009 -0.1767  0.0545 -2.2023
20786SOL    HW264227   7.516   7.235   4.012  0.0269 -0.0095  1.0415
20787SOL     OW64228   7.749   2.401   3.765 -0.0107 -0.1409  0.3677
20787SOL    HW164229   7.819   2.346   3.731 -0.5637 -1.1451  0.7990
20787SOL    HW264230   7.738   2.470   3.700 -0.1733 -1.2867 -0.8606
20788SOL     OW64231   5.763   0.491   0.189  0.6424 -0.2513 -0.3310
20788SOL    HW164232   5.680   0.532   0.213  0.2834 -1.3651  0.3930
20788SOL    HW264233   5.830   0.549   0.224  0.1845  0.6596 -0.9248
20789SOL     OW64234   3.443   8.449   2.220 -0.1760  0.1966  0.0151
20789SOL    HW164235   3.504   8.463   2.147 -0.7471  0.0439 -0.4988
20789SOL    HW264236   3.434   8.354   2.225 -1.7317  0.2536 -1.0704
20790SOL     OW64237   7.873   1.945   5.872 -0.3902  0.0018  0.2342
20790SOL    HW164238   7.922   1.992   5.939  1.4876  1.3830 -1.9567
20790SOL    HW264239   7.888   1.852   5.891  1.3924  0.3790  0.8665
20791SOL     OW64240   3.523   8.286   4.915  0.8419 -0.1867  0.3487
20791SOL    HW164241   3.537   8.194   4.891 -0.2105  0.3335 -2.8117
20791SOL    HW264242   3.546   8.334   4.836  0.1581  2.1774  1.5115
20792SOL     OW64243   1.059   3.053   6.048 -0.1840 -0.2573  0.1613
20792SOL    HW164244   1.084   2.973   6.003  2.7073  1.4200 -1.5788
20792SOL    HW264245   1.085   3.123   5.988 -0.9928  2.0411  2.3063
20793SOL     OW64246   5.214   5.771   7.106  0.3704 -0.0155  0.6357
20793SOL    HW164247   5.269   5.769   7.028 -0.8234 -0.4566 -0.2345
20793SOL    HW264248   5.274   5.753   7.178  1.8165  2.0852  0.0531
20794SOL     OW64249   7.341   0.513   1.427  0.6806  0.4707  0.2414
20794SOL    HW164250   7.345   0.417   1.422  2.0306  0.4682  0.7443
20794SOL    HW264251   7.378   0.533   1.513  0.0194  1.4363  0.3105
20795SOL     OW64252   4.500   4.960   0.550  0.1357  0.1127 -0.1560
20795SOL    HW164253   4.432   5.026   0.562 -0.7922 -0.5993 -1.3325
20795SOL    HW264254   4.582   5.007   0.567 -0.5764  1.2111  0.3629
20796SOL     OW64255   3.477   5.534   8.228 -0.6412  0.9325 -0.1417
20796SOL    HW164256   3.439   5.471   8.289  1.2663 -1.3558 -1.1250
20796SOL    HW264257   3.402   5.582   8.193 -1.9925  0.6696  2.1973
20797SOL     OW64258   8.808   0.451   6.504  0.3630 -0.1884  0.5729
20797SOL    HW164259   8.720   0.478   6.528  0.7394  0.3830  1.3295
20797SOL    HW264260   8.818   0.478   6.413  0.1812  0.8212  0.8480
20798SOL     OW64261   3.362   6.053   6.833  0.1854 -0.3699  0.0914
20798SOL    HW164262   3.455   6.075   6.835  0.1237 -0.0303 -0.4703
20798SOL    HW264263   3.336   6.070   6.742 -0.9306  1.6220  0.7226
20799SOL     OW64264   8.290   5.693   6.370 -0.1946 -0.1568 -0.5814
20799SOL    HW164265   8.206   5.718   6.331  0.0873 -0.5498 -1.4641
20799SOL    HW264266   8.351   5.690   6.296  0.7123  0.5836  0.1103
20800SOL     OW64267   3.661   1.083   7.641  0.3691  0.0558  0.0722
20800SOL    HW164268   3.650   1.163   7.692  2.2866  0.0944  0.4772
20800SOL    HW264269   3.644   1.012   7.703  2.3829  0.1101  0.7499
20801SOL     OW64270   2.106   0.102   6.455 -0.5305  0.1416 -0.2258
20801SOL    HW164271   2.029   0.070   6.502 -1.4784  0.0117 -1.8154
20801SOL    HW264272   2.091   0.196   6.445 -1.0630 -0.0731 -1.5560
20802SOL     OW64273   4.171   2.027   1.555 -0.0625  0.4030 -0.5316
20802SOL    HW164274   4.090   2.040   1.604 -0.3247 -2.8412  0.1231
20802SOL    HW264275   4.211   2.114   1.551 -2.1349  1.5779  1.6643
20803SOL     OW64276   2.787   0.835   5.640 -0.0212  0.0647  0.5337
20803SOL    HW164277   2.757   0.744   5.629 -2.3465  0.5404  2.1505
20803SOL    HW264278   2.786   0.849   5.734  1.7606  1.3709  0.4046
20804SOL     OW64279   7.232   0.948   4.766  0.4293  0.1827 -0.7955
20804SOL    HW164280   7.181   1.007   4.821  1.2866 -2.6849  3.5583
20804SOL    HW264281   7.315   0.992   4.753  0.8544  0.2829  1.8913
20805SOL     OW64282   2.708   5.649   7.366  0.4430 -0.4102  0.1419
20805SOL    HW164283   2.798   5.680   7.376 -0.4001  2.5267 -0.2950
20805SOL    HW264284   2.686   5.611   7.451  1.1826  1.5571  1.2748
20806SOL     OW64285   7.244   4.513   2.547 -0.1004  0.6472  0.4793
20806SOL    HW164286   7.176   4.559   2.498 -0.2187 -0.0207  0.0019
20806SOL    HW264287   7.234   4.544   2.637 -0.6550  0.9949  0.3019
20807SOL     OW64288   5.796   3.431   5.034  0.1933 -0.4851  0.0181
20807SOL    HW164289   5.800   3.339   5.007  1.5758 -0.4586  0.0497
20807SOL    HW264290   5.818   3.429   5.128 -2.0969 -0.3264  0.6167
20808SOL     OW64291   4.192   0.893   0.955 -0.5139  0.7083  0.3796
20808SOL    HW164292   4.279   0.862   0.979 -0.3749  0.8708  0.0936
20808SOL    HW264293   4.195   0.899   0.859 -1.5898 -1.5806  0.1277
20809SOL     OW64294   4.735   4.082   4.780 -0.4864 -0.6991 -0.6249
20809SOL    HW164295   4.660   4.069   4.838 -0.1754  0.1625 -0.0072
20809SOL    HW264296   4.767   3.994   4.761 -1.5442 -1.0611 -0.7532
20810SOL     OW64297   7.858   2.662   5.416  0.0583 -0.2055  0.1386
20810SOL    HW164298   7.852   2.614   5.333 -1.9964  0.7283 -0.3099
20810SOL    HW264299   7.900   2.745   5.392  0.3242 -0.3158  0.2198
20811SOL     OW64300   2.855   2.485   6.354  0.5332 -0.0465 -0.1149
20811SOL    HW164301   2.829   2.414   6.413 -0.9204 -0.3463 -1.0506
20811SOL    HW264302   2.937   2.454   6.314 -0.3905 -1.5320 -0.9677
20812SOL     OW64303   0.217   1.594   7.113  0.1461 -0.0224  0.0156
20812SOL    HW164304   0.294   1.557   7.156 -0.2205 -1.0238 -0.1670
20812SOL    HW264305   0.240   1.597   7.020 -0.0767 -0.4212 -0.0519
20813SOL     OW64306   7.996   4.945   6.769 -0.1401 -0.0188  0.1870
20813SOL    HW164307   7.974   4.870   6.715  2.9532  0.1989 -1.6671
20813SOL    HW264308   8.001   4.911   6.858  0.7145 -1.9421 -0.5508
20814SOL     OW64309   0.137   3.795   2.721 -0.1256 -0.5042  0.0304
20814SOL    HW164310   0.188   3.792   2.802  1.2671 -1.6617 -0.8541
20814SOL    HW264311   0.153   3.883   2.686 -1.4023  0.3081  1.3810
20815SOL     OW64312   6.795   0.067   7.339 -0.5116  0.0072 -0.0541
20815SOL    HW164313   6.819  -0.020   7.309  1.7217  1.2729 -2.3124
20815SOL    HW264314   6.874   0.120   7.328 -1.4940  2.1618  2.0896
20816SOL     OW64315   8.249   0.426   1.933 -0.2409 -0.4601 -0.1975
20816SOL    HW164316   8.186   0.496   1.917 -0.2379 -0.5139 -0.4562
20816SOL    HW264317   8.334   0.468   1.927 -0.2640 -0.2799  0.6964
20817SOL     OW64318   5.236   5.984   5.427  0.2128  0.6785 -0.0240
20817SOL    HW164319   5.141   5.992   5.419  0.1385  1.8831  1.3992
20817SOL    HW264320   5.266   5.950   5.343 -1.4929  0.0804 -0.4126
20818SOL     OW64321   8.166   6.859   1.200 -0.5794  0.0381  0.1346
20818SOL    HW164322   8.218   6.916   1.143 -0.5277 -0.1484 -0.0026
20818SOL    HW264323   8.196   6.881   1.289 -0.1287 -0.2025  0.0442
20819SOL     OW64324   8.542   8.447   7.018 -0.0492 -0.0906 -0.1605
20819SOL    HW164325   8.632   8.445   6.986 -0.4139 -0.5912 -1.2211
20819SOL    HW264326   8.548   8.423   7.111  1.0545  1.4969  0.1978
20820SOL     OW64327   2.394   3.541   8.059  0.0687  0.2633  0.4092
20820SOL    HW164328   2.465   3.564   8.000  2.3796 -2.2363  1.9574
20820SOL    HW264329   2.355   3.462   8.021  0.1531 -0.1226  1.0989
20821SOL     OW64330   8.949   4.685   8.630  0.4461  0.6498  0.2454
20821SOL    HW164331   8.976   4.624   8.562  1.2492  0.5576  0.6282
20821SOL    HW264332   8.854   4.675   8.636  0.1481  1.7076 -1.8372
20822SOL     OW64333   6.779   8.586   1.996 -0.4987 -0.5257  0.4790
20822SOL    HW164334   6.821   8.589   1.910 -0.4903 -2.7507  0.3345
20822SOL    HW264335   6.685   8.583   1.978 -0.5258 -0.3455  0.5841
20823SOL     OW64336   4.021   8.572   8.315 -0.5840 -0.2601  0.3333
20823SOL    HW164337   3.932   8.538   8.329 -1.2157  0.7098 -1.0696
20823SOL    HW264338   4.013   8.630   8.239  1.4417 -0.8245 -0.3781
20824SOL     OW64339   3.317   3.638   2.698  0.1726  0.0552  0.1911
20824SOL    HW164340   3.375   3.567   2.723  1.0548  0.6532 -0.0982
20824SOL    HW264341   3.282   3.612   2.613  0.5306 -0.0084  0.0634
20825SOL     OW64342   5.274   1.457   2.594 -0.3551 -0.4812  0.0519
20825SOL    HW164343   5.226   1.532   2.559  0.8470 -0.0838 -0.8459
20825SOL    HW264344   5.226   1.431   2.673 -1.7544  0.1524 -0.5729
20826SOL     OW64345   1.166   5.842   1.326  0.4164 -0.3365  0.3648
20826SOL    HW164346   1.203   5.887   1.403 -0.5999  1.9797 -0.3995
20826SOL    HW264347   1.239   5.790   1.292  1.4207  0.0263  1.8409
20827SOL     OW64348   8.530   4.170   3.732 -0.1538 -0.1815 -0.2164
20827SOL    HW164349   8.529   4.207   3.644  1.3473 -0.4558 -0.3623
20827SOL    HW264350   8.580   4.089   3.723  0.4058  0.0161  0.9705
20828SOL     OW64351   4.625   8.688   4.550 -0.1114 -0.1260 -0.5988
20828SOL    HW164352   4.639   8.764   4.494 -0.2183 -0.1251 -0.6239
20828SOL    HW264353   4.565   8.632   4.501  0.3410 -0.4519 -0.7968
20829SOL     OW64354   3.008   5.156   7.360 -0.0866 -0.1905  0.0633
20829SOL    HW164355   3.075   5.198   7.305  0.8030  0.4927  1.6028
20829SOL    HW264356   3.057   5.097   7.417 -1.0168 -1.0567 -0.0031
20830SOL     OW64357   1.380   4.174   5.353 -0.1649  0.4437 -0.1420
20830SOL    HW164358   1.287   4.150   5.354  0.5044 -2.6671  1.8624
20830SOL    HW264359   1.398   4.203   5.443  0.9810  0.0944 -0.2453
20831SOL     OW64360   1.595   6.293   8.676 -0.6918 -0.3508  0.1831
20831SOL    HW164361   1.625   6.345   8.750  1.6493  0.0563 -0.9813
20831SOL    HW264362   1.556   6.356   8.616  0.2234 -0.2170 -0.2849
20832SOL     OW64363   2.863   6.066   7.661  0.1378  0.5286 -0.2885
20832SOL    HW164364   2.933   6.128   7.638  2.3092 -1.7893 -0.3401
20832SOL    HW264365   2.871   6.056   7.756  0.0554  0.0631 -0.3292
20833SOL     OW64366   2.995   2.787   4.674 -0.1784 -0.8022  0.5750
20833SOL    HW164367   3.053   2.728   4.627  1.3988 -0.1814  1.6526
20833SOL    HW264368   2.910   2.776   4.631  0.3946 -2.7349 -0.1908
20834SOL     OW64369   0.013   0.904   1.864 -0.3749 -0.1278 -0.0831
20834SOL    HW164370   0.039   0.975   1.806  2.9041 -1.0397  0.0912
20834SOL    HW264371   0.000   0.829   1.807  1.6240 -0.7081  0.1529
20835SOL     OW64372   7.211   3.974   6.213  0.2628 -0.4165  0.2012
20835SOL    HW164373   7.219   4.057   6.166 -0.2346  0.8267  2.1663
20835SOL    HW264374   7.288   3.924   6.186 -1.6382 -1.3113 -4.5059
20836SOL     OW64375   3.614   8.956   7.114  1.0139 -0.1491 -0.5569
20836SOL    HW164376   3.592   8.869   7.146 -1.0407  0.5502  0.0726
20836SOL    HW264377   3.576   9.016   7.178 -0.1724  1.2362 -2.4319
20837SOL     OW64378   8.831   6.151   0.215 -0.3544  0.1016  0.0360
20837SOL    HW164379   8.774   6.124   0.287  2.1974 -0.8555  1.8584
20837SOL    HW264380   8.857   6.240   0.237  0.0418 -0.0097  0.0189
20838SOL     OW64381   6.237   5.675   6.498  0.1990 -0.0247 -0.5233
20838SOL    HW164382   6.308   5.736   6.518  1.1377 -1.0879 -0.4713
20838SOL    HW264383   6.194   5.713   6.422  1.8249 -0.1281 -1.5420
20839SOL     OW64384   1.834   1.062   4.836 -0.4611 -1.2082  0.1516
20839SOL    HW164385   1.802   1.115   4.763 -0.2724 -2.0560 -0.5610
20839SOL    HW264386   1.918   1.027   4.806 -1.0607 -2.7664  0.1656
20840SOL     OW64387   2.815   4.569   2.910  0.4587 -0.2942  0.0074
20840SOL    HW164388   2.874   4.515   2.963 -0.9299 -1.0029  0.9132
20840SOL    HW264389   2.806   4.520   2.828  2.6653  0.8361 -0.9751
20841SOL     OW64390   0.779   0.604   5.005 -0.2606  0.4663 -0.1632
20841SOL    HW164391   0.767   0.605   5.100  0.4201 -0.3617 -0.0531
20841SOL    HW264392   0.691   0.599   4.969 -0.4699 -0.5416  0.4651
20842SOL     OW64393   7.600   3.565   8.120 -0.5019 -0.9003  0.5603
20842SOL    HW164394   7.576   3.650   8.156 -0.7581 -0.9571  0.5287
20842SOL    HW264395   7.567   3.502   8.183 -0.7102 -0.9914  0.3633
20843SOL     OW64396   4.430   1.762   8.989  0.1171  0.4520  0.0419
20843SOL    HW164397   4.480   1.685   8.962  0.1624  0.7931 -0.9208
20843SOL    HW264398   4.496   1.832   8.994 -0.2196  0.8883 -1.1634
20844SOL     OW64399   6.840   3.315   2.821 -0.5675 -0.7813 -0.1961
20844SOL    HW164400   6.834   3.252   2.893  0.9917 -0.6746  0.0664
20844SOL    HW264401   6.858   3.262   2.744  0.0542 -0.7297 -0.0938
20845SOL     OW64402   1.386   1.746   3.851 -0.2686  0.4527 -0.1537
20845SOL    HW164403   1.364   1.772   3.762  0.1816 -0.7875 -0.6428
20845SOL    HW264404   1.434   1.821   3.887  0.8230  0.4153 -1.4557
20846SOL     OW64405   6.418   2.565   8.447 -0.2059 -0.6059  0.2858
20846SOL    HW164406   6.440   2.475   8.474 -1.1208 -1.3582 -1.3069
20846SOL    HW264407   6.359   2.596   8.516  1.0144 -0.7701  1.4556
20847SOL     OW64408   4.709   1.895   7.771 -0.1954 -0.1137 -0.3740
20847SOL    HW164409   4.654   1.866   7.844  0.5100 -0.2291  0.1234
20847SOL    HW264410   4.663   1.865   7.693 -0.9077 -0.0892  0.0210
20848SOL     OW64411   1.735   1.327   8.958 -0.5326  0.0288 -0.0368
20848SOL    HW164412   1.703   1.298   8.872 -0.8287  0.5272 -0.1011
20848SOL    HW264413   1.656   1.331   9.012 -0.3368 -0.3487  0.2819
20849SOL     OW64414   5.985   8.212   6.582 -0.3966  0.6053  0.0434
20849SOL    HW164415   6.030   8.271   6.643 -0.6625 -0.3700  1.2314
20849SOL    HW264416   6.030   8.128   6.593  0.7599  0.8020 -2.4747
20850SOL     OW64417   1.108   4.123   4.372  0.2792 -0.5933 -0.4630
20850SOL    HW164418   1.062   4.206   4.383 -2.8822 -2.4151  2.2868
20850SOL    HW264419   1.190   4.135   4.419 -0.9866  0.4755  1.6360
20851SOL     OW64420   1.480   4.461   8.726 -0.3101  0.2167 -0.4979
20851SOL    HW164421   1.555   4.442   8.670 -1.2426 -1.2940 -1.3123
20851SOL    HW264422   1.476   4.387   8.786 -2.5286 -1.0654 -2.0598
20852SOL     OW64423   7.155   1.934   1.092  0.4426  0.3969  0.6145
20852SOL    HW164424   7.065   1.938   1.060  0.1575  0.4790  1.4103
20852SOL    HW264425   7.175   2.023   1.119  0.5177  0.2438  1.0764
20853SOL     OW64426   0.902   1.833   5.219 -0.3093  0.1789  0.2658
20853SOL    HW164427   0.913   1.883   5.138 -0.5340 -1.2281 -0.6626
20853SOL    HW264428   0.898   1.742   5.191 -0.4808 -0.3377  1.8638
20854SOL     OW64429   1.344   8.533   5.370 -0.2716  0.0492 -0.5939
20854SOL    HW164430   1.428   8.526   5.416 -0.5366 -2.5049 -0.3667
20854SOL    HW264431   1.341   8.456   5.313 -2.6052 -0.1182 -0.3409
20855SOL     OW64432   6.182   7.943   6.145 -0.4079  0.0584 -0.0195
20855SOL    HW164433   6.249   7.905   6.203  2.4943  2.3153 -1.5883
20855SOL    HW264434   6.149   8.019   6.191  1.5969  1.6111 -0.9973
20856SOL     OW64435   7.704   2.357   0.337  0.3198  0.2792 -0.6097
20856SOL    HW164436   7.780   2.338   0.391  0.0444 -2.7516 -1.0985
20856SOL    HW264437   7.629   2.345   0.396  0.1254  1.9731 -0.4595
20857SOL     OW64438   7.468   1.567   0.471  0.4179  0.0787  0.0155
20857SOL    HW164439   7.516   1.484   0.472  0.5408  0.1503  0.0388
20857SOL    HW264440   7.421   1.566   0.387 -1.3218 -1.0063  0.9210
20858SOL     OW64441   1.799   5.669   2.956  0.3463  0.5013 -0.2703
20858SOL    HW164442   1.727   5.731   2.967  0.4367  0.2730  2.3466
20858SOL    HW264443   1.856   5.708   2.890 -0.5423  2.2731 -0.0332
20859SOL     OW64444   4.728   2.254   6.869  0.8183 -0.6635  0.2472
20859SOL    HW164445   4.712   2.349   6.866  2.2750 -0.4194 -1.2502
20859SOL    HW264446   4.651   2.216   6.826  1.3871  0.0463 -1.4847
20860SOL     OW64447   8.800   2.798   6.577 -0.0683 -0.7094 -1.0311
20860SOL    HW164448   8.728   2.860   6.578  0.6063  0.0955 -1.2724
20860SOL    HW264449   8.834   2.799   6.666  0.6060  0.0767 -1.2860
20861SOL     OW64450   7.924   8.788   8.858 -0.5117  0.4089  0.3321
20861SOL    HW164451   7.957   8.742   8.782  1.5450  0.4433  1.1386
20861SOL    HW264452   7.990   8.773   8.926 -1.6989  1.3327  1.7613
20862SOL     OW64453   0.427   3.067   5.258  0.4847  0.5453 -0.2225
20862SOL    HW164454   0.431   3.130   5.330  0.5641 -1.2750  1.4298
20862SOL    HW264455   0.481   2.994   5.286  1.0603  0.0323 -2.4546
20863SOL     OW64456   0.291   2.778   0.240 -0.5522  0.4032  0.3382
20863SOL    HW164457   0.358   2.772   0.308 -2.2120 -2.0515  1.9561
20863SOL    HW264458   0.327   2.728   0.167 -0.1726 -0.0083  0.7932
20864SOL     OW64459   2.996   5.232   1.937 -0.7246 -0.2866  0.0232
20864SOL    HW164460   2.953   5.207   1.855  0.7532 -1.1179 -0.5253
20864SOL    HW264461   2.972   5.163   1.999 -1.1987 -0.0681  0.0928
20865SOL     OW64462   4.128   2.055   6.408  0.4361  0.3754 -0.1316
20865SOL    HW164463   4.040   2.060   6.446  0.3244  0.5926 -0.4133
20865SOL    HW264464   4.160   2.145   6.410  0.4808  0.3673 -0.4201
20866SOL     OW64465   5.698   0.211   5.107 -0.3567  0.5007  0.2104
20866SOL    HW164466   5.737   0.171   5.185 -0.5982  0.0573  0.1072
20866SOL    HW264467   5.693   0.304   5.128  0.6274  0.5518  0.2866
20867SOL     OW64468   7.304   6.878   7.875 -0.0268  0.2186  0.3153
20867SOL    HW164469   7.282   6.810   7.812 -0.4081 -0.9262  1.6313
20867SOL    HW264470   7.397   6.863   7.894  0.6978  1.9188 -1.5134
20868SOL     OW64471   1.092   4.164   3.381  0.3584 -0.2543  0.3582
20868SOL    HW164472   1.015   4.108   3.374  1.6760 -2.5590  2.7988
20868SOL    HW264473   1.073   4.222   3.454  1.6121 -2.2035  2.3417
20869SOL     OW64474   0.468   4.286   4.011  0.5245 -0.1486 -0.4099
20869SOL    HW164475   0.534   4.228   3.974  1.4895  0.1770  0.7357
20869SOL    HW264476   0.404   4.297   3.941  0.1341 -2.8098 -0.5912
20870SOL     OW64477   4.328   2.006   7.601 -0.2363  0.2347 -0.1063
20870SOL    HW164478   4.324   2.078   7.538  1.2555  0.9147  0.5167
20870SOL    HW264479   4.404   1.954   7.573 -0.4949 -0.3292  0.2314
20871SOL     OW64480   1.608   3.623   2.057  0.4323 -0.1875 -0.3418
20871SOL    HW164481   1.562   3.706   2.054  1.4002  0.3435 -1.0842
20871SOL    HW264482   1.557   3.565   2.001 -0.6744 -0.3353  0.7952
20872SOL     OW64483   7.372   2.202   1.392  0.3351  0.1672 -0.0397
20872SOL    HW164484   7.338   2.186   1.480  1.1032  0.5505  0.3360
20872SOL    HW264485   7.414   2.119   1.367  1.4344  0.5140  0.5780
20873SOL     OW64486   3.770   7.940   4.438 -0.8961  0.1562  0.0506
20873SOL    HW164487   3.855   7.964   4.402 -0.7387 -0.4115  0.0269
20873SOL    HW264488   3.759   7.847   4.415 -0.7605 -0.2583  1.5018
20874SOL     OW64489   1.510   2.544   4.888 -0.3281 -0.4181  0.5458
20874SOL    HW164490   1.517   2.459   4.933  0.0810  0.0467  1.3799
20874SOL    HW264491   1.504   2.608   4.959  0.4649  0.3508 -0.0608
20875SOL     OW64492   7.449   6.413   3.728  0.2872 -1.3131  0.0313
20875SOL    HW164493   7.476   6.461   3.806 -1.5320 -0.6948  0.3257
20875SOL    HW264494   7.485   6.463   3.655  1.2531 -1.4038  0.4320
20876SOL     OW64495   3.263   3.444   1.660  0.2931  0.3167 -0.3789
20876SOL    HW164496   3.287   3.537   1.652  1.0226  0.2803  1.0633
20876SOL    HW264497   3.341   3.403   1.698  0.1785 -1.0052 -1.5211
20877SOL     OW64498   5.643   8.727   5.905 -0.1862  0.1827  0.1292
20877SOL    HW164499   5.666   8.733   5.998 -2.8014  1.3999  0.8026
20877SOL    HW264500   5.636   8.818   5.876  2.3133 -0.1391 -1.8366
20878SOL     OW64501   5.714   1.337   3.989 -0.0841  0.3382  0.1204
20878SOL    HW164502   5.703   1.246   3.963 -1.8675  0.2108  1.1774
20878SOL    HW264503   5.692   1.339   4.082  0.9475  1.6846  0.3755
20879SOL     OW64504   1.313   4.311   8.239  0.2360 -0.2456 -0.4750
20879SOL    HW164505   1.221   4.333   8.219  0.7625  0.4218 -2.5106
20879SOL    HW264506   1.335   4.367   8.313 -1.1070 -0.7440  0.3461
20880SOL     OW64507   8.851   8.864   2.707 -0.2765  0.0251 -0.9431
20880SOL    HW164508   8.946   8.868   2.704 -0.1834 -1.0697 -0.1696
20880SOL    HW264509   8.822   8.916   2.631  0.9578 -0.5826 -1.8708
20881SOL     OW64510   3.855   1.157   7.373  0.3034  0.1546  0.0300
20881SOL    HW164511   3.899   1.215   7.434 -1.2488  0.7220  0.6469
20881SOL    HW264512   3.830   1.080   7.425  0.4742 -0.1181 -0.2838
20882SOL     OW64513   1.946   4.507   4.543 -0.0595 -0.0123  0.0479
20882SOL    HW164514   1.928   4.595   4.576  0.8439  0.1985 -0.0171
20882SOL    HW264515   1.917   4.449   4.614  0.1915  0.3679  0.4619
20883SOL     OW64516   6.677   1.522   1.432  0.6824  0.0938 -0.1632
20883SOL    HW164517   6.598   1.467   1.434 -0.3253  1.4943  2.5435
20883SOL    HW264518   6.724   1.492   1.354 -1.0862 -2.7727 -0.2895
20884SOL     OW64519   6.663   8.691   0.813 -0.4727 -0.0687  0.4480
20884SOL    HW164520   6.639   8.782   0.829  1.1875  0.2359  1.4379
20884SOL    HW264521   6.597   8.639   0.859 -0.2004  0.6840  1.7024
20885SOL     OW64522   7.413   3.171   0.422  0.7208 -0.2616  0.0621
20885SOL    HW164523   7.342   3.107   0.421  0.1315  0.3793  0.2960
20885SOL    HW264524   7.447   3.168   0.512  2.2838 -1.9400 -0.5153
20886SOL     OW64525   3.566   2.833   5.772  0.1537  0.2573  0.3546
20886SOL    HW164526   3.537   2.922   5.792 -1.4314 -0.4389  1.3794
20886SOL    HW264527   3.637   2.844   5.709 -0.1114  2.2264  0.3428
20887SOL     OW64528   6.218   7.715   7.185  0.2605  0.1643 -0.0718
20887SOL    HW164529   6.314   7.716   7.191  0.2165  0.7393  0.6971
20887SOL    HW264530   6.199   7.780   7.116  0.4679 -1.0464 -1.3116
20888SOL     OW64531   8.805   2.367   1.036 -0.2199 -0.4354 -0.2013
20888SOL    HW164532   8.803   2.274   1.055 -0.0651 -0.1110  1.5903
20888SOL    HW264533   8.749   2.377   0.959  1.4418 -2.2335 -1.7494
20889SOL     OW64534   8.713   4.568   2.185 -0.0171  0.4035 -0.2945
20889SOL    HW164535   8.787   4.525   2.228 -1.5425  0.1916  2.3701
20889SOL    HW264536   8.637   4.515   2.209 -1.6217  3.0115  0.8853
20890SOL     OW64537   4.361   0.047   1.277 -0.0769 -0.0494 -0.6377
20890SOL    HW164538   4.307  -0.032   1.282  1.5738 -1.1630  1.1583
20890SOL    HW264539   4.451   0.015   1.289  0.9065  1.8595 -2.2619
20891SOL     OW64540   7.476   0.696   7.700 -0.0880 -0.5067  0.2273
20891SOL    HW164541   7.490   0.683   7.793  1.3510 -0.4370  0.0449
20891SOL    HW264542   7.528   0.774   7.678 -0.6204 -0.3593 -0.5804
20892SOL     OW64543   1.234   2.552   7.826  0.0332  0.2515  0.5048
20892SOL    HW164544   1.310   2.606   7.803 -1.5389  2.4007  0.0716
20892SOL    HW264545   1.214   2.577   7.917  0.2058 -0.7710  0.8297
20893SOL     OW64546   6.138   2.132   3.592 -0.2664  0.0372  0.2295
20893SOL    HW164547   6.101   2.053   3.633 -0.1352  0.1205  0.5042
20893SOL    HW264548   6.063   2.172   3.548 -0.5601  0.3346  0.9867
20894SOL     OW64549   5.197   1.404   7.274 -0.2229 -0.3830  0.3723
20894SOL    HW164550   5.264   1.444   7.218 -0.2555 -0.0624  0.5597
20894SOL    HW264551   5.168   1.475   7.331 -0.7354 -0.5152  0.2833
20895SOL     OW64552   4.937   5.737   1.792 -0.4767  0.3908 -0.6741
20895SOL    HW164553   4.931   5.832   1.804  0.0880  0.3948 -0.4124
20895SOL    HW264554   5.027   5.715   1.816 -0.7320 -0.2774 -0.2945
20896SOL     OW64555   2.948   6.257   2.399  0.0359 -0.0459 -0.0788
20896SOL    HW164556   2.960   6.352   2.392 -1.3657  0.2431  1.0031
20896SOL    HW264557   3.030   6.225   2.437  0.1122  0.8904  0.5874
20897SOL     OW64558   4.732   4.125   3.880 -0.0057  0.4374  0.3714
20897SOL    HW164559   4.646   4.151   3.911  0.1463  0.3969  0.8328
20897SOL    HW264560   4.794   4.167   3.940  0.2621 -0.4458  0.7312
20898SOL     OW64561   3.123   2.605   1.400  0.5639  0.0786 -0.0737
20898SOL    HW164562   3.067   2.641   1.331 -1.4788 -0.4211  1.2257
20898SOL    HW264563   3.159   2.682   1.444 -0.5947  0.4935  0.1970
20899SOL     OW64564   5.680   4.827   1.374 -0.3674  0.0264  0.5132
20899SOL    HW164565   5.622   4.773   1.428 -1.0051  0.7165  0.5537
20899SOL    HW264566   5.708   4.770   1.303 -0.3830 -0.5799  0.9823
20900SOL     OW64567   4.256   4.946   6.893  0.0924  0.2161 -0.5827
20900SOL    HW164568   4.289   4.857   6.879  0.0336  0.1798 -0.5015
20900SOL    HW264569   4.184   4.934   6.956 -0.0380  0.2984 -0.7145
20901SOL     OW64570   2.824   6.687   2.808 -0.1135  0.2506  0.6818
20901SOL    HW164571   2.747   6.630   2.811 -1.2894  1.7999  1.4109
20901SOL    HW264572   2.895   6.630   2.779 -1.3638 -1.4197  0.7543
20902SOL     OW64573   3.512   6.960   1.153  0.1266  0.0606 -0.0181
20902SOL    HW164574   3.531   7.037   1.207  1.2262  0.0768 -0.3950
20902SOL    HW264575   3.554   6.887   1.199  0.7309  0.0121 -0.6238
20903SOL     OW64576   7.511   4.408   1.288 -0.4000  0.0412 -0.7236
20903SOL    HW164577   7.559   4.468   1.344 -0.2436  0.2124 -1.0418
20903SOL    HW264578   7.566   4.329   1.285 -1.0591 -0.4998  0.4792
20904SOL     OW64579   1.992   2.717   3.765  0.2401 -0.6471  0.0594
20904SOL    HW164580   2.069   2.661   3.757  1.3139  0.7581  0.1880
20904SOL    HW264581   1.969   2.714   3.858  0.8275 -0.1968  0.2216
20905SOL     OW64582   1.534   3.530   2.883  0.2621 -0.3727  0.0450
20905SOL    HW164583   1.596   3.522   2.811  0.6405  0.9249  0.2006
20905SOL    HW264584   1.586   3.515   2.962  0.6330  1.6453  0.2356
20906SOL     OW64585   2.327   7.067   7.651  0.2737  0.5098  0.9100
20906SOL    HW164586   2.288   7.145   7.691 -0.6236  0.6855 -0.2339
20906SOL    HW264587   2.300   7.072   7.559  2.6099  0.3562  0.1584
20907SOL     OW64588   4.791   7.591   7.708 -0.1767  0.4278 -0.4835
20907SOL    HW164589   4.736   7.650   7.760 -0.0364 -0.2801  0.4810
20907SOL    HW264590   4.877   7.596   7.747  0.8173  2.3960 -2.6814
20908SOL     OW64591   5.270   5.963   2.014  0.4314 -0.6086  0.1565
20908SOL    HW164592   5.359   5.929   2.006  0.6754  0.1012 -0.1676
20908SOL    HW264593   5.251   6.002   1.929 -0.5072 -1.4835 -0.0577
20909SOL     OW64594   7.999   4.176   1.776  0.1376 -0.1136 -0.1240
20909SOL    HW164595   7.946   4.099   1.752 -0.6677  0.9268 -1.8602
20909SOL    HW264596   7.972   4.244   1.714  1.6226  1.2576  0.6668
20910SOL     OW64597   5.567   6.687   8.086  0.4973  0.0885 -0.1940
20910SOL    HW164598   5.629   6.619   8.058  0.6960  0.4094 -0.5346
20910SOL    HW264599   5.567   6.751   8.015 -0.9369 -0.3669 -0.6558
20911SOL     OW64600   6.837   5.381   3.709 -0.4483  0.3455  0.7818
20911SOL    HW164601   6.930   5.395   3.730 -0.1879 -0.1733  0.0121
20911SOL    HW264602   6.821   5.290   3.735 -1.1185  0.8326  2.1853
20912SOL     OW64603   0.479   5.024   1.426 -0.4834 -0.4074 -0.2324
20912SOL    HW164604   0.527   5.093   1.381 -0.6352 -0.1535 -0.0101
20912SOL    HW264605   0.516   5.023   1.515 -0.4710 -0.6199 -0.2414
20913SOL     OW64606   1.063   5.444   5.416 -0.0838  0.2465 -0.5881
20913SOL    HW164607   1.051   5.510   5.484 -1.4237 -0.3804 -0.1694
20913SOL    HW264608   0.979   5.442   5.370 -0.5346 -2.0265  0.2095
20914SOL     OW64609   1.594   2.996   8.327  0.4094  0.0224 -0.2621
20914SOL    HW164610   1.670   2.971   8.276  0.9379  1.1964 -0.0810
20914SOL    HW264611   1.598   3.091   8.331  1.3818 -0.0174  3.4341
20915SOL     OW64612   8.358   3.463   4.372 -0.6699  0.3741  0.5889
20915SOL    HW164613   8.333   3.400   4.305  1.1048 -0.6295  0.8214
20915SOL    HW264614   8.278   3.474   4.424 -1.4754 -0.4274 -0.4213
20916SOL     OW64615   4.944   6.302   4.333  0.3116  0.5350  0.0579
20916SOL    HW164616   4.965   6.239   4.402 -0.9859 -0.8376 -0.7526
20916SOL    HW264617   4.849   6.298   4.324  0.3426  1.5773 -0.9803
20917SOL     OW64618   2.387   1.089   6.035  0.0619  0.0834 -0.1300
20917SOL    HW164619   2.461   1.150   6.030  1.0114 -1.0593 -0.7722
20917SOL    HW264620   2.369   1.067   5.943 -0.5162 -0.2996  0.0761
20918SOL     OW64621   0.333   2.241   4.311  0.0950  0.0350 -0.3281
20918SOL    HW164622   0.310   2.149   4.319  2.2930 -0.4540  1.4592
20918SOL    HW264623   0.271   2.287   4.368 -0.0668 -0.5408 -0.0403
20919SOL     OW64624   7.283   0.261   6.776  0.6669  0.7145 -0.0206
20919SOL    HW164625   7.295   0.351   6.748  2.1226  0.3338 -0.7466
20919SOL    HW264626   7.269   0.212   6.695 -0.4091  0.3203  0.3897
20920SOL     OW64627   6.783   5.805   6.220  0.5081 -0.3329 -0.0526
20920SOL    HW164628   6.875   5.824   6.243  0.5910 -1.0561  0.2378
20920SOL    HW264629   6.789   5.755   6.140  0.1867  2.8628 -2.2737
20921SOL     OW64630   4.590   0.987   4.077  0.1636 -0.1174  0.1328
20921SOL    HW164631   4.535   0.925   4.124  1.1171  0.6701  2.4361
20921SOL    HW264632   4.583   0.960   3.985 -1.2560 -2.1619  0.7560
20922SOL     OW64633   0.953   1.778   3.239 -0.1783 -0.0559 -0.6337
20922SOL    HW164634   0.929   1.730   3.318  0.0396 -1.0081 -1.1242
20922SOL    HW264635   1.039   1.745   3.215  0.9812  2.1880  0.2106
20923SOL     OW64636   5.291   6.198   7.425  0.3135 -0.5267  0.3083
20923SOL    HW164637   5.292   6.215   7.331  0.5593 -0.0325  0.3964
20923SOL    HW264638   5.383   6.181   7.447  0.5133  1.0158  0.7458
20924SOL     OW64639   3.994   0.120   6.196  0.2601 -0.7848 -0.7450
20924SOL    HW164640   4.032   0.033   6.209 -1.0253 -1.9341 -3.6396
20924SOL    HW264641   3.900   0.103   6.187 -0.0657  0.9697 -0.9399
20925SOL     OW64642   8.787   3.974   5.544  0.5244  0.1367 -0.7650
20925SOL    HW164643   8.846   3.970   5.620  1.0513  0.5662 -1.1395
20925SOL    HW264644   8.701   3.950   5.579  0.9280 -0.5588 -0.2208
20926SOL     OW64645   7.536   7.033   1.247  0.3883  0.3597  0.3570
20926SOL    HW164646   7.539   7.123   1.280  1.6159  0.1203  0.9495
20926SOL    HW264647   7.445   7.006   1.259 -0.3608  1.9793 -1.1506
20927SOL     OW64648   6.776   7.756   5.111  0.2127 -0.6597  0.4280
20927SOL    HW164649   6.699   7.717   5.069  0.5286 -0.6361 -0.1848
20927SOL    HW264650   6.846   7.692   5.098  0.7400  0.0885 -0.6164
20928SOL     OW64651   4.999   2.684   8.455  0.0754 -0.1086 -0.3334
20928SOL    HW164652   4.989   2.618   8.523  0.9490 -1.1926 -1.2183
20928SOL    HW264653   5.019   2.635   8.376  1.1102  1.2352 -0.9547
20929SOL     OW64654   0.931   3.271   2.433 -0.2925  0.6505 -0.2309
20929SOL    HW164655   1.002   3.323   2.471  0.3509 -1.1321  1.1357
20929SOL    HW264656   0.975   3.205   2.380 -0.1743 -4.1020  4.8920
20930SOL     OW64657   8.252   8.864   4.584  0.0504  0.7971  0.0077
20930SOL    HW164658   8.288   8.870   4.496 -1.7028 -0.3251 -0.8310
20930SOL    HW264659   8.328   8.847   4.640  1.0466  0.3746 -1.4257
20931SOL     OW64660   4.612   0.618   3.531  0.3888  0.8366  0.5334
20931SOL    HW164661   4.640   0.575   3.611 -0.3284  1.1899  0.9737
20931SOL    HW264662   4.532   0.665   3.554 -1.1092 -0.8511 -0.9172
20932SOL     OW64663   0.629   6.819   8.511  0.0549 -0.4735  0.2996
20932SOL    HW164664   0.595   6.892   8.562  3.0508  0.7171  0.7901
20932SOL    HW264665   0.646   6.856   8.424 -0.7410 -1.2890 -0.2222
20933SOL     OW64666   5.279   2.254   1.393 -0.0413  0.4766  0.0603
20933SOL    HW164667   5.327   2.308   1.455  0.0728  0.3943  0.0439
20933SOL    HW264668   5.234   2.316   1.336  1.5995  0.6060 -1.1725
20934SOL     OW64669   8.496   4.851   2.182 -0.6093  0.1207  0.5918
20934SOL    HW164670   8.552   4.773   2.181 -2.4901 -1.3578 -1.9400
20934SOL    HW264671   8.420   4.826   2.234 -1.9034 -0.3875 -1.4153
20935SOL     OW64672   8.295   5.925   4.062 -0.1111 -0.0480 -0.1657
20935SOL    HW164673   8.226   5.868   4.027 -0.4592  1.3947 -1.9325
20935SOL    HW264674   8.364   5.924   3.996  0.5852  0.3428  0.5263
20936SOL     OW64675   3.746   4.417   5.325 -0.3378  0.4172 -0.0140
20936SOL    HW164676   3.769   4.494   5.273  1.8779 -0.5635 -0.5764
20936SOL    HW264677   3.712   4.453   5.407 -4.8376  2.0547 -2.2165
20937SOL     OW64678   6.153   5.993   3.680  0.5139  0.2171 -0.0406
20937SOL    HW164679   6.165   5.992   3.775 -0.1907  0.9872  0.0648
20937SOL    HW264680   6.228   6.044   3.648  0.8503 -0.1931  0.0807
20938SOL     OW64681   1.145   7.884   4.606  0.5305  0.1840  0.6030
20938SOL    HW164682   1.203   7.836   4.665  0.3943 -0.0249  0.5682
20938SOL    HW264683   1.059   7.843   4.618  0.7272 -0.6123 -0.5639
20939SOL     OW64684   5.279   4.751   4.658  0.0102  0.2712 -0.1464
20939SOL    HW164685   5.371   4.774   4.648  0.2065  0.5114  1.8571
20939SOL    HW264686   5.280   4.658   4.681 -0.0789  0.6381  1.5054
20940SOL     OW64687   0.411   4.522   5.810 -0.6243  0.2664  0.6699
20940SOL    HW164688   0.345   4.584   5.841 -2.5520 -1.2987 -0.0601
20940SOL    HW264689   0.378   4.493   5.725 -1.0733 -3.4040  1.9008
20941SOL     OW64690   0.712   0.745   2.928  0.2748  0.5100  0.1309
20941SOL    HW164691   0.764   0.798   2.867 -2.3218  2.2220 -0.7426
20941SOL    HW264692   0.676   0.675   2.873  0.0985  0.4586  0.3120
20942SOL     OW64693   0.086   0.481   4.402 -0.1212 -0.1374  0.2595
20942SOL    HW164694   0.133   0.498   4.484 -0.5565 -1.1550  0.7311
20942SOL    HW264695   0.034   0.560   4.387  0.1125  0.1354  0.8533
20943SOL     OW64696   4.648   3.523   4.143  0.7512 -0.3706  0.7816
20943SOL    HW164697   4.553   3.511   4.137  0.0490  3.8317 -0.1622
20943SOL    HW264698   4.675   3.465   4.213 -2.2239 -2.8609  0.0972
20944SOL     OW64699   0.862   8.469   5.342  0.3446  0.0153 -0.4021
20944SOL    HW164700   0.856   8.408   5.268  0.5809 -1.5473  0.8264
20944SOL    HW264701   0.929   8.431   5.399  0.3564  1.3346  0.4929
20945SOL     OW64702   4.326   1.255   2.668  0.1090  0.0949 -0.0568
20945SOL    HW164703   4.279   1.324   2.621 -1.1094 -1.1477 -0.7262
20945SOL    HW264704   4.258   1.197   2.700  1.1461 -1.3506 -0.3612
20946SOL     OW64705   4.871   7.661   3.151  0.1140  0.5808  0.0381
20946SOL    HW164706   4.957   7.638   3.186 -0.5922 -0.6599  1.0024
20946SOL    HW264707   4.886   7.672   3.057  0.9813 -1.4887 -0.1163
20947SOL     OW64708   4.507   2.574   4.466 -0.4178  0.0884  0.7234
20947SOL    HW164709   4.504   2.588   4.560 -0.4473 -0.4290  0.7992
20947SOL    HW264710   4.467   2.489   4.452  0.7107 -0.4039  0.3667
20948SOL     OW64711   2.887   0.330   8.057  0.2745 -0.1529 -0.3554
20948SOL    HW164712   2.914   0.419   8.079  2.4278 -0.2757 -2.1172
20948SOL    HW264713   2.903   0.280   8.137  0.9219  0.6973  0.0701
20949SOL     OW64714   6.966   0.933   2.331 -0.0549 -0.5672  0.5799
20949SOL    HW164715   7.036   0.998   2.322  0.1584 -0.9686 -1.2311
20949SOL    HW264716   7.011   0.849   2.323 -0.5349 -0.8790  1.1497
20950SOL     OW64717   5.434   5.888   2.636  0.5838 -0.4950  0.0891
20950SOL    HW164718   5.467   5.962   2.687  0.3714 -1.5539  1.8524
20950SOL    HW264719   5.513   5.839   2.611  0.8553  1.0013 -2.3260
20951SOL     OW64720   1.356   8.968   7.521  0.0128  0.6055  0.1208
20951SOL    HW164721   1.399   8.999   7.601 -0.8609  0.1562  0.7813
20951SOL    HW264722   1.288   9.034   7.504 -0.6327  0.0454  0.4810
20952SOL     OW64723   7.287   7.361   6.483  0.0003 -0.0340  0.2910
20952SOL    HW164724   7.299   7.449   6.517 -0.7147 -0.1041  0.7494
20952SOL    HW264725   7.294   7.304   6.560 -1.2602 -0.2246  0.2868
20953SOL     OW64726   8.947   1.360   5.773 -0.2620  0.7253 -0.4035
20953SOL    HW164727   9.007   1.315   5.833  0.5288 -0.5208 -2.0383
20953SOL    HW264728   8.875   1.389   5.828  2.0301  2.7748  1.7995
20954SOL     OW64729   4.076   6.097   5.061  0.6088 -0.0884 -0.1351
20954SOL    HW164730   4.046   6.115   5.150 -0.9578 -0.2646 -0.6055
20954SOL    HW264731   4.134   6.021   5.070 -0.6701 -1.0164  0.5637
20955SOL     OW64732   1.625   0.650   0.889  0.0878 -0.3563  0.1040
20955SOL    HW164733   1.578   0.732   0.908 -1.5059 -0.3823 -3.1294
20955SOL    HW264734   1.591   0.588   0.954 -0.7743  0.8231  0.8358
20956SOL     OW64735   8.940   3.712   5.905 -0.2442 -0.3632 -0.4568
20956SOL    HW164736   8.982   3.682   5.824  0.4672  0.4219 -0.3886
20956SOL    HW264737   8.849   3.726   5.880  0.3820  1.9454 -1.7308
20957SOL     OW64738   3.881   8.039   1.277  0.0643 -0.0050  0.7374
20957SOL    HW164739   3.960   8.091   1.292  0.7119 -0.6352 -0.3894
20957SOL    HW264740   3.911   7.948   1.279 -0.4984 -0.2277 -0.3762
20958SOL     OW64741   6.497   0.342   4.794 -0.3938  0.5155 -0.0004
20958SOL    HW164742   6.425   0.384   4.747 -0.0154  1.6019  0.3527
20958SOL    HW264743   6.461   0.321   4.880 -0.0723  1.8347  0.4782
20959SOL     OW64744   2.883   3.015   3.434 -0.4164  0.0592  0.2803
20959SOL    HW164745   2.820   2.943   3.425 -0.7233  0.1127  1.7960
20959SOL    HW264746   2.833   3.094   3.415 -0.4117 -0.0209 -0.0664
20960SOL     OW64747   5.721   0.521   8.202 -0.6354 -0.0167  0.4631
20960SOL    HW164748   5.755   0.578   8.271 -1.2452  1.0745 -0.1095
20960SOL    HW264749   5.630   0.548   8.192 -0.5789 -0.2037 -0.7128
20961SOL     OW64750   3.844   1.646   2.860 -0.2818 -0.5605  0.4375
20961SOL    HW164751   3.800   1.624   2.942 -0.0879  0.4573  0.8358
20961SOL    HW264752   3.929   1.681   2.888 -0.1159 -0.4449 -0.2081
20962SOL     OW64753   5.012   8.243   1.781 -0.0419  0.4302 -0.0045
20962SOL    HW164754   4.971   8.328   1.793  0.3034  0.4798  0.9051
20962SOL    HW264755   4.939   8.181   1.778 -0.2252  0.5683  1.1233
20963SOL     OW64756   4.253   6.396   1.438  0.0810  0.0291  0.1631
20963SOL    HW164757   4.307   6.470   1.465 -0.1864 -0.0102  0.8207
20963SOL    HW264758   4.250   6.340   1.515 -0.4457 -0.2410 -0.0528
20964SOL     OW64759   1.794   4.221   7.001  0.2310  0.3156  0.0360
20964SOL    HW164760   1.724   4.212   6.936  1.2590  0.4328 -1.1268
20964SOL    HW264761   1.832   4.308   6.983  1.6585 -0.3672 -0.3969
20965SOL     OW64762   6.341   8.374   5.064  0.1634 -0.5230 -0.3938
20965SOL    HW164763   6.371   8.324   5.140  0.4542 -1.1192 -0.8957
20965SOL    HW264764   6.420   8.417   5.031 -0.2586  1.1862  0.6772
20966SOL     OW64765   3.384   5.870   5.287 -0.4582  0.4098 -0.4282
20966SOL    HW164766   3.384   5.861   5.382  1.5835 -1.1733 -0.4978
20966SOL    HW264767   3.465   5.916   5.267 -0.7515  0.5266 -1.4232
20967SOL     OW64768   1.355   1.902   8.527  0.2596  0.4399  0.7248
20967SOL    HW164769   1.316   1.989   8.522 -0.4219  0.0803 -2.1429
20967SOL    HW264770   1.391   1.887   8.440 -2.4887 -3.3334 -0.0396
20968SOL     OW64771   4.174   8.213   2.409  0.2252 -0.1462  0.1748
20968SOL    HW164772   4.234   8.146   2.441  0.2818  0.3104  1.0459
20968SOL    HW264773   4.215   8.245   2.328  1.3602  0.4022  0.9315
20969SOL     OW64774   8.731   6.396   7.434  0.0004 -0.1455 -0.2716
20969SOL    HW164775   8.786   6.459   7.480  1.0883 -3.3167  3.2951
20969SOL    HW264776   8.785   6.365   7.361 -0.5077  2.6763 -2.0237
20970SOL     OW64777   3.848   6.900   6.060  0.5834 -0.4838 -0.0576
20970SOL    HW164778   3.888   6.852   5.987  2.5309  3.0511 -1.5723
20970SOL    HW264779   3.921   6.914   6.121 -0.1068 -0.0796  0.6846
20971SOL     OW64780   2.742   1.442   5.940 -0.4036 -0.0937  0.3909
20971SOL    HW164781   2.718   1.403   6.024 -2.1723 -0.2235 -0.1349
20971SOL    HW264782   2.677   1.512   5.927 -0.3907 -0.3149 -1.0279
20972SOL     OW64783   3.107   3.112   1.796  0.2112 -0.3028 -0.1370
20972SOL    HW164784   3.084   3.021   1.811  0.5735 -0.2023  1.1693
20972SOL    HW264785   3.168   3.134   1.866 -0.2166  1.0754 -0.1527
20973SOL     OW64786   3.560   7.797   4.094 -0.1695 -0.0375  0.2229
20973SOL    HW164787   3.498   7.774   4.026  1.4369 -0.0841 -1.2849
20973SOL    HW264788   3.525   7.756   4.173 -1.5877 -0.7786 -0.7504
20974SOL     OW64789   5.025   5.883   1.048 -0.2876 -0.5958  0.1835
20974SOL    HW164790   4.995   5.970   1.075 -0.7107 -0.9706  0.9441
20974SOL    HW264791   5.108   5.870   1.095  1.8863  0.9540 -2.8530
20975SOL     OW64792   1.864   0.392   7.343 -0.1980 -0.3040  0.3947
20975SOL    HW164793   1.870   0.439   7.426 -0.5665 -0.0769  0.2935
20975SOL    HW264794   1.822   0.309   7.366 -0.3557 -0.2163  0.4259
20976SOL     OW64795   8.034   7.812   4.275  0.2499 -1.1126  0.3132
20976SOL    HW164796   7.963   7.852   4.223  0.2093 -1.5629  0.0195
20976SOL    HW264797   8.114   7.853   4.241  0.0236  0.6286  1.7673
20977SOL     OW64798   5.847   1.434   1.421 -0.1829 -0.1186  0.3785
20977SOL    HW164799   5.880   1.484   1.347  1.2713 -2.0814 -0.3783
20977SOL    HW264800   5.799   1.362   1.381 -1.8813  0.3644  1.4342
20978SOL     OW64801   7.209   2.726   7.918  0.1789 -0.2357  0.0713
20978SOL    HW164802   7.157   2.702   7.994  1.6083  0.4811  1.3467
20978SOL    HW264803   7.293   2.754   7.955  0.6245  0.9603 -1.7063
20979SOL     OW64804   2.326   7.233   1.740  0.1438  0.0886  0.0315
20979SOL    HW164805   2.237   7.197   1.734  0.0257  0.5358 -1.1298
20979SOL    HW264806   2.324   7.312   1.686  1.1063  0.3981  0.4272
20980SOL     OW64807   2.421   7.118   2.746  0.1511  0.3004  0.1425
20980SOL    HW164808   2.383   7.104   2.832 -0.7259 -0.2674 -0.3170
20980SOL    HW264809   2.507   7.076   2.751 -0.2709 -0.5600  0.4691
20981SOL     OW64810   7.819   5.649   2.293 -0.5091  0.2001 -0.2913
20981SOL    HW164811   7.816   5.587   2.366 -1.0250 -0.8158 -1.1582
20981SOL    HW264812   7.737   5.698   2.301 -1.4614 -1.1902 -1.2688
20982SOL     OW64813   7.344   0.282   7.494  0.4281 -0.0176  0.0183
20982SOL    HW164814   7.278   0.278   7.563  1.2208 -1.1409  0.7488
20982SOL    HW264815   7.295   0.268   7.413 -0.3627  0.2274  0.4431
20983SOL     OW64816   0.008   8.910   0.030  0.2453  0.0524  0.5480
20983SOL    HW164817   0.004   8.932  -0.063 -0.7584  0.1298  0.5972
20983SOL    HW264818  -0.029   8.987   0.075 -0.2086 -0.3912  0.9418
20984SOL     OW64819   3.331   0.717   1.824 -0.2060 -0.1958 -0.0484
20984SOL    HW164820   3.388   0.641   1.822  1.6960  1.1234 -2.8004
20984SOL    HW264821   3.282   0.709   1.906  2.4703 -2.4469  1.4872
20985SOL     OW64822   4.382   2.992   2.525  0.0783  0.0109 -0.4455
20985SOL    HW164823   4.304   2.963   2.477 -0.6056  0.5112  0.3305
20985SOL    HW264824   4.447   3.008   2.457  0.1233 -2.1905 -0.9809
20986SOL     OW64825   0.063   2.918   4.526  0.0592 -0.3540  0.8989
20986SOL    HW164826  -0.032   2.930   4.528 -0.0745 -0.6394 -1.1924
20986SOL    HW264827   0.090   2.922   4.618 -1.8882  0.3261  1.4939
20987SOL     OW64828   3.550   5.978   0.606  0.1574  0.0378 -0.0963
20987SOL    HW164829   3.468   5.996   0.652  0.0403 -1.2816  0.2623
20987SOL    HW264830   3.579   5.894   0.641  0.7866 -0.3319 -1.4409
20988SOL     OW64831   1.437   8.809   1.510  0.1382 -0.2384 -0.2394
20988SOL    HW164832   1.461   8.883   1.567  1.4338 -0.3723 -0.5868
20988SOL    HW264833   1.346   8.791   1.532 -0.4040  1.8346 -0.5330
20989SOL     OW64834   3.208   4.577   0.978  0.3242 -0.5722  0.7757
20989SOL    HW164835   3.253   4.659   1.000  0.6964 -0.8332  0.9848
20989SOL    HW264836   3.115   4.601   0.976  0.4117 -0.1984  1.0814
20990SOL     OW64837   7.090   3.357   5.192 -0.0758  0.0951  0.0080
20990SOL    HW164838   7.092   3.275   5.241  0.0266  0.4502  0.6146
20990SOL    HW264839   7.016   3.348   5.132 -0.7786  0.0013  0.8720
20991SOL     OW64840   2.668   7.419   6.139  0.3364 -0.6053  0.5249
20991SOL    HW164841   2.638   7.509   6.155  1.8782 -0.1304  0.9794
20991SOL    HW264842   2.681   7.414   6.045 -0.0241 -0.4293  0.4672
20992SOL     OW64843   8.922   4.361   7.759  0.4638 -0.3421  0.5618
20992SOL    HW164844   8.858   4.364   7.688  0.6028  0.0160  0.4494
20992SOL    HW264845   8.910   4.443   7.806  0.6119 -0.4233  0.7406
20993SOL     OW64846   2.156   1.068   3.798 -0.1307  0.1132 -0.4882
20993SOL    HW164847   2.184   0.979   3.819 -0.5811 -0.0419 -0.5273
20993SOL    HW264848   2.235   1.121   3.805  0.6163 -0.6346 -2.4991
20994SOL     OW64849   0.806   4.429   8.306  0.4185  0.0293 -0.2519
20994SOL    HW164850   0.889   4.469   8.331  0.8646  0.2632 -1.9821
20994SOL    HW264851   0.740   4.491   8.335  0.8754  0.1055  0.6473
20995SOL     OW64852   5.241   1.020   1.392  0.2393  0.4274  0.3457
20995SOL    HW164853   5.241   1.104   1.347  0.6334 -0.2978 -1.0533
20995SOL    HW264854   5.172   0.969   1.350  2.2306 -1.1416 -1.2313
20996SOL     OW64855   1.589   1.185   8.301 -0.4272 -0.2256 -0.5528
20996SOL    HW164856   1.558   1.117   8.241 -2.2789  0.6056 -0.6146
20996SOL    HW264857   1.510   1.214   8.348  0.3709  1.5209 -0.1808
20997SOL     OW64858   0.251   4.076   6.809 -0.1724  0.2621 -0.3077
20997SOL    HW164859   0.217   4.028   6.733  0.8131 -0.2386 -0.4472
20997SOL    HW264860   0.189   4.149   6.820 -0.1709  0.5303 -1.7856
20998SOL     OW64861   0.429   0.017   5.325  0.3922 -0.3383 -0.1275
20998SOL    HW164862   0.432  -0.067   5.278 -1.6029 -0.9455  0.7251
20998SOL    HW264863   0.349   0.013   5.376  1.3010  1.2771  1.5385
20999SOL     OW64864   7.566   4.900   8.032  0.0689 -0.0226  0.2850
20999SOL    HW164865   7.477   4.928   8.053 -0.2474  0.1296 -1.1290
20999SOL    HW264866   7.554   4.823   7.976  0.8680 -0.8901  1.2582
21000SOL     OW64867   5.115   4.031   7.998  0.3515 -0.3289  0.7560
21000SOL    HW164868   5.021   4.041   7.988  0.2624 -1.3363  0.4696
21000SOL    HW264869   5.141   4.103   8.056 -0.3531  0.8594 -0.3485
21001SOL     OW64870   5.392   8.228   1.465  0.0703 -0.1898 -0.3814
21001SOL    HW164871   5.402   8.219   1.559 -1.8792  1.5972  0.0615
21001SOL    HW264872   5.301   8.257   1.453  0.6715  0.9532 -2.6952
21002SOL     OW64873   3.188   3.437   0.107  0.0751  0.3495 -0.2880
21002SOL    HW164874   3.125   3.371   0.080  0.6857 -0.5662  0.4542
21002SOL    HW264875   3.258   3.433   0.041  0.5762 -0.4436  0.2740
21003SOL     OW64876   8.504   1.409   1.735 -0.1328  0.2778  0.0480
21003SOL    HW164877   8.446   1.423   1.660 -0.2054 -1.6992 -0.3278
21003SOL    HW264878   8.569   1.479   1.728 -1.2105  1.2430 -0.7709
21004SOL     OW64879   8.596   4.094   1.161 -0.1776  0.5446  0.3090
21004SOL    HW164880   8.575   4.027   1.096  1.4772 -1.7185  1.9892
21004SOL    HW264881   8.682   4.127   1.135 -1.4032  2.9581 -1.1207
21005SOL     OW64882   8.366   1.835   1.044  0.6333  0.1437  0.1277
21005SOL    HW164883   8.422   1.839   0.967 -0.4476 -1.4949 -0.8140
21005SOL    HW264884   8.389   1.752   1.086 -0.0983  0.1238  0.5122
21006SOL     OW64885   4.195   7.304   1.037  0.1852 -0.1807 -0.0330
21006SOL    HW164886   4.141   7.321   1.114  0.0746 -0.5084 -0.0358
21006SOL    HW264887   4.252   7.380   1.030  1.1044 -0.7396  1.1364
21007SOL     OW64888   7.312   3.693   3.252 -0.5996  0.5506 -0.3427
21007SOL    HW164889   7.263   3.664   3.175  0.1499 -2.8283  0.3084
21007SOL    HW264890   7.284   3.634   3.322  3.2776 -0.6956  0.3998
21008SOL     OW64891   5.412   4.673   5.219 -0.1667  0.0111  0.2057
21008SOL    HW164892   5.332   4.721   5.241 -0.2329  0.3952 -0.7863
21008SOL    HW264893   5.406   4.592   5.268 -0.9970  0.1926  0.4180
21009SOL     OW64894   2.899   3.145   5.483 -0.0308  0.3731 -0.0947
21009SOL    HW164895   2.850   3.139   5.565  0.1949  0.9496  0.0823
21009SOL    HW264896   2.988   3.167   5.509 -0.2962  2.1187 -0.5628
21010SOL     OW64897   1.616   8.935   8.596 -0.1232 -0.1951  0.6568
21010SOL    HW164898   1.677   8.863   8.600  1.8128  1.3747  0.8219
21010SOL    HW264899   1.670   9.014   8.608 -2.0723  1.3041  0.1805
21011SOL     OW64900   2.943   7.671   5.292  0.8286 -0.5379 -0.9738
21011SOL    HW164901   2.935   7.747   5.234  0.7412 -0.6934 -1.1650
21011SOL    HW264902   2.940   7.709   5.380  1.1552 -0.2821 -1.0689
21012SOL     OW64903   7.592   8.771   2.915  0.4042  0.4099 -0.6023
21012SOL    HW164904   7.658   8.767   2.846 -1.3000 -1.2573 -2.2489
21012SOL    HW264905   7.513   8.737   2.874 -1.0525  0.6971  1.8030
21013SOL     OW64906   6.419   0.069   1.525 -0.4138  0.2768  0.0319
21013SOL    HW164907   6.495   0.024   1.563  0.2618  0.3795 -1.1198
21013SOL    HW264908   6.424   0.158   1.559 -0.0796  0.2453  0.0743
21014SOL     OW64909   3.746   8.625   3.524  0.1434 -0.4203 -0.3649
21014SOL    HW164910   3.723   8.640   3.616 -1.8144 -2.0680 -0.5098
21014SOL    HW264911   3.842   8.625   3.523  0.2357 -1.1545  1.8518
21015SOL     OW64912   1.778   7.655   7.990 -0.4091 -0.0719  0.0715
21015SOL    HW164913   1.834   7.703   8.051 -0.3210  0.0523 -0.1053
21015SOL    HW264914   1.839   7.620   7.925 -0.4162 -0.8273  0.4608
21016SOL     OW64915   5.456   0.651   8.633  0.2238  0.7677 -0.4627
21016SOL    HW164916   5.442   0.615   8.546 -0.2871 -2.8146  0.9238
21016SOL    HW264917   5.545   0.626   8.656 -0.3306 -0.1787  0.7721
21017SOL     OW64918   8.329   6.809   8.343  0.1528 -0.1942  0.4826
21017SOL    HW164919   8.394   6.807   8.273  1.6695 -2.8259  1.7973
21017SOL    HW264920   8.293   6.720   8.344 -2.6604  0.8324  0.6140
21018SOL     OW64921   3.358   3.287   5.333  0.3159 -0.0348  0.6530
21018SOL    HW164922   3.323   3.342   5.263  1.3812 -0.1503 -0.0078
21018SOL    HW264923   3.386   3.207   5.288  0.4148 -0.3753  1.3166
21019SOL     OW64924   0.422   1.696   4.059 -0.0146 -0.0293  0.1004
21019SOL    HW164925   0.343   1.643   4.047  1.0401 -1.2873 -1.7299
21019SOL    HW264926   0.448   1.681   4.150 -3.0038  2.1452  1.5126
21020SOL     OW64927   8.516   7.860   1.801  0.1268 -0.1436 -0.1069
21020SOL    HW164928   8.485   7.852   1.711  0.6281  1.9210 -0.5025
21020SOL    HW264929   8.517   7.954   1.818  3.4116 -0.2520  0.8618
21021SOL     OW64930   0.309   2.229   3.804  0.8463  0.1306  0.5046
21021SOL    HW164931   0.292   2.146   3.760  2.2585  1.0597 -1.9562
21021SOL    HW264932   0.286   2.296   3.740  1.3529  1.6304  1.8129
21022SOL     OW64933   7.989   7.099   4.525 -0.5520  0.3089  0.0410
21022SOL    HW164934   8.011   7.153   4.449 -0.0226  1.1213  0.7445
21022SOL    HW264935   7.909   7.138   4.561 -0.6982  0.0461 -0.0044
21023SOL     OW64936   3.853   2.138   2.554 -0.7771 -0.3578 -0.2349
21023SOL    HW164937   3.833   2.122   2.461  0.1543  0.2755 -0.5557
21023SOL    HW264938   3.787   2.200   2.583  0.1489  1.0722 -1.0609
21024SOL     OW64939   4.805   6.246   7.491 -0.0325  0.3849 -0.2426
21024SOL    HW164940   4.727   6.221   7.443  0.4889 -2.4433  0.2451
21024SOL    HW264941   4.831   6.168   7.538  1.8029  1.9024  1.4469
21025SOL     OW64942   3.491   8.578   2.817 -0.3631 -0.6522 -0.6422
21025SOL    HW164943   3.469   8.671   2.830  0.8385 -0.2970 -1.0038
21025SOL    HW264944   3.539   8.554   2.896 -1.9007 -1.4038  0.1114
21026SOL     OW64945   4.261   8.370   8.868 -0.2507 -0.0794  0.1256
21026SOL    HW164946   4.215   8.340   8.789  0.0684 -0.3919  0.0595
21026SOL    HW264947   4.211   8.447   8.896  0.2174  0.6398 -0.9548
21027SOL     OW64948   8.684   1.456   7.697 -0.7912  0.3030  0.1920
21027SOL    HW164949   8.617   1.481   7.633 -2.0050 -1.0822  0.8719
21027SOL    HW264950   8.643   1.387   7.749  1.2225 -0.6980  0.5462
21028SOL     OW64951   5.020   1.412   0.817 -0.6240 -0.0973  0.0247
21028SOL    HW164952   5.075   1.437   0.890 -0.5909 -1.4609  0.4979
21028SOL    HW264953   4.995   1.495   0.776  1.4885  0.5734 -0.0230
21029SOL     OW64954   1.779   0.813   3.897  0.3170  0.0984 -0.3932
21029SOL    HW164955   1.763   0.880   3.962 -4.4987 -0.5926 -0.5101
21029SOL    HW264956   1.812   0.738   3.947  2.9574  1.4747  0.1177
21030SOL     OW64957   6.286   4.802   0.208 -0.4317 -0.0015 -0.5237
21030SOL    HW164958   6.290   4.849   0.292 -0.3322 -0.8382 -0.0517
21030SOL    HW264959   6.192   4.789   0.193 -0.6422  2.3717 -1.8362
21031SOL     OW64960   5.828   5.320   5.415  0.0856  1.0093  0.4786
21031SOL    HW164961   5.840   5.278   5.500  0.1070  0.3282  0.1395
21031SOL    HW264962   5.852   5.254   5.351  0.7669  1.7458 -0.0485
21032SOL     OW64963   2.438   6.005   0.120 -0.0645 -0.2073 -0.0346
21032SOL    HW164964   2.420   6.079   0.062  1.5989  2.1847  2.2972
21032SOL    HW264965   2.527   5.977   0.096 -0.3034 -0.8113 -0.2328
21033SOL     OW64966   2.042   4.849   1.913 -0.2949 -0.4914  0.6039
21033SOL    HW164967   1.970   4.883   1.861 -0.5433 -1.7257  0.1006
21033SOL    HW264968   2.116   4.906   1.892 -1.1881  1.0272  1.4278
21034SOL     OW64969   6.924   3.159   4.438 -0.2178  0.2329  0.0560
21034SOL    HW164970   6.836   3.188   4.412 -0.1903  0.2119 -0.0574
21034SOL    HW264971   6.935   3.196   4.526  1.0146  3.1950 -1.2264
21035SOL     OW64972   8.216   7.673   5.297  0.0374  0.2225 -0.1486
21035SOL    HW164973   8.275   7.724   5.241  0.7806 -0.4629 -0.0074
21035SOL    HW264974   8.184   7.736   5.361  1.2031  0.4538  0.2261
21036SOL     OW64975   3.499   7.663   4.339  0.5831  0.0929 -0.0328
21036SOL    HW164976   3.594   7.670   4.345  0.4913  1.3963  0.2971
21036SOL    HW264977   3.472   7.625   4.422  0.7697  0.3363  0.1401
21037SOL     OW64978   0.755   3.354   6.964 -0.2318 -0.0356 -0.2690
21037SOL    HW164979   0.765   3.274   6.912 -0.5099 -0.5335  0.4263
21037SOL    HW264980   0.705   3.413   6.908  1.2088  0.1984 -1.3590
21038SOL     OW64981   6.162   0.592   1.471  0.1118  0.0966  0.4398
21038SOL    HW164982   6.072   0.611   1.498  0.3568  1.7724  0.2194
21038SOL    HW264983   6.154   0.560   1.381 -0.1607  2.6356 -0.5264
21039SOL     OW64984   4.210   5.844   5.591 -0.5285 -0.2529  0.0592
21039SOL    HW164985   4.117   5.868   5.588 -0.3659  0.6593  1.2961
21039SOL    HW264986   4.246   5.873   5.507 -1.4331 -0.9977 -0.6034
21040SOL     OW64987   5.265   6.108   6.003 -0.5660 -0.6426 -0.2317
21040SOL    HW164988   5.284   6.027   5.957  1.7013 -1.3720  1.7790
21040SOL    HW264989   5.314   6.175   5.956  1.8357 -1.3998  1.0248
21041SOL     OW64990   8.190   6.587   6.498  0.4281 -0.2805  0.3583
21041SOL    HW164991   8.272   6.613   6.456  0.0498 -0.7142 -0.6712
21041SOL    HW264992   8.218   6.542   6.578  1.3009 -2.2813 -0.9835
21042SOL     OW64993   6.583   1.610   7.904 -0.4303 -0.4558 -0.3331
21042SOL    HW164994   6.663   1.657   7.925 -1.1112  0.6978 -0.2713
21042SOL    HW264995   6.529   1.616   7.983 -1.0425 -0.2307 -0.7583
21043SOL     OW64996   6.208   5.198   5.931 -0.2399 -0.5203 -0.1518
21043SOL    HW164997   6.168   5.237   5.854 -0.7119 -1.0439 -0.1798
21043SOL    HW264998   6.282   5.147   5.896  0.6529  0.6801 -0.0709
21044SOL     OW64999   8.269   1.672   2.572 -0.2014  0.3749 -0.3826
21044SOL    HW165000   8.208   1.720   2.628  0.9329 -0.1178  1.3875
21044SOL    HW265001   8.325   1.740   2.534 -1.9214  0.8531 -2.2329
21045SOL     OW65002   6.760   2.388   1.556  0.1185 -0.0218 -0.2027
21045SOL    HW165003   6.755   2.385   1.461  0.0079  0.1318 -0.2026
21045SOL    HW265004   6.729   2.475   1.579 -1.0796 -0.4888  0.0449
21046SOL     OW65005   5.873   6.218   0.406  0.0988  0.3816 -0.1487
21046SOL    HW165006   5.890   6.311   0.421  1.1153  0.5516 -1.9950
21046SOL    HW265007   5.958   6.176   0.418  0.0905  0.0009 -1.3055
21047SOL     OW65008   2.403   5.042   0.097 -0.1114 -0.5442 -0.1500
21047SOL    HW165009   2.338   5.006   0.157 -0.5478  0.8546  0.2559
21047SOL    HW265010   2.418   4.972   0.034  0.0614 -1.8975  1.3409
21048SOL     OW65011   4.901   1.841   7.124 -0.0350  0.2077  0.1853
21048SOL    HW165012   4.827   1.785   7.146 -0.4115  0.9001  0.7109
21048SOL    HW265013   4.903   1.842   7.028  0.3801 -1.2118  0.1488
21049SOL     OW65014   4.168   8.194   5.858  0.2914 -0.2279  0.3242
21049SOL    HW165015   4.112   8.176   5.933  0.2461 -1.5356 -0.0067
21049SOL    HW265016   4.130   8.143   5.787  0.2635  1.0889 -0.6359
21050SOL     OW65017   5.741   6.124   1.131  0.2702  0.2953  0.2691
21050SOL    HW165018   5.824   6.107   1.088 -0.5744 -1.5048 -0.7461
21050SOL    HW265019   5.758   6.108   1.224  0.4455 -3.1399 -0.2059
21051SOL     OW65020   4.040   7.456   5.396 -0.0136 -0.1135 -0.0580
21051SOL    HW165021   4.134   7.470   5.394  0.2759 -1.7602  0.5706
21051SOL    HW265022   4.026   7.376   5.345 -0.6474 -1.7448  2.4765
21052SOL     OW65023   3.805   0.563   2.533 -0.1324 -0.5409 -0.0682
21052SOL    HW165024   3.867   0.624   2.491 -0.2909 -0.0990  0.3233
21052SOL    HW265025   3.731   0.618   2.559 -1.0027 -1.1784 -1.1228
21053SOL     OW65026   3.637   7.233   8.904 -0.1611 -0.2492 -0.3272
21053SOL    HW165027   3.669   7.297   8.968  0.2598  0.5486 -1.2977
21053SOL    HW265028   3.595   7.286   8.837 -0.0468 -1.0173 -1.0210
21054SOL     OW65029   5.634   6.357   1.511  0.1106  0.2071  0.2844
21054SOL    HW165030   5.693   6.370   1.585 -1.3254 -2.6545  2.1177
21054SOL    HW265031   5.568   6.425   1.520  1.3969  1.5335  0.0037
21055SOL     OW65032   6.835   3.757   2.811 -0.3614  0.1646 -0.0566
21055SOL    HW165033   6.761   3.703   2.784  0.4789 -1.1057  0.0761
21055SOL    HW265034   6.899   3.694   2.847  0.6945  1.2371  0.0147
21056SOL     OW65035   3.889   6.176   1.811 -0.0334 -0.1931  0.0251
21056SOL    HW165036   3.807   6.212   1.844 -0.2717  0.6479 -1.4169
21056SOL    HW265037   3.874   6.164   1.717  0.1061 -3.8806  0.3368
21057SOL     OW65038   5.184   6.272   2.308 -0.0530 -0.4596  0.6552
21057SOL    HW165039   5.156   6.363   2.319 -1.3047 -0.9094  1.2452
21057SOL    HW265040   5.168   6.253   2.216  0.3263 -0.0628  0.4999
21058SOL     OW65041   6.171   5.180   2.384  0.6294 -0.5717  0.0656
21058SOL    HW165042   6.195   5.192   2.476 -1.8918  0.1889  0.6993
21058SOL    HW265043   6.147   5.088   2.377  0.0307 -0.4450  0.3909
21059SOL     OW65044   8.237   5.164   7.419  0.2967 -0.2491 -0.0238
21059SOL    HW165045   8.269   5.170   7.329 -1.8706  0.1087 -0.8148
21059SOL    HW265046   8.212   5.073   7.430 -1.0246  0.0447 -0.3971
21060SOL     OW65047   0.666   3.554   7.164 -0.1492  0.0500 -0.4849
21060SOL    HW165048   0.687   3.464   7.190  0.3477  0.5808  1.0583
21060SOL    HW265049   0.751   3.594   7.145 -0.1497  0.7538  0.8423
21061SOL     OW65050   4.929   1.561   0.345 -0.3156 -0.4466  0.1835
21061SOL    HW165051   4.999   1.513   0.300 -1.0734 -0.6811 -0.7772
21061SOL    HW265052   4.962   1.651   0.351  0.7802 -0.8848  1.2858
21062SOL     OW65053   3.305   5.716   3.075  0.3098  0.0303  0.0581
21062SOL    HW165054   3.324   5.800   3.031 -1.1337  0.5084  0.2770
21062SOL    HW265055   3.386   5.666   3.068  0.9574  1.1472 -0.7785
21063SOL     OW65056   4.978   7.770   7.064 -0.6226 -0.5446  0.5119
21063SOL    HW165057   4.994   7.800   6.975 -0.1653 -2.0126  0.0753
21063SOL    HW265058   4.886   7.745   7.066 -1.3447  1.8862  1.2195
21064SOL     OW65059   5.733   3.414   1.339  0.2785 -0.1424 -0.1096
21064SOL    HW165060   5.702   3.484   1.281  4.1923  0.9916 -1.1327
21064SOL    HW265061   5.730   3.335   1.284 -0.9889 -0.1657 -0.0453
21065SOL     OW65062   2.573   5.960   3.733 -0.1305  0.2470  0.3678
21065SOL    HW165063   2.615   6.003   3.807 -0.4369  0.8694  0.1890
21065SOL    HW265064   2.517   6.028   3.694 -0.5239 -0.2742  0.0005
21066SOL     OW65065   0.776   3.958   7.881  0.4722 -0.8623  0.1882
21066SOL    HW165066   0.819   3.888   7.831  0.7295 -1.1658  0.8351
21066SOL    HW265067   0.689   3.923   7.901  0.8865 -1.3316  1.2148
21067SOL     OW65068   4.091   8.834   8.846  0.2920  0.4685  0.1435
21067SOL    HW165069   4.156   8.894   8.883  0.1751  1.1282 -0.6816
21067SOL    HW265070   4.008   8.880   8.855  0.0459 -0.0443  0.4986
21068SOL     OW65071   8.419   2.416   6.442 -0.0968 -0.3953  0.3692
21068SOL    HW165072   8.480   2.376   6.381 -0.9050 -0.7876 -0.2035
21068SOL    HW265073   8.445   2.508   6.446 -0.1620 -0.3239 -0.7279
21069SOL     OW65074   6.976   6.047   8.900  0.1786 -0.3178  0.1344
21069SOL    HW165075   7.028   6.053   8.980  1.3498  0.8991 -0.6715
21069SOL    HW265076   7.032   5.999   8.839 -0.2696 -0.3211 -0.2799
21070SOL     OW65077   1.233   3.913   4.243  0.1593  0.3503 -0.2011
21070SOL    HW165078   1.213   3.985   4.304 -2.2193 -0.4464  0.0925
21070SOL    HW265079   1.229   3.834   4.297  2.2940 -0.1012 -0.6141
21071SOL     OW65080   2.099   4.189   1.311  0.1726 -0.1144  0.4092
21071SOL    HW165081   2.126   4.130   1.240  1.6193 -1.8496  2.2725
21071SOL    HW265082   2.022   4.145   1.349 -0.9731  1.1181 -0.3894
21072SOL     OW65083   0.703   1.184   1.979 -0.4735  0.4324 -0.2741
21072SOL    HW165084   0.624   1.137   2.006  0.8256 -1.0514  1.1169
21072SOL    HW265085   0.699   1.267   2.025 -1.4653  0.5894 -0.6225
21073SOL     OW65086   2.334   3.226   2.744 -0.0014  0.3254 -0.1056
21073SOL    HW165087   2.331   3.181   2.829  1.9464 -1.5659 -0.9624
21073SOL    HW265088   2.267   3.182   2.692 -0.4681  0.7764  0.1033
21074SOL     OW65089   5.112   5.171   3.577 -0.6995 -0.0453  0.1745
21074SOL    HW165090   5.170   5.145   3.506 -0.3733 -1.4528  0.9199
21074SOL    HW265091   5.097   5.264   3.563  1.2436  0.2258 -0.4046
21075SOL     OW65092   7.142   1.405   4.486 -0.4518  0.2651  0.0433
21075SOL    HW165093   7.112   1.495   4.474 -2.6271 -0.5678 -1.4189
21075SOL    HW265094   7.076   1.366   4.544  0.1416 -0.5266  0.1979
21076SOL     OW65095   8.168   1.236   8.786  0.6503 -0.1440 -0.0955
21076SOL    HW165096   8.168   1.289   8.707 -0.5198  0.3565  0.2306
21076SOL    HW265097   8.260   1.236   8.815  1.0083  0.0180 -1.2067
21077SOL     OW65098   1.748   2.296   8.297 -0.0043  0.2989  0.3328
21077SOL    HW165099   1.799   2.370   8.264 -1.8236  1.2267 -0.5330
21077SOL    HW265100   1.734   2.317   8.390  1.4828 -0.1741  0.6889
21078SOL     OW65101   6.002   2.712   7.282 -0.1841 -0.4020  0.6130
21078SOL    HW165102   6.044   2.650   7.341 -0.6300  0.5951  2.0224
21078SOL    HW265103   6.015   2.797   7.323 -0.9114  0.2726 -0.4937
21079SOL     OW65104   4.892   1.500   8.861  0.3078  0.1172  0.4593
21079SOL    HW165105   4.798   1.504   8.842  0.1412 -3.2065  0.0738
21079SOL    HW265106   4.898   1.444   8.938  1.9444  1.7850  1.6419
21080SOL     OW65107   8.151   8.831   5.745  0.1021  0.1679  0.0902
21080SOL    HW165108   8.206   8.769   5.793 -0.1649  0.1762  0.4133
21080SOL    HW265109   8.212   8.898   5.714  0.4733 -0.5322 -0.7356
21081SOL     OW65110   1.682   2.672   3.309  0.3414  0.3318  0.2273
21081SOL    HW165111   1.696   2.716   3.225  1.7220  0.0757  0.3054
21081SOL    HW265112   1.723   2.730   3.373 -0.3406  0.3208  0.6838
21082SOL     OW65113   0.837   8.170   3.497 -0.0159  0.3741  0.1022
21082SOL    HW165114   0.765   8.212   3.450  0.2176  1.1467  0.4298
21082SOL    HW265115   0.916   8.200   3.452  0.1157 -0.5272 -0.3032
21083SOL     OW65116   0.962   7.255   0.075 -0.1899  0.1642  0.3423
21083SOL    HW165117   1.022   7.316   0.118  1.4365 -1.4707  0.5126
21083SOL    HW265118   1.015   7.177   0.058 -1.6564 -0.4776 -1.6910
21084SOL     OW65119   3.617   7.334   4.196 -0.1917 -0.2349  0.2826
21084SOL    HW165120   3.694   7.378   4.159  0.7229 -2.2182 -0.3258
21084SOL    HW265121   3.543   7.372   4.149  0.3912  1.6363  0.8032
21085SOL     OW65122   0.776   0.644   7.774  0.7203  0.1836 -0.6250
21085SOL    HW165123   0.835   0.669   7.845 -0.4312 -0.9035  0.7820
21085SOL    HW265124   0.721   0.722   7.760  0.1588  0.0249  0.5520
21086SOL     OW65125   8.723   6.317   6.273  0.0222  0.0725 -0.1678
21086SOL    HW165126   8.661   6.333   6.202 -0.2054 -0.9290 -0.2070
21086SOL    HW265127   8.697   6.378   6.342 -0.8184 -0.1212 -0.3030
21087SOL     OW65128   4.216   8.039   0.798  0.0188  0.0011 -0.0658
21087SOL    HW165129   4.125   8.027   0.825 -0.3023  0.2486 -1.0025
21087SOL    HW265130   4.244   8.121   0.839 -0.6771  0.7285 -1.0037
21088SOL     OW65131   6.055   1.483   6.676  0.0727  0.2497  0.2389
21088SOL    HW165132   6.068   1.513   6.586  2.1138 -0.0939  0.3714
21088SOL    HW265133   6.013   1.398   6.667  1.0212 -0.1650 -0.4422
21089SOL     OW65134   2.303   0.310   7.981 -0.0067  0.1748 -0.0189
21089SOL    HW165135   2.212   0.329   7.960 -0.0592  2.4379  1.7649
21089SOL    HW265136   2.337   0.393   8.017  3.1025 -0.2158 -1.7018
21090SOL     OW65137   8.382   2.548   4.574 -0.4728 -0.0564  0.1833
21090SOL    HW165138   8.329   2.471   4.593  1.6514 -1.3366  1.2520
21090SOL    HW265139   8.365   2.607   4.648 -0.9355 -0.1531  0.1568
21091SOL     OW65140   5.374   1.183   0.401 -0.3166 -0.3774  0.1757
21091SOL    HW165141   5.397   1.273   0.380  2.3898 -0.5920  1.8585
21091SOL    HW265142   5.346   1.186   0.492  0.6968 -1.3473  0.5385
21092SOL     OW65143   1.001   2.054   2.137  0.3411 -0.1396  0.5288
21092SOL    HW165144   1.087   2.096   2.134  0.4349 -0.2930  0.9745
21092SOL    HW265145   1.017   1.966   2.103  0.0465  0.3326 -0.8793
21093SOL     OW65146   0.536   8.508   0.284  0.0238 -0.2429 -0.5119
21093SOL    HW165147   0.483   8.548   0.353  1.0955  0.2392  0.0579
21093SOL    HW265148   0.627   8.520   0.314  0.5114  0.0111 -2.0152
21094SOL     OW65149   5.598   8.879   3.187  0.2069  0.2600 -0.7616
21094SOL    HW165150   5.658   8.805   3.196 -0.7182 -0.6176 -1.5900
21094SOL    HW265151   5.512   8.843   3.206 -0.3614  0.9119 -1.9462
21095SOL     OW65152   6.580   2.981   8.691  0.1251 -0.0270  0.0698
21095SOL    HW165153   6.546   3.043   8.627 -1.4601  0.1644  1.0408
21095SOL    HW265154   6.504   2.955   8.742  0.3730 -3.9720 -1.2237
21096SOL     OW65155   1.052   5.656   1.544  0.0554 -0.7766  0.3146
21096SOL    HW165156   0.991   5.694   1.480  0.4918  0.5517  0.6383
21096SOL    HW265157   1.121   5.617   1.491 -0.3823 -1.0787 -0.0398
21097SOL     OW65158   3.569   6.944   0.302 -0.1187  0.2173  0.6583
21097SOL    HW165159   3.663   6.946   0.289 -0.2973  1.1099 -0.6465
21097SOL    HW265160   3.542   6.855   0.279  0.2215  0.3861 -0.4261
21098SOL     OW65161   7.432   3.612   5.266 -0.4450  0.9092 -0.5530
21098SOL    HW165162   7.458   3.656   5.347  1.3038 -0.7976 -0.1079
21098SOL    HW265163   7.454   3.675   5.197  2.3599  0.7108  0.0265
21099SOL     OW65164   6.685   4.952   7.534  0.4110  0.5293 -0.4420
21099SOL    HW165165   6.696   4.967   7.440 -0.4448  0.1922 -0.6079
21099SOL    HW265166   6.773   4.935   7.567  0.5351 -0.9206 -1.4682
21100SOL     OW65167   0.404   8.002   6.025 -0.5004 -0.4469 -0.5079
21100SOL    HW165168   0.483   7.996   6.079  0.7821 -0.8070 -2.3417
21100SOL    HW265169   0.351   7.928   6.053 -0.5274  0.1896  1.2271
21101SOL     OW65170   8.328   3.956   1.506 -0.4636 -0.2456 -0.2761
21101SOL    HW165171   8.306   3.919   1.591 -0.9510  1.8297  0.5501
21101SOL    HW265172   8.339   3.880   1.449 -2.5595 -1.6174  1.0340
21102SOL     OW65173   5.006   8.285   4.977 -0.4462 -0.5024 -0.0175
21102SOL    HW165174   5.045   8.261   5.061 -0.6048 -3.9183 -0.7656
21102SOL    HW265175   4.917   8.251   4.981 -0.0231 -2.0804 -2.0056
21103SOL     OW65176   1.231   6.958   8.587 -0.3679 -0.1727  0.3566
21103SOL    HW165177   1.246   7.050   8.568 -1.7119 -0.3583 -2.0357
21103SOL    HW265178   1.311   6.928   8.629  0.6297  1.7649 -0.0866
21104SOL     OW65179   6.823   4.664   2.575 -0.1823 -0.3449  0.1388
21104SOL    HW165180   6.872   4.730   2.526 -0.3174  0.0967  0.5850
21104SOL    HW265181   6.889   4.616   2.624  0.1977 -2.1409 -1.9807
21105SOL     OW65182   4.423   0.589   1.999  0.7442 -0.0555 -0.1078
21105SOL    HW165183   4.343   0.623   2.040  0.2991 -1.5782  0.3668
21105SOL    HW265184   4.441   0.650   1.928 -1.9041 -0.6139 -1.4067
21106SOL     OW65185   7.996   1.697   2.845  0.6791  0.0156 -0.0907
21106SOL    HW165186   7.930   1.652   2.793  0.8837 -1.0674  0.5644
21106SOL    HW265187   8.015   1.777   2.795 -0.5630 -0.0211 -0.6644
21107SOL     OW65188   3.095   7.272   5.522  0.1034 -0.5011 -0.3518
21107SOL    HW165189   3.021   7.225   5.483  0.1112 -0.0790 -0.8766
21107SOL    HW265190   3.173   7.227   5.489  0.1122 -0.0899 -0.8964
21108SOL     OW65191   1.567   7.901   1.279 -0.2795 -0.2081  0.3985
21108SOL    HW165192   1.487   7.905   1.331 -0.3299 -2.1823  0.5133
21108SOL    HW265193   1.540   7.932   1.192 -0.0764  3.6760  1.5209
21109SOL     OW65194   5.958   4.449   1.728  0.4814  0.0401  0.9855
21109SOL    HW165195   6.014   4.508   1.678  0.1607  0.4041  1.0567
21109SOL    HW265196   6.014   4.416   1.799  0.8637 -0.2860  0.5387
21110SOL     OW65197   5.326   7.038   3.449  0.3199 -0.2945  0.5598
21110SOL    HW165198   5.374   7.119   3.430 -2.1989  1.5570  1.5444
21110SOL    HW265199   5.363   7.008   3.532 -0.4793  1.4282  1.6126
21111SOL     OW65200   5.307   7.484   8.808  0.7150 -0.3400 -0.4156
21111SOL    HW165201   5.355   7.549   8.860 -1.5562  0.2397  1.1100
21111SOL    HW265202   5.317   7.402   8.857 -0.6465  0.0134  0.5390
21112SOL     OW65203   5.300   8.265   6.623 -0.3052  0.2617  0.0520
21112SOL    HW165204   5.286   8.241   6.531 -0.5990  0.7200 -0.0262
21112SOL    HW265205   5.380   8.317   6.622 -0.4759  0.5252  0.0099
21113SOL     OW65206   5.190   1.642   7.114  0.0082 -0.0517  0.2485
21113SOL    HW165207   5.160   1.583   7.045 -0.7754 -0.6168  1.0665
21113SOL    HW265208   5.115   1.653   7.172  1.1999 -1.1147  2.0811
21114SOL     OW65209   7.451   4.659   1.821 -0.5023 -0.5490 -0.1955
21114SOL    HW165210   7.525   4.627   1.872  0.2316 -1.4099 -1.7139
21114SOL    HW265211   7.471   4.752   1.805 -0.8723 -0.2032  1.2545
21115SOL     OW65212   6.977   5.465   2.401  0.1892 -0.4886  0.4291
21115SOL    HW165213   6.936   5.487   2.318  0.7828  1.1658  0.5482
21115SOL    HW265214   6.962   5.371   2.411 -1.5163 -0.3631 -0.6326
21116SOL     OW65215   6.126   3.179   4.353  0.8357 -0.5167 -0.1798
21116SOL    HW165216   6.096   3.090   4.372 -0.0359  0.0644  1.3386
21116SOL    HW265217   6.195   3.196   4.416  1.3498 -0.2739 -0.7921
21117SOL     OW65218   4.536   6.186   2.627 -0.1714 -0.0258  0.4503
21117SOL    HW165219   4.524   6.270   2.584 -0.1429 -1.1327 -1.9248
21117SOL    HW265220   4.530   6.205   2.720  0.5250  2.6846  0.0326
21118SOL     OW65221   6.463   2.680   6.664 -0.2072 -0.4400 -0.1148
21118SOL    HW165222   6.471   2.605   6.605  0.0357 -0.9122  0.5070
21118SOL    HW265223   6.448   2.641   6.750  0.5345  0.1966  0.3231
21119SOL     OW65224   1.938   4.244   5.022 -0.3256 -0.1770 -0.7824
21119SOL    HW165225   1.971   4.179   5.084  2.1372 -0.6576 -2.4744
21119SOL    HW265226   1.979   4.326   5.049 -0.4429 -0.0809 -0.8941
21120SOL     OW65227   7.868   3.694   3.534 -0.2431  0.2472  0.3936
21120SOL    HW165228   7.842   3.629   3.468 -1.0717  0.5505  0.4148
21120SOL    HW265229   7.964   3.695   3.529 -0.3008  0.5590 -1.1039
21121SOL     OW65230   2.005   5.038   3.148 -0.0619  0.9326 -0.5252
21121SOL    HW165231   2.096   5.047   3.122 -0.2702  0.1993 -1.5536
21121SOL    HW265232   1.999   4.950   3.184 -0.5759  0.6035 -1.3938
21122SOL     OW65233   3.925   1.436   6.494 -0.8061 -0.0513  0.0951
21122SOL    HW165234   3.897   1.466   6.580 -1.4262 -1.1838  0.3099
21122SOL    HW265235   3.924   1.515   6.440  1.2253  1.0224  1.4931
21123SOL     OW65236   4.491   6.260   6.932 -0.5085 -0.0928  0.0649
21123SOL    HW165237   4.457   6.241   6.844  0.9695  2.4632 -1.1993
21123SOL    HW265238   4.457   6.347   6.952  0.5256  0.0544  1.3032
21124SOL     OW65239   4.077   6.975   3.132 -0.1217  0.0791 -0.9226
21124SOL    HW165240   4.040   6.944   3.215 -1.0047 -0.0529 -1.3607
21124SOL    HW265241   4.160   6.927   3.124  0.1137  0.2999  0.0171
21125SOL     OW65242   7.326   3.441   5.020 -0.4538 -0.0560 -0.1368
21125SOL    HW165243   7.407   3.475   4.982 -1.1831 -0.3014 -2.0053
21125SOL    HW265244   7.256   3.487   4.974 -1.4008 -0.5483  0.7706
21126SOL     OW65245   6.996   0.595   5.371  0.3238  0.0797  0.3458
21126SOL    HW165246   6.954   0.606   5.286  0.1832 -2.7458 -0.0586
21126SOL    HW265247   7.072   0.654   5.369 -1.2009  2.1320 -0.5610
21127SOL     OW65248   5.657   6.611   0.147  0.6866  0.5816 -0.2699
21127SOL    HW165249   5.713   6.670   0.198  0.9680 -1.0178  1.3758
21127SOL    HW265250   5.571   6.651   0.151  1.0115  1.2496  0.2292
21128SOL     OW65251   2.675   1.773   0.461 -0.7418 -0.2333  0.5084
21128SOL    HW165252   2.720   1.737   0.385  0.4694  0.1523  1.0061
21128SOL    HW265253   2.582   1.756   0.445 -0.6488  0.9925 -1.6643
21129SOL     OW65254   0.295   1.429   0.321 -0.2615  0.7597  0.2648
21129SOL    HW165255   0.203   1.446   0.300  0.1137  1.5464 -0.8729
21129SOL    HW265256   0.314   1.345   0.279 -0.1072  1.2720 -0.7288
21130SOL     OW65257   2.621   5.796   0.829  0.1140  0.2786 -0.0210
21130SOL    HW165258   2.704   5.751   0.845  0.0171  0.4746  1.1645
21130SOL    HW265259   2.582   5.805   0.916 -0.1093  2.2064 -0.2729
21131SOL     OW65260   5.435   6.676   4.710  0.4033  0.2710  0.1873
21131SOL    HW165261   5.344   6.688   4.736  0.5405  0.1458  0.7576
21131SOL    HW265262   5.483   6.740   4.762  0.5415  1.0328 -0.8539
21132SOL     OW65263   2.122   6.283   0.329  0.4635  0.2088 -0.0102
21132SOL    HW165264   2.135   6.196   0.365  2.4061  0.7622  0.8078
21132SOL    HW265265   2.148   6.343   0.400  2.1116  1.3697 -1.4929
21133SOL     OW65266   2.617   4.253   1.591  0.2224  0.2010  0.5713
21133SOL    HW165267   2.672   4.283   1.664 -1.2533 -0.0370  1.8177
21133SOL    HW265268   2.680   4.230   1.522  1.5718  2.8973  0.7484
21134SOL     OW65269   0.541   0.832   5.599 -0.2754  0.2066  0.4644
21134SOL    HW165270   0.468   0.855   5.542 -0.6732  0.6400  1.1425
21134SOL    HW265271   0.504   0.831   5.687  0.0192 -1.7406  0.6150
21135SOL     OW65272   4.393   3.961   6.110  0.9607 -0.9488 -0.0820
21135SOL    HW165273   4.469   4.011   6.083  0.1147  1.0292  0.9617
21135SOL    HW265274   4.428   3.892   6.165  2.0758 -0.6750 -0.4215
21136SOL     OW65275   7.292   8.279   1.500 -0.1762 -1.0136  0.0853
21136SOL    HW165276   7.313   8.190   1.531 -0.2707 -1.5165 -1.2530
21136SOL    HW265277   7.316   8.279   1.408  0.0658  0.4477  0.1240
21137SOL     OW65278   2.459   6.687   5.796  0.3058  0.2481 -0.1903
21137SOL    HW165279   2.456   6.634   5.717  0.9864 -0.6519  0.3764
21137SOL    HW265280   2.383   6.657   5.847  0.1417  0.4968 -0.2847
21138SOL     OW65281   6.611   7.108   5.867  0.1561  0.4584 -0.3319
21138SOL    HW165282   6.573   7.064   5.943  1.1091 -2.9666 -1.6682
21138SOL    HW265283   6.535   7.133   5.814 -0.4223 -0.2118  0.1555
21139SOL     OW65284   6.472   2.994   3.402 -0.5383  0.5244  0.1548
21139SOL    HW165285   6.472   3.057   3.330  0.0226  0.5646  0.1854
21139SOL    HW265286   6.381   2.989   3.429 -0.8096  0.2470 -0.7875
21140SOL     OW65287   3.279   5.940   1.610 -0.7368 -0.2364 -0.0664
21140SOL    HW165288   3.267   5.945   1.705 -0.9601 -0.6322 -0.0745
21140SOL    HW265289   3.214   6.000   1.574 -0.2707  0.3500  0.0541
21141SOL     OW65290   6.905   6.585   5.386  0.6461  0.1680 -0.2711
21141SOL    HW165291   6.906   6.636   5.305  0.1236  0.2157 -0.2498
21141SOL    HW265292   6.985   6.532   5.382  0.6048  0.1453 -0.8349
21142SOL     OW65293   8.095   8.656   6.063  0.3883 -0.3883  0.2389
21142SOL    HW165294   8.143   8.576   6.041  0.4813 -0.5298  0.9378
21142SOL    HW265295   8.043   8.633   6.140 -1.8407 -0.6354 -1.2421
21143SOL     OW65296   0.930   1.019   6.517  0.2963 -0.0357  0.1649
21143SOL    HW165297   0.960   1.109   6.531 -1.2363  1.1110 -3.0861
21143SOL    HW265298   0.835   1.025   6.514  0.1790 -1.7123 -0.4220
21144SOL     OW65299   7.173   8.349   3.767 -0.2401  0.0860 -0.5246
21144SOL    HW165300   7.132   8.364   3.853 -0.0116 -1.5293 -0.1149
21144SOL    HW265301   7.101   8.319   3.711 -0.3273  0.8500 -0.8424
21145SOL     OW65302   2.785   0.096   8.377 -0.0530  0.0171  0.3111
21145SOL    HW165303   2.807   0.103   8.470 -0.3468  0.6717  0.3406
21145SOL    HW265304   2.690   0.112   8.374 -0.2122 -0.9237 -0.0054
21146SOL     OW65305   2.913   2.116   6.911  0.0719  0.0100  0.2699
21146SOL    HW165306   2.934   2.204   6.882  0.3910 -0.0788  0.2328
21146SOL    HW265307   2.923   2.119   7.006 -2.0701  0.6083  0.5357
21147SOL     OW65308   7.324   1.743   1.503  0.3054  0.2147 -0.0309
21147SOL    HW165309   7.395   1.702   1.552  0.5844  0.8254  0.0902
21147SOL    HW265310   7.274   1.670   1.467  0.5477 -0.2350  0.5220
21148SOL     OW65311   1.521   4.200   8.794 -0.3324 -0.8143 -0.0515
21148SOL    HW165312   1.463   4.129   8.824 -0.3795 -1.0479 -0.6907
21148SOL    HW265313   1.597   4.155   8.758 -0.8206 -0.5764 -1.4121
21149SOL     OW65314   7.509   2.490   0.741 -0.2530 -0.2321  0.2582
21149SOL    HW165315   7.420   2.518   0.762 -0.2206  1.5812 -1.7581
21149SOL    HW265316   7.565   2.560   0.774  0.0842  0.6352 -2.0056
21150SOL     OW65317   8.880   1.181   4.884 -0.2628  0.0288  0.4325
21150SOL    HW165318   8.876   1.117   4.813  0.6696 -0.4744  0.8128
21150SOL    HW265319   8.974   1.192   4.901 -0.4577  0.4850  1.2784
21151SOL     OW65320   8.575   0.402   8.457  0.0409 -0.2991  0.0044
21151SOL    HW165321   8.560   0.308   8.451  0.3598 -0.3976  0.6530
21151SOL    HW265322   8.491   0.438   8.488 -0.1743 -0.3276 -0.5348
21152SOL     OW65323   3.881   6.939   1.897 -0.0862 -0.4442  1.0681
21152SOL    HW165324   3.922   6.934   1.983  1.3620 -0.7653  0.3843
21152SOL    HW265325   3.828   7.019   1.901  0.7422  0.0915  1.9379
21153SOL     OW65326   5.415   2.432   2.891  0.8802  0.4340  0.3151
21153SOL    HW165327   5.359   2.361   2.922  0.4711 -0.4649 -2.1834
21153SOL    HW265328   5.367   2.512   2.913 -0.5727 -0.2560 -0.2245
21154SOL     OW65329   8.894   7.518   6.863  0.1708  0.0869 -0.1562
21154SOL    HW165330   8.931   7.605   6.875 -1.2702  0.6967  0.1019
21154SOL    HW265331   8.885   7.484   6.953 -0.9136  0.4166 -0.1213
21155SOL     OW65332   3.316   4.444   1.635  0.5058 -0.6477 -0.2909
21155SOL    HW165333   3.225   4.466   1.616  0.7539  0.0876 -0.6422
21155SOL    HW265334   3.365   4.525   1.621  1.6991 -1.7178 -3.1727
21156SOL     OW65335   3.441   4.967   2.083 -0.6801 -0.0629 -0.4759
21156SOL    HW165336   3.426   5.058   2.110  2.7368  0.9188 -1.3368
21156SOL    HW265337   3.510   4.936   2.142 -2.3958 -2.5066  0.3957
21157SOL     OW65338   7.857   4.040   7.465 -0.6028  0.0370  0.0856
21157SOL    HW165339   7.876   4.004   7.379 -0.6313 -1.6193  0.7354
21157SOL    HW265340   7.819   4.126   7.448 -0.6030 -0.2615 -1.5394
21158SOL     OW65341   1.236   4.584   5.844 -0.2491 -0.5124  0.4345
21158SOL    HW165342   1.243   4.544   5.931  0.6335  0.4096  0.8073
21158SOL    HW265343   1.255   4.677   5.859 -1.1946 -0.1345 -0.5765
21159SOL     OW65344   6.002   8.450   8.150  0.8047 -0.1837  0.1637
21159SOL    HW165345   5.948   8.371   8.144 -0.9464  1.0567 -2.0410
21159SOL    HW265346   5.977   8.490   8.233 -2.0323  0.4870 -0.9081
21160SOL     OW65347   2.900   8.740   7.248 -0.6064  0.2350  0.4398
21160SOL    HW165348   2.822   8.778   7.287 -0.3913 -0.6567  1.8101
21160SOL    HW265349   2.867   8.672   7.189 -0.8899 -0.8087  1.7415
21161SOL     OW65350   8.386   7.979   5.740 -0.1796 -0.2443 -0.9915
21161SOL    HW165351   8.393   8.003   5.832  0.1442  0.0545 -1.0907
21161SOL    HW265352   8.305   7.928   5.734  0.5318 -1.5023 -0.2876
21162SOL     OW65353   8.612   2.655   3.926 -0.1457 -0.0415 -0.3912
21162SOL    HW165354   8.613   2.751   3.923  0.2710 -0.0442 -2.8145
21162SOL    HW265355   8.591   2.629   3.836 -0.9525 -2.2415  0.3705
21163SOL     OW65356   8.524   3.074   4.300  0.6740  0.1978  0.3977
21163SOL    HW165357   8.551   3.165   4.307 -0.2440  0.4089  1.4811
21163SOL    HW265358   8.514   3.045   4.391  1.9172 -1.2965  0.1110
21164SOL     OW65359   6.912   7.117   0.458  0.3540  0.7147 -0.2007
21164SOL    HW165360   6.856   7.178   0.411  0.6694 -1.0135 -3.1121
21164SOL    HW265361   7.000   7.135   0.425  0.6909 -0.0981  0.2143
21165SOL     OW65362   6.828   4.344   1.346 -0.1234  0.2371 -0.3042
21165SOL    HW165363   6.882   4.346   1.425  0.6744 -3.1257 -0.6172
21165SOL    HW265364   6.744   4.308   1.375 -1.2114  2.5002 -0.4080
21166SOL     OW65365   8.118   0.874   2.890 -0.8205 -1.0438  0.2568
21166SOL    HW165366   8.183   0.938   2.862 -1.3685 -0.9885 -0.9595
21166SOL    HW265367   8.124   0.804   2.825 -2.3311 -0.7823 -0.2129
21167SOL     OW65368   8.291   1.706   8.580  1.1503  0.0415 -0.1841
21167SOL    HW165369   8.254   1.731   8.495  1.0840 -0.5311 -0.3247
21167SOL    HW265370   8.268   1.779   8.638  1.7501  0.7416 -0.8049
21168SOL     OW65371   3.022   7.376   4.950  0.5534  0.3990  0.3126
21168SOL    HW165372   2.979   7.457   4.921 -0.4198  1.0956  3.3161
21168SOL    HW265373   2.951   7.323   4.987  1.5029 -0.8998  0.3340
21169SOL     OW65374   5.083   6.291   8.217  0.0162 -0.0351  0.1759
21169SOL    HW165375   5.073   6.338   8.134  2.6221  0.5435  0.1024
21169SOL    HW265376   5.144   6.344   8.268  0.6752 -1.7927  1.3247
21170SOL     OW65377   3.579   1.999   7.554 -0.3466 -0.3496 -0.8610
21170SOL    HW165378   3.548   2.044   7.633 -1.4892  0.0944 -1.5394
21170SOL    HW265379   3.639   1.932   7.586 -1.8151 -1.0683  0.4879
21171SOL     OW65380   2.690   7.273   7.873 -0.5278 -0.4057  0.2470
21171SOL    HW165381   2.655   7.193   7.910 -1.3805  0.1626  0.7055
21171SOL    HW265382   2.739   7.314   7.944  1.1019 -1.1767 -0.3794
21172SOL     OW65383   8.961   5.814   0.030  0.3174  0.4713 -0.3586
21172SOL    HW165384   8.866   5.820   0.023  0.1266 -0.7190  0.7858
21172SOL    HW265385   8.977   5.720   0.043  1.5782  0.7856  0.4419
21173SOL     OW65386   3.413   6.281   3.456  0.2860  0.4735 -0.1407
21173SOL    HW165387   3.393   6.369   3.488 -0.7996  0.5705 -1.0342
21173SOL    HW265388   3.412   6.226   3.535  0.3126  1.1470  0.3361
21174SOL     OW65389   6.355   4.906   5.483 -0.1228  0.0762 -0.3957
21174SOL    HW165390   6.335   4.912   5.389  1.0397  0.2493 -0.6487
21174SOL    HW265391   6.307   4.979   5.522  0.6134  0.9692 -1.0974
21175SOL     OW65392   2.984   3.280   5.777  0.5124  0.0675 -0.3426
21175SOL    HW165393   2.892   3.294   5.801  0.6302  2.8870 -1.1520
21175SOL    HW265394   3.033   3.340   5.833  1.3126  2.2542 -3.1478
21176SOL     OW65395   0.811   3.061   5.462  0.2537  0.5692  0.0338
21176SOL    HW165396   0.827   3.116   5.386 -0.5459  0.2106 -0.4055
21176SOL    HW265397   0.786   2.976   5.426 -1.9904  0.9048  0.6506
21177SOL     OW65398   5.593   6.964   5.859  0.5327 -0.1819 -0.2251
21177SOL    HW165399   5.616   6.999   5.773  1.3389 -0.0906  0.0190
21177SOL    HW265400   5.518   7.017   5.887  0.5247  0.0595 -0.6900
21178SOL     OW65401   4.809   7.983   0.105 -0.0996  0.1633  0.2967
21178SOL    HW165402   4.719   7.952   0.101  0.0337 -0.1406 -0.4274
21178SOL    HW265403   4.847   7.958   0.021  0.7672 -0.0421  0.7411
21179SOL     OW65404   6.520   0.316   8.643 -0.2482  0.5266  0.0898
21179SOL    HW165405   6.495   0.404   8.614  2.0470  1.3165  0.2900
21179SOL    HW265406   6.556   0.274   8.565 -0.5945  0.0344  0.1858
21180SOL     OW65407   4.745   3.165   8.322  0.1496 -1.0175  0.2013
21180SOL    HW165408   4.669   3.109   8.308  0.0293 -0.9390  0.5359
21180SOL    HW265409   4.762   3.161   8.416  0.6123 -1.1009  0.1188
21181SOL     OW65410   7.236   0.426   3.155  0.0177 -0.3869 -0.1220
21181SOL    HW165411   7.326   0.451   3.177 -0.1081 -0.7335  0.8242
21181SOL    HW265412   7.203   0.382   3.234 -1.3388  0.6924 -0.0486
21182SOL     OW65413   6.711   1.624   6.287 -0.1430  0.4094  0.0361
21182SOL    HW165414   6.738   1.594   6.374 -0.4691 -1.2066 -0.3775
21182SOL    HW265415   6.747   1.558   6.228 -1.6674  0.3568 -0.8715
21183SOL     OW65416   0.130   7.398   5.080 -0.1122  0.0946 -0.3975
21183SOL    HW165417   0.119   7.453   5.157 -0.0941  0.9940 -1.0285
21183SOL    HW265418   0.143   7.459   5.008 -1.4320 -0.6726 -1.3451
21184SOL     OW65419   6.568   8.649   2.852  0.2009  0.6351 -0.2144
21184SOL    HW165420   6.601   8.649   2.762 -0.1349  0.9145 -0.3389
21184SOL    HW265421   6.636   8.693   2.903 -0.6784  2.7185 -0.7324
21185SOL     OW65422   5.011   0.365   7.266 -0.2148 -0.0904 -0.1246
21185SOL    HW165423   4.923   0.342   7.237 -0.1381 -0.0182 -0.4122
21185SOL    HW265424   5.046   0.421   7.197  0.0223 -0.0388  0.0337
21186SOL     OW65425   7.132   0.503   6.454  0.5807  0.6225  0.2200
21186SOL    HW165426   7.199   0.445   6.420  0.7208  1.0801 -0.3117
21186SOL    HW265427   7.159   0.591   6.426  0.1186  0.8875  0.5754
21187SOL     OW65428   2.283   4.393   0.872 -0.2166  0.3084 -0.1731
21187SOL    HW165429   2.249   4.394   0.962 -1.4483 -0.6334 -0.6009
21187SOL    HW265430   2.211   4.426   0.819  0.2603  0.2083 -0.8912
21188SOL     OW65431   0.316   5.232   0.166  0.2483 -0.3279  0.4237
21188SOL    HW165432   0.262   5.311   0.173  0.4440 -0.2333  0.9106
21188SOL    HW265433   0.281   5.173   0.232 -0.4527 -0.9943 -0.5123
21189SOL     OW65434   5.939   1.239   8.795  0.3282  0.4914  0.7024
21189SOL    HW165435   5.939   1.156   8.842  0.9922  0.2634  0.3172
21189SOL    HW265436   6.015   1.233   8.736  0.2027  1.2439  0.4545
21190SOL     OW65437   5.316   6.270   7.150 -0.7713  0.3052 -0.1121
21190SOL    HW165438   5.298   6.191   7.098 -0.0965 -0.5101  0.8545
21190SOL    HW265439   5.383   6.317   7.100  0.5468 -0.9301  0.4328
21191SOL     OW65440   7.596   3.793   5.098  0.4351 -0.1149 -0.2841
21191SOL    HW165441   7.676   3.810   5.048  1.2137  1.6847  1.4784
21191SOL    HW265442   7.545   3.873   5.091 -0.5585 -0.7135 -0.1469
21192SOL     OW65443   8.881   6.587   5.057 -0.2433  0.0973 -0.3104
21192SOL    HW165444   8.963   6.599   5.008 -0.4265 -0.5693 -0.7871
21192SOL    HW265445   8.896   6.511   5.112 -1.2677 -1.4658 -2.0417
21193SOL     OW65446   4.970   1.797   3.355  0.5680 -0.3258 -0.6081
21193SOL    HW165447   5.042   1.762   3.408  2.7553  0.6947 -2.7088
21193SOL    HW265448   4.901   1.732   3.363  2.1744 -1.9988  0.5700
21194SOL     OW65449   7.612   8.824   3.577 -0.0235  0.2707  0.8446
21194SOL    HW165450   7.652   8.739   3.592  0.8607  0.3434 -0.8200
21194SOL    HW265451   7.535   8.805   3.522  1.4831  0.6578 -1.5827
21195SOL     OW65452   6.332   1.202   3.442  0.1028 -0.2766 -0.7005
21195SOL    HW165453   6.271   1.145   3.489  3.3324 -1.9009  2.0060
21195SOL    HW265454   6.350   1.156   3.360 -1.6673 -0.1393 -1.1899
21196SOL     OW65455   6.358   4.016   4.149  0.1365  0.5254 -0.1595
21196SOL    HW165456   6.451   4.036   4.147  0.4965 -1.0602 -1.8471
21196SOL    HW265457   6.329   4.022   4.058 -1.3982  0.8807  0.3107
21197SOL     OW65458   0.113   1.815   2.352 -0.1780 -0.4309  0.9918
21197SOL    HW165459   0.148   1.728   2.333 -0.1154  0.1791 -2.3696
21197SOL    HW265460   0.019   1.807   2.338  0.0222  0.3480 -1.2873
21198SOL     OW65461   0.252   2.600   3.889  0.7350  0.2169 -0.7657
21198SOL    HW165462   0.239   2.685   3.931  1.6142  0.3123 -0.6671
21198SOL    HW265463   0.286   2.544   3.959  0.2494 -0.1845 -0.8547
21199SOL     OW65464   8.805   1.986   7.186  0.1966 -0.6006  0.0698
21199SOL    HW165465   8.793   2.057   7.249  0.8440 -0.8991  0.5351
21199SOL    HW265466   8.755   2.014   7.110 -0.9392 -0.4206  0.8549
21200SOL     OW65467   3.922   6.986   6.940  0.1827  0.1545  0.1593
21200SOL    HW165468   3.846   6.935   6.911  1.1202 -0.8325 -0.6603
21200SOL    HW265469   3.922   6.977   7.035 -0.7289  0.1830  0.1739
21201SOL     OW65470   8.878   3.367   7.448  0.1046 -0.1820 -0.6200
21201SOL    HW165471   8.940   3.341   7.516 -0.6866  0.1632  0.2586
21201SOL    HW265472   8.801   3.312   7.463 -0.1702  0.0665 -1.0924
21202SOL     OW65473   8.551   4.913   7.725 -0.3912  0.3120  0.1786
21202SOL    HW165474   8.631   4.861   7.724 -1.2837 -1.1349  1.1980
21202SOL    HW265475   8.515   4.903   7.636 -0.1855 -0.2277  0.1543
21203SOL     OW65476   2.202   2.773   4.276 -0.1515 -0.3692  0.1502
21203SOL    HW165477   2.206   2.699   4.336 -1.3850  0.0666  0.8028
21203SOL    HW265478   2.164   2.736   4.196  0.3360 -0.6834  0.0572
21204SOL     OW65479   5.093   8.415   7.693 -0.3419  0.4903 -0.4286
21204SOL    HW165480   5.051   8.330   7.681 -0.3873  0.5104 -0.4064
21204SOL    HW265481   5.187   8.396   7.694 -0.3726  0.3614  0.2202
21205SOL     OW65482   8.516   4.390   2.288  0.0635 -0.5570  0.5094
21205SOL    HW165483   8.528   4.306   2.334 -0.6262 -1.2720 -0.5754
21205SOL    HW265484   8.461   4.368   2.213 -1.2297  1.1113  0.9180
21206SOL     OW65485   6.156   5.302   0.860 -0.3310 -0.2501 -0.3772
21206SOL    HW165486   6.118   5.230   0.911 -1.6544  1.0554  0.5709
21206SOL    HW265487   6.098   5.311   0.785 -0.8211  0.5283  0.0859
21207SOL     OW65488   1.198   8.550   7.997  0.4415 -0.2133  0.4665
21207SOL    HW165489   1.145   8.481   8.038  0.7423 -0.2125  0.8620
21207SOL    HW265490   1.197   8.529   7.903 -0.0401 -0.3629  0.5041
21208SOL     OW65491   3.229   8.022   4.140  0.0193 -0.1786 -0.1914
21208SOL    HW165492   3.323   8.033   4.121  0.3896 -0.4701  1.3319
21208SOL    HW265493   3.224   7.939   4.187 -1.0056 -0.1495 -0.2360
21209SOL     OW65494   6.557   0.602   1.006  0.4017  0.1051  0.4074
21209SOL    HW165495   6.582   0.646   1.087 -0.3853  0.1196  0.6526
21209SOL    HW265496   6.471   0.564   1.024 -0.2736  0.9922 -0.7270
21210SOL     OW65497   8.337   2.231   3.909 -0.3990 -0.6235  0.3027
21210SOL    HW165498   8.280   2.283   3.964  2.2397  1.7688  1.0147
21210SOL    HW265499   8.279   2.189   3.846 -2.8283  2.5753  0.1742
21211SOL     OW65500   3.485   7.995   0.564  0.5129 -0.6271 -0.2640
21211SOL    HW165501   3.491   8.011   0.658 -0.6586 -0.7435 -0.1534
21211SOL    HW265502   3.560   8.042   0.526  0.5707  0.0282  0.6498
21212SOL     OW65503   1.736   0.111   7.134  0.3517 -0.7054 -0.2308
21212SOL    HW165504   1.650   0.100   7.174  0.2104  1.8785  0.3497
21212SOL    HW265505   1.796   0.064   7.192 -0.3567 -0.3042  0.8489
21213SOL     OW65506   0.044   5.779   4.373  0.1781 -0.0965  0.5002
21213SOL    HW165507   0.005   5.755   4.457 -1.0567  1.3875  0.3968
21213SOL    HW265508   0.014   5.712   4.312 -0.6910 -0.0207  0.8285
21214SOL     OW65509   1.564   0.162   5.178 -0.3202  0.0514 -0.7288
21214SOL    HW165510   1.594   0.166   5.087 -0.9705  2.5566 -0.9175
21214SOL    HW265511   1.590   0.246   5.215 -2.8054  0.3844  0.4613
21215SOL     OW65512   2.883   1.293   1.560 -1.0882 -0.4882 -0.1876
21215SOL    HW165513   2.912   1.374   1.603  0.2464 -0.8262 -0.3940
21215SOL    HW265514   2.948   1.279   1.491 -2.4482 -0.6618 -1.4773
21216SOL     OW65515   2.525   8.117   7.789 -0.1209 -0.1973  0.1098
21216SOL    HW165516   2.592   8.173   7.750 -1.5324  1.5237  0.0448
21216SOL    HW265517   2.520   8.042   7.730 -0.4441  1.1524 -1.6615
21217SOL     OW65518   2.630   7.812   7.537 -0.2637 -0.8195 -0.2880
21217SOL    HW165519   2.699   7.811   7.603 -0.4416 -3.4981 -0.0527
21217SOL    HW265520   2.556   7.854   7.580  0.0965 -1.1841  0.7119
21218SOL     OW65521   3.578   5.521   2.444  0.0081  0.0799 -0.5807
21218SOL    HW165522   3.627   5.503   2.364  5.1855  0.2297  2.1748
21218SOL    HW265523   3.574   5.437   2.490 -1.1003  0.3932 -0.0579
21219SOL     OW65524   4.017   3.037   2.548  1.1839 -0.4374  0.3404
21219SOL    HW165525   3.976   3.001   2.626 -2.2641  0.9431 -0.6507
21219SOL    HW265526   3.944   3.053   2.488  3.1905  2.4155 -1.5724
21220SOL     OW65527   2.955   5.135   8.896 -0.7132 -0.0810  0.0106
21220SOL    HW165528   2.883   5.119   8.835 -0.7479  1.8095 -0.4825
21220SOL    HW265529   2.984   5.224   8.877 -0.0405  0.1807  2.0495
21221SOL     OW65530   4.541   8.485   6.892 -0.1784  0.1363  0.4626
21221SOL    HW165531   4.635   8.475   6.875 -0.1279 -1.0182  1.2596
21221SOL    HW265532   4.536   8.513   6.983 -0.6029  0.3417  0.3774
21222SOL     OW65533   7.103   0.472   0.528 -0.2061 -0.5043  0.1114
21222SOL    HW165534   7.173   0.535   0.547 -1.4851  1.0873 -0.2270
21222SOL    HW265535   7.119   0.445   0.438 -0.5506  0.5953 -0.2910
21223SOL     OW65536   3.981   6.992   5.839  0.1364 -0.2369  0.2499
21223SOL    HW165537   3.939   7.068   5.798  0.9021  0.0498 -0.0161
21223SOL    HW265538   4.051   7.029   5.893  2.0900 -0.8207 -1.7171
21224SOL     OW65539   7.692   3.569   7.278 -0.3593 -0.1145 -0.2716
21224SOL    HW165540   7.676   3.619   7.198  3.3136  2.9105  0.5773
21224SOL    HW265541   7.633   3.607   7.343 -0.0140  0.8060 -0.4752
21225SOL     OW65542   1.750   2.378   8.563 -0.4220  0.4536 -0.2668
21225SOL    HW165543   1.771   2.457   8.612 -0.3409  0.8757 -0.9674
21225SOL    HW265544   1.814   2.314   8.593  0.3154  1.0177 -0.6015
21226SOL     OW65545   6.105   2.070   2.247  0.1586  0.2600  0.1239
21226SOL    HW165546   6.075   2.125   2.319  1.4394 -0.2855  1.1033
21226SOL    HW265547   6.025   2.033   2.210 -0.4589 -0.4152  2.0487
21227SOL     OW65548   8.965   8.534   8.945 -0.2489  0.0667  0.5213
21227SOL    HW165549   8.953   8.586   9.025 -1.5438  0.2892  0.2042
21227SOL    HW265550   8.945   8.445   8.971 -0.1420  0.0599  0.5776
21228SOL     OW65551   2.946   3.727   1.473 -0.1489 -0.0452 -0.2427
21228SOL    HW165552   2.906   3.641   1.483  1.7601 -1.0182 -0.4226
21228SOL    HW265553   2.946   3.743   1.378 -0.8768  0.3755 -0.1837
21229SOL     OW65554   0.585   3.532   7.653 -0.1531  0.0049  0.0887
21229SOL    HW165555   0.600   3.514   7.746  1.7048  0.2499 -0.1233
21229SOL    HW265556   0.493   3.511   7.639 -0.1690 -1.1942  1.7137
21230SOL     OW65557   8.580   5.541   8.721 -0.4447  0.4164 -0.4926
21230SOL    HW165558   8.534   5.535   8.637 -0.0878  1.5219 -0.7769
21230SOL    HW265559   8.561   5.457   8.764 -0.6847 -0.1359 -1.6369
21231SOL     OW65560   2.802   8.975   6.836  0.0352  0.2311  0.1517
21231SOL    HW165561   2.738   8.912   6.868  0.3020  0.4449  1.1535
21231SOL    HW265562   2.799   8.967   6.740 -1.2197 -0.0106  0.1988
21232SOL     OW65563   7.554   2.758   4.025  0.0604 -0.0642 -0.1881
21232SOL    HW165564   7.471   2.712   4.038  0.4020 -0.6975 -0.2158
21232SOL    HW265565   7.583   2.733   3.937 -1.2443  2.6242 -1.5333
21233SOL     OW65566   0.638   2.664   3.762  0.3505 -0.0827  0.3122
21233SOL    HW165567   0.613   2.615   3.684  0.5848  0.4735 -0.1223
21233SOL    HW265568   0.629   2.602   3.834 -1.2383 -0.1880  0.0378
21234SOL     OW65569   2.723   1.923   4.854 -0.0323  0.0218  0.1090
21234SOL    HW165570   2.788   1.853   4.846 -0.1375 -0.2777  1.5150
21234SOL    HW265571   2.756   1.977   4.927  0.6705  2.1580 -1.6771
21235SOL     OW65572   5.248   1.080   8.078 -0.0487 -0.3189  0.1014
21235SOL    HW165573   5.257   0.985   8.085 -2.7100 -0.8257 -1.8755
21235SOL    HW265574   5.307   1.104   8.007  2.0019 -0.1182  1.7645
21236SOL     OW65575   5.838   1.867   5.001 -0.4857 -0.0082  0.1691
21236SOL    HW165576   5.873   1.779   5.019 -0.4826  0.0410  0.4021
21236SOL    HW265577   5.915   1.922   4.990 -0.4880  0.0497  0.4369
21237SOL     OW65578   4.563   3.784   0.525 -0.2447  0.5103  0.5278
21237SOL    HW165579   4.604   3.719   0.469 -0.2730  0.8828  0.0649
21237SOL    HW265580   4.470   3.779   0.503 -0.3006  0.4262  0.7821
21238SOL     OW65581   5.902   5.273   5.905 -0.0075  0.2960 -0.3259
21238SOL    HW165582   5.947   5.351   5.936  0.5491  0.0158 -0.4049
21238SOL    HW265583   5.937   5.202   5.960 -0.6434  0.1293 -0.1279
21239SOL     OW65584   7.461   2.588   5.563 -0.1031 -0.1854 -0.2999
21239SOL    HW165585   7.462   2.502   5.520  0.4124 -0.6377  0.5803
21239SOL    HW265586   7.544   2.592   5.609 -0.0046  0.9205 -0.5617
21240SOL     OW65587   5.260   3.969   2.115  0.3048  0.0775  0.2541
21240SOL    HW165588   5.336   4.028   2.113  0.1583  0.3997 -3.4415
21240SOL    HW265589   5.184   4.028   2.118  0.1942 -0.0475 -0.0339
21241SOL     OW65590   1.111   5.848   5.989  0.0641 -0.5428 -0.7874
21241SOL    HW165591   1.088   5.757   5.971  0.5597 -0.8257 -0.0637
21241SOL    HW265592   1.079   5.863   6.078  0.9467 -0.3548 -0.4937
21242SOL     OW65593   3.431   5.625   3.406  0.2337 -0.1175 -0.2547
21242SOL    HW165594   3.374   5.583   3.341  1.2975 -1.0694 -0.6028
21242SOL    HW265595   3.517   5.587   3.391  0.2890 -1.3287  2.5624
21243SOL     OW65596   4.932   8.182   7.743 -0.4054  0.3439  0.0903
21243SOL    HW165597   4.922   8.088   7.728  0.0994  0.4835 -1.3093
21243SOL    HW265598   4.864   8.222   7.689 -0.4612  0.7977  0.4930
21244SOL     OW65599   5.473   1.681   7.114 -0.2125  0.5961 -0.1448
21244SOL    HW165600   5.461   1.665   7.208 -0.1238  0.6708 -0.1209
21244SOL    HW265601   5.391   1.651   7.075  0.5566 -1.5295 -0.2932
21245SOL     OW65602   4.760   7.057   7.732 -0.4853 -0.1009 -0.0308
21245SOL    HW165603   4.697   7.045   7.662 -0.4995 -0.6254  0.0647
21245SOL    HW265604   4.775   6.969   7.767  1.6866 -0.2935 -1.2543
21246SOL     OW65605   7.219   0.657   7.639 -0.2225 -0.0794 -0.2420
21246SOL    HW165606   7.305   0.633   7.675 -0.5599 -2.2108 -0.7345
21246SOL    HW265607   7.238   0.725   7.574  1.0603 -0.3706 -0.1947
21247SOL     OW65608   8.478   0.282   7.559  0.4428  0.3637 -0.7018
21247SOL    HW165609   8.477   0.352   7.493 -0.8814  1.9927  0.9227
21247SOL    HW265610   8.388   0.251   7.562  0.7822 -0.6369 -0.5778
21248SOL     OW65611   7.068   7.168   0.996  0.1020 -0.6300  0.6873
21248SOL    HW165612   7.076   7.072   0.989  1.2455 -0.4898 -0.2349
21248SOL    HW265613   7.147   7.195   1.043 -0.1917 -0.1228  0.8938
21249SOL     OW65614   5.400   0.350   1.821 -0.3549  0.1361 -0.0691
21249SOL    HW165615   5.371   0.414   1.757  0.1047  0.6829  0.2532
21249SOL    HW265616   5.496   0.354   1.817 -0.1667  2.6010  2.9009
21250SOL     OW65617   7.032   1.442   6.998 -0.0336  0.5359 -0.0950
21250SOL    HW165618   7.085   1.483   7.067  0.3947  2.2490 -1.3999
21250SOL    HW265619   7.017   1.511   6.934  3.4058 -1.9277 -4.0553
21251SOL     OW65620   0.784   7.997   7.539  0.7752  0.0828  0.5016
21251SOL    HW165621   0.852   7.939   7.573  0.5304  0.2961  1.3994
21251SOL    HW265622   0.703   7.961   7.575  0.3853 -0.2553 -0.6739
21252SOL     OW65623   8.667   3.559   3.386 -0.1823  0.4981 -0.0799
21252SOL    HW165624   8.610   3.561   3.310  0.4727 -1.5244 -0.6784
21252SOL    HW265625   8.637   3.484   3.438  0.2946  0.9733  0.9296
21253SOL     OW65626   5.044   8.567   2.162  0.1171  0.3885  0.0038
21253SOL    HW165627   5.025   8.473   2.169 -1.8451  0.7179 -0.2024
21253SOL    HW265628   5.096   8.587   2.240 -1.1779 -0.5020  1.1496
21254SOL     OW65629   7.313   8.797   8.654  0.1563  0.5613  0.4328
21254SOL    HW165630   7.263   8.874   8.680  0.6141  1.1241 -0.2926
21254SOL    HW265631   7.256   8.752   8.592 -0.6476 -0.4044  1.8358
21255SOL     OW65632   5.802   7.890   7.950 -0.2596  0.7520  0.1002
21255SOL    HW165633   5.858   7.957   7.910  1.2358  0.8055  2.1086
21255SOL    HW265634   5.725   7.886   7.894  0.6582  2.4786 -1.3874
21256SOL     OW65635   6.755   6.843   3.412 -0.5982 -0.4371 -0.3920
21256SOL    HW165636   6.740   6.807   3.499  1.4523 -1.0856 -0.2439
21256SOL    HW265637   6.695   6.795   3.355 -1.7782 -0.1846  0.5991
21257SOL     OW65638   3.267   3.187   2.428 -0.0222  0.1796 -0.2918
21257SOL    HW165639   3.178   3.188   2.391  0.3502 -1.1343 -1.2695
21257SOL    HW265640   3.259   3.133   2.507  0.4421 -2.5633 -1.9794
21258SOL     OW65641   8.437   6.285   7.692  0.0801  0.0501  0.2857
21258SOL    HW165642   8.366   6.349   7.679  0.2814 -0.0319 -1.4615
21258SOL    HW265643   8.479   6.313   7.773  0.2622  2.2905 -0.4858
21259SOL     OW65644   8.597   3.251   6.824 -0.0786 -0.6552 -0.6811
21259SOL    HW165645   8.687   3.238   6.853  0.4583 -0.3220 -2.0974
21259SOL    HW265646   8.543   3.212   6.893  1.1677 -1.6657 -0.2386
21260SOL     OW65647   2.144   0.866   6.519 -0.5617 -0.1126 -0.3125
21260SOL    HW165648   2.239   0.863   6.531 -0.3978  0.4170 -1.3415
21260SOL    HW265649   2.127   0.954   6.487 -1.0838 -0.9038 -2.4107
21261SOL     OW65650   5.105   1.171   7.455  0.1677 -0.0610 -0.3956
21261SOL    HW165651   5.108   1.254   7.408  1.3738 -0.7117 -1.5012
21261SOL    HW265652   5.023   1.130   7.426  0.0789  0.2778 -0.6309
21262SOL     OW65653   5.213   6.734   6.106 -0.6499 -0.2539  0.3757
21262SOL    HW165654   5.294   6.714   6.059 -0.7118  0.0872  0.1224
21262SOL    HW265655   5.215   6.676   6.182  0.8674  1.2223  1.5351
21263SOL     OW65656   6.483   6.283   3.879  0.2944  0.0788  0.8148
21263SOL    HW165657   6.504   6.202   3.834  0.0615  0.3847  0.1481
21263SOL    HW265658   6.392   6.301   3.855 -0.3393 -0.5142  2.5697
21264SOL     OW65659   2.501   3.218   6.977 -0.0342 -0.0362  0.1536
21264SOL    HW165660   2.556   3.287   7.014 -0.7713 -0.0930  1.4226
21264SOL    HW265661   2.412   3.245   7.000 -0.4079 -0.8722 -0.2817
21265SOL     OW65662   8.283   5.500   0.898 -0.4167  0.1443 -0.3002
21265SOL    HW165663   8.292   5.420   0.846 -2.8579 -0.9242  0.7774
21265SOL    HW265664   8.271   5.469   0.988  0.1311  1.8028  0.3827
21266SOL     OW65665   1.160   0.902   2.162 -0.0232 -0.9169  0.1147
21266SOL    HW165666   1.226   0.966   2.187  0.5747 -1.3440 -0.3274
21266SOL    HW265667   1.088   0.954   2.125  0.1347 -0.4627  0.4355
21267SOL     OW65668   8.703   3.791   0.309 -0.2887  0.0194 -0.2379
21267SOL    HW165669   8.695   3.875   0.353  0.5163 -0.7261  1.4052
21267SOL    HW265670   8.796   3.786   0.285 -0.2989 -0.4922 -0.1695
21268SOL     OW65671   6.506   6.683   0.251  0.2750 -0.2156  0.1593
21268SOL    HW165672   6.543   6.631   0.322 -1.8990 -1.4452  0.4936
21268SOL    HW265673   6.432   6.631   0.220 -0.3480  1.4662 -1.3351
21269SOL     OW65674   2.536   8.140   6.358 -0.0939 -0.4855  0.1249
21269SOL    HW165675   2.517   8.199   6.285 -1.8290  0.0113  0.9283
21269SOL    HW265676   2.496   8.182   6.434 -0.7328 -2.3191  0.8510
21270SOL     OW65677   5.275   6.877   7.326 -0.0249 -0.9923 -0.3967
21270SOL    HW165678   5.187   6.910   7.307 -0.0792 -0.2868  1.0173
21270SOL    HW265679   5.262   6.785   7.350 -0.4204 -0.7973  0.1383
21271SOL     OW65680   4.169   3.002   5.141 -0.5778 -0.8195  0.4644
21271SOL    HW165681   4.099   2.971   5.084 -0.1911  0.5176 -0.8012
21271SOL    HW265682   4.246   3.008   5.085  0.0457 -0.3046  1.3372
21272SOL     OW65683   2.746   5.122   7.846  0.1293  0.0098 -0.1663
21272SOL    HW165684   2.819   5.093   7.902 -1.1146 -1.2035  0.8958
21272SOL    HW265685   2.719   5.043   7.799 -2.5285 -0.4251  1.8575
21273SOL     OW65686   2.358   6.632   0.722  0.5274 -0.0631  0.0353
21273SOL    HW165687   2.370   6.723   0.750 -0.0627 -0.0727  0.3396
21273SOL    HW265688   2.400   6.581   0.792 -0.4659 -0.0684  0.6428
21274SOL     OW65689   1.289   6.623   1.915  0.0116  0.1016 -0.4856
21274SOL    HW165690   1.227   6.651   1.848 -2.4316  0.0352  1.5749
21274SOL    HW265691   1.286   6.528   1.912 -0.4961  0.0952  0.0107
21275SOL     OW65692   2.041   1.189   2.590  0.7431 -0.3670  0.1924
21275SOL    HW165693   2.020   1.121   2.654 -0.7587 -0.1346 -0.0384
21275SOL    HW265694   1.997   1.268   2.622  1.9722  0.3683  0.1416
21276SOL     OW65695   5.542   7.370   6.265  0.4422  0.7598  0.3935
21276SOL    HW165696   5.562   7.457   6.298  1.3375  0.8489 -0.3171
21276SOL    HW265697   5.569   7.311   6.336  1.1180  1.0092  0.3588
21277SOL     OW65698   1.057   8.364   8.806  0.5475  0.2013 -1.0850
21277SOL    HW165699   1.044   8.435   8.743  1.5205  1.1391 -0.2539
21277SOL    HW265700   1.050   8.405   8.892  0.7322 -0.7820 -0.5787
21278SOL     OW65701   8.442   5.942   3.844  0.1706 -0.0018 -0.2320
21278SOL    HW165702   8.536   5.937   3.861  0.3057  0.5741 -0.7961
21278SOL    HW265703   8.434   6.001   3.769 -0.7715  1.7136  1.1291
21279SOL     OW65704   2.478   4.280   3.113  0.1966 -0.0372  0.2574
21279SOL    HW165705   2.552   4.341   3.119  0.1518  0.0092  0.3307
21279SOL    HW265706   2.512   4.198   3.149  0.6867 -0.4464 -1.0768
21280SOL     OW65707   1.957   1.349   6.081  0.0321  0.3301  0.3508
21280SOL    HW165708   1.889   1.298   6.125  1.2112 -0.7145  1.0488
21280SOL    HW265709   1.994   1.405   6.150  0.5303  0.1539  0.2360
21281SOL     OW65710   6.804   7.888   0.437 -0.2189  0.5234  0.3014
21281SOL    HW165711   6.872   7.853   0.380 -0.2117 -1.0122  1.2022
21281SOL    HW265712   6.840   7.970   0.472  0.4105  0.6491 -0.6257
21282SOL     OW65713   7.596   4.150   2.367  0.2202  0.1976 -0.1576
21282SOL    HW165714   7.533   4.168   2.437  1.0734 -0.8785  0.9244
21282SOL    HW265715   7.682   4.166   2.406  0.6726  1.9364 -1.7047
21283SOL     OW65716   3.639   5.181   8.974  0.1744  0.4564 -0.4614
21283SOL    HW165717   3.722   5.203   8.930  1.5740 -1.2957  1.1271
21283SOL    HW265718   3.609   5.102   8.931  1.1517 -0.8276  1.0803
21284SOL     OW65719   4.422   5.741   8.912  0.3636  0.1489 -0.4991
21284SOL    HW165720   4.411   5.696   8.828  0.0479 -0.1754 -0.2897
21284SOL    HW265721   4.373   5.687   8.974  0.0986  0.7091 -0.2145
21285SOL     OW65722   1.834   3.555   7.057 -0.3046  0.1397  0.0337
21285SOL    HW165723   1.797   3.483   7.108 -1.6336  1.4926  1.0906
21285SOL    HW265724   1.921   3.525   7.033 -0.7504 -1.7344  0.5786
21286SOL     OW65725   5.996   7.888   5.221 -0.5811  0.3024  0.1223
21286SOL    HW165726   6.000   7.980   5.247  2.4364  0.0283  1.0089
21286SOL    HW265727   5.945   7.846   5.290  0.3364  0.9117  1.2051
21287SOL     OW65728   8.483   6.747   8.113 -0.0071 -0.4013 -0.2486
21287SOL    HW165729   8.503   6.841   8.111 -1.5235 -0.0646 -0.4856
21287SOL    HW265730   8.567   6.706   8.137  1.0348  0.8934 -1.4656
21288SOL     OW65731   7.096   6.379   4.033 -0.1852  0.4672 -0.1037
21288SOL    HW165732   7.003   6.386   4.056 -0.2547 -0.4185 -0.0662
21288SOL    HW265733   7.096   6.341   3.945  0.1519 -0.6180  0.3549
21289SOL     OW65734   8.108   1.349   2.868 -0.0411  0.2474 -0.2022
21289SOL    HW165735   8.124   1.341   2.962  0.7935 -2.7770 -0.5019
21289SOL    HW265736   8.014   1.338   2.858 -0.4415  2.6052  0.3593
21290SOL     OW65737   1.661   6.019   6.984  0.1707  0.7040 -0.2205
21290SOL    HW165738   1.673   6.062   7.069  0.8596  1.1851 -0.5437
21290SOL    HW265739   1.646   5.927   7.006  0.3979  0.8098  0.4217
21291SOL     OW65740   3.401   1.375   3.974  0.0664  0.2021 -0.6130
21291SOL    HW165741   3.422   1.422   3.894 -0.4586 -0.4397 -1.1473
21291SOL    HW265742   3.306   1.386   3.984 -0.0112 -0.4362 -0.5609
21292SOL     OW65743   0.996   4.816   6.049  0.0227 -0.1920  0.1668
21292SOL    HW165744   0.978   4.723   6.062 -0.5664  0.1572  2.2507
21292SOL    HW265745   1.079   4.818   6.002 -2.0888 -1.7858 -4.2060
21293SOL     OW65746   3.674   2.368   1.521  0.0778  0.0337  0.7407
21293SOL    HW165747   3.715   2.454   1.535 -1.6033  1.0568 -0.2816
21293SOL    HW265748   3.581   2.383   1.537 -0.3974 -1.3446 -0.5178
21294SOL     OW65749   4.982   5.949   5.807  0.5698  0.4114 -0.3882
21294SOL    HW165750   4.941   5.878   5.856  1.6171 -0.8616 -1.2801
21294SOL    HW265751   5.076   5.932   5.813  0.7688  0.5842 -2.2593
21295SOL     OW65752   8.411   7.038   8.044 -0.0726  0.3071 -0.3189
21295SOL    HW165753   8.453   7.107   8.094  1.0074 -0.3214 -0.3425
21295SOL    HW265754   8.458   7.036   7.961 -1.1162  0.5815 -0.9435
21296SOL     OW65755   7.590   1.517   2.871  0.0901 -0.0747 -0.1200
21296SOL    HW165756   7.605   1.609   2.893 -0.0796 -0.5103  2.0327
21296SOL    HW265757   7.500   1.500   2.901  0.3850 -1.1203  0.1881
21297SOL     OW65758   0.161   5.052   0.782  0.3974 -0.4286  0.3070
21297SOL    HW165759   0.145   5.146   0.781  0.2856 -0.4508 -0.6317
21297SOL    HW265760   0.135   5.024   0.870 -0.9200  0.1875  0.1351
21298SOL     OW65761   1.344   1.775   7.344  0.0897  0.1267  0.4186
21298SOL    HW165762   1.405   1.833   7.390  0.2125  0.1014  0.2906
21298SOL    HW265763   1.401   1.708   7.305  0.0500  0.5094 -0.3065
21299SOL     OW65764   3.403   6.707   8.580  0.3449  0.7000 -0.3155
21299SOL    HW165765   3.373   6.714   8.670  0.4650  0.3617 -0.2479
21299SOL    HW265766   3.490   6.748   8.580  0.0459  1.3321 -0.4291
21300SOL     OW65767   8.991   4.054   6.974  0.1809  0.4296  0.0126
21300SOL    HW165768   9.006   4.092   7.060  1.9796 -2.1075  0.9217
21300SOL    HW265769   9.005   4.127   6.913 -0.6799  2.1570  1.7804
21301SOL     OW65770   4.641   4.590   5.199 -0.0029 -0.2251  0.2512
21301SOL    HW165771   4.557   4.546   5.212  0.3549 -0.2177  3.1065
21301SOL    HW265772   4.700   4.521   5.168 -0.2531 -1.0166  1.4886
21302SOL     OW65773   5.948   4.292   3.527 -0.4679  0.1932  0.9560
21302SOL    HW165774   6.009   4.362   3.550 -0.1663  0.1776  0.2091
21302SOL    HW265775   5.960   4.226   3.596  0.8432 -0.1095  0.4556
21303SOL     OW65776   6.829   8.490   0.736 -0.2921 -0.0178 -0.3259
21303SOL    HW165777   6.923   8.506   0.749 -0.3461 -1.1455  2.1839
21303SOL    HW265778   6.788   8.574   0.753  0.2959  1.1408 -3.8448
21304SOL     OW65779   3.130   0.725   6.813  0.5610 -0.1780  0.3198
21304SOL    HW165780   3.167   0.637   6.807  0.1453 -0.4524  1.4601
21304SOL    HW265781   3.102   0.733   6.904 -0.9675  0.5061 -0.1730
21305SOL     OW65782   1.410   5.897   3.401  0.1941  0.0431 -0.3154
21305SOL    HW165783   1.459   5.956   3.459 -0.1730  0.3028 -0.2660
21305SOL    HW265784   1.328   5.881   3.447 -0.5211  1.0284 -1.1855
21306SOL     OW65785   1.608   6.783   7.682 -0.1234  0.0240 -0.4449
21306SOL    HW165786   1.693   6.809   7.646  0.6533 -0.5411  0.8859
21306SOL    HW265787   1.612   6.688   7.686 -0.3484  0.0440  0.6743
21307SOL     OW65788   5.098   5.716   0.054  0.1272 -0.9695  0.2780
21307SOL    HW165789   5.074   5.768   0.131 -0.6409  3.1695 -2.4732
21307SOL    HW265790   5.015   5.694   0.013  0.5789 -0.4866 -0.9269
21308SOL     OW65791   5.961   1.818   7.209 -0.9183  0.6875  0.0946
21308SOL    HW165792   6.028   1.806   7.277 -0.0003  0.0634 -0.8769
21308SOL    HW265793   5.994   1.890   7.155 -1.9969  1.6686  0.6918
21309SOL     OW65794   5.253   5.735   6.299 -0.9223  0.2004 -0.4788
21309SOL    HW165795   5.171   5.688   6.285 -2.1929  2.2477 -0.3998
21309SOL    HW265796   5.273   5.722   6.392 -1.9033  0.7669 -0.1769
21310SOL     OW65797   4.728   4.127   0.810 -0.4954  0.3520 -0.2275
21310SOL    HW165798   4.733   4.164   0.721 -0.4098  0.3912 -0.2074
21310SOL    HW265799   4.653   4.069   0.808 -0.0316 -0.2473 -0.5478
21311SOL     OW65800   8.744   7.254   7.850 -0.0185  0.0160 -0.6306
21311SOL    HW165801   8.796   7.265   7.930 -0.6757 -2.4301  0.2293
21311SOL    HW265802   8.716   7.342   7.827  1.4614  0.9616  0.9568
21312SOL     OW65803   0.654   8.500   0.764 -0.2022 -0.2572  0.2181
21312SOL    HW165804   0.671   8.557   0.839 -1.2825 -0.6186  0.7571
21312SOL    HW265805   0.558   8.491   0.762 -0.1723 -0.4716 -1.0393
21313SOL     OW65806   8.143   7.294   3.607  0.0419  0.1163 -0.5459
21313SOL    HW165807   8.207   7.224   3.598  0.0991 -0.0598  0.9606
21313SOL    HW265808   8.180   7.352   3.674 -0.1242  1.4680 -1.5726
21314SOL     OW65809   7.412   6.357   1.010 -0.0420  0.0751 -0.3886
21314SOL    HW165810   7.425   6.426   1.074 -0.4752  0.5925 -0.8524
21314SOL    HW265811   7.347   6.299   1.049  0.0498  0.1311 -0.1564
21315SOL     OW65812   2.348   8.379   7.570  0.3063 -0.0492  0.3954
21315SOL    HW165813   2.355   8.466   7.609  0.5448 -0.3944  1.1392
21315SOL    HW265814   2.305   8.326   7.637  2.3798 -1.1184  0.9632
21316SOL     OW65815   6.905   6.966   7.113 -0.2053  0.0857 -0.3336
21316SOL    HW165816   6.953   6.955   7.031  1.0215  0.8216  0.2479
21316SOL    HW265817   6.890   6.877   7.144 -0.9642 -0.2087 -1.5038
21317SOL     OW65818   7.848   6.310   5.047 -0.5840  0.1736  0.4708
21317SOL    HW165819   7.753   6.316   5.058 -0.7470 -0.4097 -0.4683
21317SOL    HW265820   7.883   6.316   5.136 -1.3896  1.9118  0.7165
21318SOL     OW65821   4.002   2.012   7.592 -0.2184 -0.3235 -0.0899
21318SOL    HW165822   3.964   2.016   7.680  1.5787 -0.8423  0.7782
21318SOL    HW265823   3.960   1.937   7.551 -0.9272 -0.2071  0.4135
21319SOL     OW65824   4.166   5.515   2.214 -0.3018  0.3543  0.1623
21319SOL    HW165825   4.135   5.428   2.238  0.1045 -0.0044 -0.5787
21319SOL    HW265826   4.210   5.548   2.293 -1.1460  0.2184  0.7009
21320SOL     OW65827   4.910   6.877   5.778 -0.5757  0.1467  0.2056
21320SOL    HW165828   4.908   6.957   5.726 -2.0330  0.4330  0.6480
21320SOL    HW265829   4.917   6.908   5.869 -0.8876 -0.2299  0.3598
21321SOL     OW65830   4.109   2.991   4.850  0.1413 -0.4129 -0.0037
21321SOL    HW165831   4.125   2.974   4.757 -2.8524 -2.0382 -0.3506
21321SOL    HW265832   4.089   3.084   4.854 -1.7125 -0.7022 -1.3990
21322SOL     OW65833   8.650   0.269   4.371 -0.4593 -0.2923 -0.2007
21322SOL    HW165834   8.585   0.233   4.432 -0.5674  0.5358  0.1913
21322SOL    HW265835   8.656   0.361   4.395  0.3248 -0.2010 -0.7215
21323SOL     OW65836   0.777   4.637   7.554  0.3786 -0.1112  0.2369
21323SOL    HW165837   0.740   4.550   7.564 -1.9525  0.9232  1.1686
21323SOL    HW265838   0.817   4.636   7.467 -1.7464 -1.3998 -0.8020
21324SOL     OW65839   5.372   8.981   7.026  0.3345 -0.1867 -0.2477
21324SOL    HW165840   5.393   8.892   7.055  1.4243  0.0985 -0.1433
21324SOL    HW265841   5.290   9.002   7.072 -0.3273 -1.3931 -0.8305
21325SOL     OW65842   6.829   6.737   5.637 -0.2365 -0.7960  0.7455
21325SOL    HW165843   6.877   6.712   5.559 -0.1536 -1.8730  1.1269
21325SOL    HW265844   6.878   6.698   5.709  0.2262  0.9709  1.4404
21326SOL     OW65845   4.977   5.855   8.783  0.3308  0.2270  0.5123
21326SOL    HW165846   4.972   5.776   8.838  1.1032 -0.6606 -0.6522
21326SOL    HW265847   4.886   5.872   8.757  0.0067  0.4260  1.7030
21327SOL     OW65848   8.062   2.382   1.680  0.1667 -0.4335 -0.3860
21327SOL    HW165849   8.005   2.433   1.736 -0.7803 -1.8539  0.0049
21327SOL    HW265850   8.006   2.314   1.644  1.5235 -1.7145 -0.2117
21328SOL     OW65851   8.784   8.738   6.581 -0.0751 -0.2759  0.1751
21328SOL    HW165852   8.693   8.743   6.612  0.4743  1.9515  1.6314
21328SOL    HW265853   8.825   8.674   6.638 -0.3323 -0.0240  0.6504
21329SOL     OW65854   1.098   3.134   7.842  0.5066  0.0281 -0.2667
21329SOL    HW165855   1.180   3.130   7.793  1.0352  0.3324  0.5654
21329SOL    HW265856   1.090   3.226   7.868 -0.1510  0.0205 -0.4203
21330SOL     OW65857   7.062   4.559   6.746 -0.0625 -0.0683 -0.0433
21330SOL    HW165858   6.988   4.574   6.687 -0.3884  2.2378  0.8351
21330SOL    HW265859   7.023   4.520   6.824 -0.4157  1.2707  0.4717
21331SOL     OW65860   7.572   8.743   4.943 -0.5118  0.1361  0.3810
21331SOL    HW165861   7.566   8.650   4.920 -0.7386  0.7117 -2.1701
21331SOL    HW265862   7.651   8.773   4.898 -0.2493  1.1177  1.4647
21332SOL     OW65863   7.449   0.426   2.694  0.2200  0.1641  0.4715
21332SOL    HW165864   7.434   0.385   2.608  0.6945  2.7500 -0.9664
21332SOL    HW265865   7.366   0.469   2.714  0.6804  1.1431  0.3394
21333SOL     OW65866   7.896   0.283   0.873  0.7276  0.4427  0.4607
21333SOL    HW165867   7.828   0.269   0.939  1.9748 -0.3835  1.6305
21333SOL    HW265868   7.852   0.328   0.802 -1.1852 -0.6333  0.9082
21334SOL     OW65869   4.543   7.437   7.704  0.4768  0.1301  0.0178
21334SOL    HW165870   4.555   7.363   7.764  1.1820  0.5290  0.3867
21334SOL    HW265871   4.626   7.485   7.709  1.6443 -1.2574 -3.2617
21335SOL     OW65872   5.193   2.216   3.650 -0.4708 -0.1521  0.3959
21335SOL    HW165873   5.258   2.277   3.614 -1.0835  0.5976  0.5383
21335SOL    HW265874   5.198   2.140   3.592  0.2252  0.0796  0.1409
21336SOL     OW65875   4.095   0.412   4.324  0.4487  0.3251 -0.7699
21336SOL    HW165876   4.068   0.454   4.242 -1.0454 -1.5751 -1.3303
21336SOL    HW265877   4.013   0.377   4.360  1.4804 -1.2971  0.0866
21337SOL     OW65878   0.337   3.134   3.821 -0.2831  0.2623  0.2091
21337SOL    HW165879   0.353   3.042   3.801  0.3332  0.5098 -0.5016
21337SOL    HW265880   0.253   3.153   3.780  1.3283  0.9737 -3.1074
21338SOL     OW65881   5.706   8.633   5.237  0.7580  0.3018  0.3764
21338SOL    HW165882   5.757   8.714   5.241  1.0296  0.0962  1.5860
21338SOL    HW265883   5.757   8.570   5.288 -0.0394 -0.2831  0.4834
21339SOL     OW65884   6.646   2.307   3.374  0.4871 -0.0571  0.1103
21339SOL    HW165885   6.658   2.394   3.412  1.5046 -0.5458  0.9536
21339SOL    HW265886   6.569   2.272   3.419  0.7577 -0.0293  0.6000
21340SOL     OW65887   0.377   2.267   0.977 -0.3126 -0.0941  0.2405
21340SOL    HW165888   0.407   2.348   0.936 -0.1599 -0.4646 -0.3874
21340SOL    HW265889   0.421   2.197   0.929  0.5411 -0.5171  1.5926
21341SOL     OW65890   3.191   3.105   5.805  0.3971 -0.1722  0.0592
21341SOL    HW165891   3.112   3.157   5.794  0.7309  0.7043  1.4764
21341SOL    HW265892   3.210   3.069   5.718 -2.2559 -1.4725 -0.0800
21342SOL     OW65893   6.983   2.148   8.658  0.0154 -0.2663  0.1179
21342SOL    HW165894   6.949   2.080   8.600 -0.9990  0.4374 -0.1579
21342SOL    HW265895   6.936   2.227   8.631 -0.3855  0.1120  1.8032
21343SOL     OW65896   0.134   3.090   6.883  0.6392  0.3615  0.0881
21343SOL    HW165897   0.228   3.105   6.894  0.5177  0.5934  0.9618
21343SOL    HW265898   0.103   3.168   6.837  1.1158 -0.4437 -1.6647
21344SOL     OW65899   5.370   7.667   7.819 -0.1232 -0.6656  0.1494
21344SOL    HW165900   5.321   7.585   7.831  0.6219 -0.8469  2.3466
21344SOL    HW265901   5.308   7.736   7.841  0.3184 -0.8656  2.2410
21345SOL     OW65902   8.686   6.280   5.507  0.4594 -0.6971 -0.0947
21345SOL    HW165903   8.719   6.282   5.597  2.0677 -1.1757 -0.6460
21345SOL    HW265904   8.602   6.234   5.513  0.1069  0.0665  1.2711
21346SOL     OW65905   1.933   5.835   5.233  0.4957  0.6257  0.2845
21346SOL    HW165906   1.873   5.838   5.158  1.0871  2.1892 -0.1707
21346SOL    HW265907   1.880   5.866   5.307  0.0371 -0.4950  0.4488
21347SOL     OW65908   7.499   7.120   5.572 -0.2191  1.1250  0.0458
21347SOL    HW165909   7.526   7.105   5.481  1.0027  1.9114  0.2545
21347SOL    HW265910   7.411   7.158   5.565 -0.0862  1.2926 -0.8202
21348SOL     OW65911   2.088   3.015   3.914 -0.2610 -0.0471  0.3128
21348SOL    HW165912   2.001   2.978   3.900 -0.2659 -0.1835  0.6951
21348SOL    HW265913   2.126   3.020   3.826 -1.9430  3.2985 -0.3763
21349SOL     OW65914   4.160   6.880   6.789 -0.0057  0.5447 -0.3135
21349SOL    HW165915   4.210   6.947   6.742  2.0522 -0.2498  0.5954
21349SOL    HW265916   4.104   6.930   6.849  3.8205  1.6505  2.7495
21350SOL     OW65917   2.983   4.642   4.836  0.3286 -0.1057  0.7746
21350SOL    HW165918   2.971   4.580   4.908 -0.6664 -0.1986  0.5552
21350SOL    HW265919   3.076   4.663   4.837  0.3697 -0.2714  1.9463
21351SOL     OW65920   3.740   4.493   1.392 -0.0054 -0.1678  0.1794
21351SOL    HW165921   3.752   4.531   1.479  1.9350 -2.7303  1.1441
21351SOL    HW265922   3.648   4.465   1.391  0.1979 -1.0574  1.8663
21352SOL     OW65923   3.181   2.240   4.568  0.0754  0.1870  0.0630
21352SOL    HW165924   3.219   2.201   4.646  0.3852 -1.0394 -0.6572
21352SOL    HW265925   3.161   2.165   4.512 -1.2210  0.9559 -0.5553
21353SOL     OW65926   6.572   5.577   8.360  0.6452  0.0969 -0.1450
21353SOL    HW165927   6.491   5.576   8.411  0.3854  1.5744 -0.4714
21353SOL    HW265928   6.625   5.646   8.401  0.8624  0.5811 -1.2046
21354SOL     OW65929   4.945   3.129   1.067 -0.0896  0.1661  0.4126
21354SOL    HW165930   4.897   3.180   1.132  2.1231  3.0922 -0.0397
21354SOL    HW265931   4.887   3.127   0.991 -1.3671 -0.4693  1.3713
21355SOL     OW65932   8.848   2.515   8.116  0.0117 -0.4629 -0.8127
21355SOL    HW165933   8.819   2.599   8.151 -1.0700 -0.4496 -1.6792
21355SOL    HW265934   8.933   2.499   8.158  0.2915  1.1091 -0.7197
21356SOL     OW65935   8.111   5.836   7.528  0.3689 -0.3458  0.0279
21356SOL    HW165936   8.022   5.873   7.523  1.1882  1.5758 -1.9621
21356SOL    HW265937   8.099   5.751   7.570 -2.0056  1.0738  2.5526
21357SOL     OW65938   1.377   4.079   6.392  0.3337  0.6938  0.7799
21357SOL    HW165939   1.440   4.124   6.448  1.5560 -0.3436  0.2913
21357SOL    HW265940   1.311   4.046   6.452  1.3492  0.0352  1.5656
21358SOL     OW65941   0.708   8.968   1.505 -0.5382  0.0696  0.7137
21358SOL    HW165942   0.744   9.056   1.517  0.4585 -0.3558  0.8782
21358SOL    HW265943   0.624   8.983   1.462 -0.8515  1.1667  1.6620
21359SOL     OW65944   2.526   4.740   2.982  0.0513  0.1842 -0.1043
21359SOL    HW165945   2.567   4.702   2.905  1.7861  1.9898 -0.1598
21359SOL    HW265946   2.489   4.823   2.951 -0.8139  0.1069  0.6583
21360SOL     OW65947   8.516   2.411   3.301  0.2728  0.1361  0.2464
21360SOL    HW165948   8.436   2.430   3.351  0.0537 -2.4572  1.0215
21360SOL    HW265949   8.485   2.399   3.211 -0.1504 -0.3450  0.4477
21361SOL     OW65950   3.024   6.540   2.745  0.1221 -0.0099  0.4462
21361SOL    HW165951   3.034   6.446   2.754 -0.9859 -0.2674 -0.7792
21361SOL    HW265952   3.103   6.577   2.784  0.3766 -1.4173  1.3068
21362SOL     OW65953   5.532   8.427   4.651 -0.3155 -0.2429  0.0899
21362SOL    HW165954   5.605   8.412   4.711  0.1799  1.3706 -0.0587
21362SOL    HW265955   5.459   8.379   4.689  0.5819 -1.1432  0.7284
21363SOL     OW65956   4.317   3.630   4.259 -0.3733  0.4206  0.0700
21363SOL    HW165957   4.313   3.545   4.214 -4.3787 -0.2998  1.3781
21363SOL    HW265958   4.302   3.694   4.189  2.0640  0.1230 -0.8276
21364SOL     OW65959   1.996   3.387   0.508 -0.2326 -0.0761  0.3327
21364SOL    HW165960   2.002   3.464   0.565  2.4258 -0.6897  1.0164
21364SOL    HW265961   2.051   3.409   0.433  1.5767 -1.7036  1.1120
21365SOL     OW65962   6.994   1.287   7.477  0.0984 -0.6263 -0.2077
21365SOL    HW165963   7.049   1.364   7.458 -0.0084 -0.8622 -1.6034
21365SOL    HW265964   7.041   1.214   7.437 -1.7848 -0.6538 -2.6271
21366SOL     OW65965   7.503   3.102   7.697  0.3620 -0.3855  0.3966
21366SOL    HW165966   7.417   3.063   7.710  0.7436 -0.7890  1.9647
21366SOL    HW265967   7.559   3.057   7.760  1.1122  1.7827  1.3824
21367SOL     OW65968   8.559   3.399   0.017  0.0902  0.0435  0.2043
21367SOL    HW165969   8.594   3.436  -0.064 -0.8227 -1.6757 -1.0367
21367SOL    HW265970   8.464   3.393   0.002 -0.2088  0.4118  1.7279
21368SOL     OW65971   5.802   2.195   7.203 -0.1680 -0.8939 -0.6392
21368SOL    HW165972   5.743   2.120   7.210 -1.0785 -0.0265  2.0205
21368SOL    HW265973   5.786   2.246   7.282  0.4798  2.0947 -2.2752
21369SOL     OW65974   8.497   7.940   0.735  0.2566 -0.2528  0.1439
21369SOL    HW165975   8.533   7.943   0.824  0.2542  0.0761  0.1376
21369SOL    HW265976   8.460   7.853   0.727 -0.8871  0.1335  0.9321
21370SOL     OW65977   0.504   5.002   1.941  0.1530  0.1381  0.0318
21370SOL    HW165978   0.485   4.916   1.978  1.0680 -0.2403 -0.3376
21370SOL    HW265979   0.445   5.062   1.986  0.6675 -0.4288  1.5033
21371SOL     OW65980   5.938   5.362   0.052 -0.0311  0.2892 -0.1229
21371SOL    HW165981   5.928   5.267   0.053 -1.6729  0.4195 -1.0265
21371SOL    HW265982   6.029   5.377   0.029  0.1824 -1.0642 -0.2130
21372SOL     OW65983   6.246   1.500   4.928 -0.2313  0.3600 -0.4627
21372SOL    HW165984   6.168   1.507   4.983 -0.1411  1.2694 -0.4418
21372SOL    HW265985   6.230   1.423   4.874 -0.9281  0.2568 -0.1246
21373SOL     OW65986   5.368   8.762   3.254  0.0032 -0.1756  0.0323
21373SOL    HW165987   5.277   8.790   3.266 -0.5831 -1.1856 -1.6612
21373SOL    HW265988   5.361   8.672   3.223  1.5727 -0.1430 -0.5044
21374SOL     OW65989   7.452   5.127   4.437  0.4062  0.7828  0.4160
21374SOL    HW165990   7.532   5.168   4.403 -1.2354  1.8873 -2.5305
21374SOL    HW265991   7.432   5.058   4.374 -0.5848  0.0241  1.5159
21375SOL     OW65992   0.406   0.072   8.926  0.1108  0.0918 -0.7490
21375SOL    HW165993   0.338   0.127   8.965 -1.7897 -2.5162 -0.1253
21375SOL    HW265994   0.435   0.015   8.997  3.1031  1.1175 -0.9813
21376SOL     OW65995   7.942   5.845   8.163  0.0434 -0.1055 -0.1068
21376SOL    HW165996   7.882   5.903   8.118  0.1251  0.8830  1.0134
21376SOL    HW265997   7.918   5.757   8.133 -2.8064  0.1151  1.2309
21377SOL     OW65998   5.821   8.655   2.984  0.0085  0.6204  0.1355
21377SOL    HW165999   5.901   8.613   2.952  0.4864 -0.5038  2.6166
21377SOL    HW266000   5.844   8.748   2.994  0.2938  0.7128 -1.2032
21378SOL     OW66001   1.479   4.764   7.495 -0.3937 -0.3569  0.3987
21378SOL    HW166002   1.397   4.800   7.461  0.0876 -0.0800 -0.5132
21378SOL    HW266003   1.541   4.776   7.424  0.6025  0.0212  1.3113
21379SOL     OW66004   3.792   8.420   8.373  0.1511 -0.0928 -0.4070
21379SOL    HW166005   3.749   8.503   8.353 -1.4690 -1.1818 -1.8628
21379SOL    HW266006   3.720   8.362   8.398  0.9537 -1.5696 -1.3745
21380SOL     OW66007   6.907   6.701   1.690  0.2309 -0.2038  0.6778
21380SOL    HW166008   6.994   6.676   1.661  0.2548  0.6279 -0.0172
21380SOL    HW266009   6.918   6.789   1.726 -0.4494  0.2347 -0.1532
21381SOL     OW66010   7.049   0.856   4.221 -0.0779  0.0302 -0.4496
21381SOL    HW166011   6.984   0.878   4.154  0.1476  0.8845 -0.4022
21381SOL    HW266012   7.034   0.763   4.240  0.1714 -0.3713 -2.0380
21382SOL     OW66013   2.711   1.773   3.844  0.5750  0.1147  0.0773
21382SOL    HW166014   2.776   1.707   3.868 -0.6553 -0.8339  0.9710
21382SOL    HW266015   2.663   1.734   3.770 -3.3261 -2.4218  3.4454
21383SOL     OW66016   2.661   1.886   8.063  0.3295 -0.4811 -0.3440
21383SOL    HW166017   2.649   1.980   8.049 -0.7483 -0.6182 -0.3928
21383SOL    HW266018   2.747   1.868   8.027  1.3455  0.8073  1.2526
21384SOL     OW66019   2.658   7.276   8.951 -0.4109  0.1452  0.2110
21384SOL    HW166020   2.612   7.197   8.924 -1.9732  0.7205  1.0865
21384SOL    HW266021   2.597   7.348   8.934  0.6201  1.0717  0.2835
21385SOL     OW66022   2.173   4.264   8.061 -0.0461  0.0922  0.3348
21385SOL    HW166023   2.125   4.228   8.136 -0.3360 -0.4213 -0.0845
21385SOL    HW266024   2.138   4.353   8.051 -1.9697 -0.7245 -0.8055
21386SOL     OW66025   2.686   3.265   0.135  0.5240 -0.0226  0.2246
21386SOL    HW166026   2.665   3.352   0.099 -0.2798  0.4699  1.7868
21386SOL    HW266027   2.766   3.280   0.185 -0.7470  0.3751  2.2642
21387SOL     OW66028   3.003   1.055   2.847  0.4184 -0.5855 -0.6770
21387SOL    HW166029   2.947   1.093   2.780  1.3314  0.1411 -1.0515
21387SOL    HW266030   3.023   0.967   2.815 -1.7549 -1.4884  0.2204
21388SOL     OW66031   0.171   1.618   5.972  0.2400  0.2932 -0.2493
21388SOL    HW166032   0.083   1.617   5.934 -0.7285 -1.0492  1.8563
21388SOL    HW266033   0.167   1.683   6.042  1.6948  1.9997 -1.6610
21389SOL     OW66034   3.233   4.833   1.085  0.3360  0.1160 -0.1615
21389SOL    HW166035   3.224   4.907   1.026 -0.9838 -0.9159 -1.3002
21389SOL    HW266036   3.147   4.825   1.128  0.1344 -1.3384 -0.7871
21390SOL     OW66037   3.510   4.954   8.871 -0.2177  0.1079  0.5825
21390SOL    HW166038   3.456   4.954   8.949 -0.9990 -0.9991  0.0685
21390SOL    HW266039   3.534   4.863   8.858 -2.1043 -0.1628 -1.7792
21391SOL     OW66040   0.083   0.139   7.141  0.4168  0.4533 -0.4236
21391SOL    HW166041   0.153   0.103   7.196 -0.0474 -1.5696 -1.0902
21391SOL    HW266042   0.009   0.151   7.200  0.4424 -0.1294 -0.2692
21392SOL     OW66043   2.887   3.661   4.916 -0.3157 -0.4387 -0.6345
21392SOL    HW166044   2.919   3.576   4.944 -0.4018 -0.6156 -1.0714
21392SOL    HW266045   2.798   3.666   4.949 -0.0621 -0.2095  0.0302
21393SOL     OW66046   1.041   0.236   5.852 -0.1092  0.0271 -0.2025
21393SOL    HW166047   0.993   0.190   5.783  0.5564 -1.2937  0.1877
21393SOL    HW266048   1.103   0.172   5.885  0.9305  1.2564  0.3033
21394SOL     OW66049   3.346   1.875   3.221  0.0374  0.6137 -0.2466
21394SOL    HW166050   3.380   1.861   3.309  0.8137  2.2495 -0.2589
21394SOL    HW266051   3.352   1.789   3.179 -1.0018 -0.3515  1.4846
21395SOL     OW66052   1.822   0.851   5.243 -0.0426 -0.2192 -0.3935
21395SOL    HW166053   1.760   0.907   5.289  0.1322 -0.3431 -0.0043
21395SOL    HW266054   1.906   0.896   5.251 -0.1429  0.1456 -1.2540
21396SOL     OW66055   2.470   3.561   1.927  0.2129  0.6985  0.3806
21396SOL    HW166056   2.543   3.506   1.901  0.6686  1.1254  0.7324
21396SOL    HW266057   2.500   3.650   1.910 -1.1831  0.8168 -1.9431
21397SOL     OW66058   3.303   8.110   5.322  0.0011  0.0749  0.0198
21397SOL    HW166059   3.272   8.178   5.381 -0.7492 -0.5830  0.3981
21397SOL    HW266060   3.369   8.153   5.268  1.0005  0.5987  1.5956
21398SOL     OW66061   0.417   6.226   1.345 -0.6224 -0.8042 -0.1700
21398SOL    HW166062   0.367   6.302   1.317 -0.4125 -0.5480  0.1358
21398SOL    HW266063   0.454   6.190   1.264  0.9477  0.6108 -0.1502
21399SOL     OW66064   7.444   0.840   0.084  0.2423  0.2000 -0.4182
21399SOL    HW166065   7.514   0.800   0.134 -0.1991  1.6063  1.4332
21399SOL    HW266066   7.431   0.926   0.124 -1.3157  0.7136 -1.8642
21400SOL     OW66067   1.494   1.622   4.653  0.7699 -0.1317  0.7214
21400SOL    HW166068   1.451   1.612   4.738  0.1282 -1.4267  0.2730
21400SOL    HW266069   1.475   1.712   4.627 -1.1672 -0.4545  0.8582
21401SOL     OW66070   1.110   4.354   3.565 -0.0583  0.0319  0.1600
21401SOL    HW166071   1.041   4.418   3.585 -0.9268 -0.9918  0.5628
21401SOL    HW266072   1.192   4.401   3.579 -0.6780  0.9066  0.9580
21402SOL     OW66073   1.619   7.219   5.201 -0.4870  1.1217  0.0575
21402SOL    HW166074   1.573   7.156   5.256 -0.8433  1.5524  0.2594
21402SOL    HW266075   1.687   7.168   5.157 -0.5625  0.6649  0.4671
21403SOL     OW66076   4.856   7.234   4.468  0.5415  0.1018 -0.2548
21403SOL    HW166077   4.851   7.327   4.493  2.2134  0.6322 -1.6997
21403SOL    HW266078   4.859   7.187   4.552 -0.2757  1.3447  0.5002
21404SOL     OW66079   6.299   6.265   2.715  0.3750  0.0456  0.1151
21404SOL    HW166080   6.375   6.208   2.715 -0.0011 -0.4861  0.9728
21404SOL    HW266081   6.303   6.310   2.799  0.1828  0.6108 -0.1778
21405SOL     OW66082   1.557   5.304   0.285  0.3003  0.7258  0.2816
21405SOL    HW166083   1.463   5.286   0.279  0.6695 -1.6412  0.8281
21405SOL    HW266084   1.565   5.362   0.361 -0.7867  1.7195 -0.3337
21406SOL     OW66085   8.684   1.590   3.667  0.2608  0.2976  0.1000
21406SOL    HW166086   8.656   1.514   3.616  1.1632  0.5087 -0.7526
21406SOL    HW266087   8.712   1.654   3.601  1.0142  0.7578  0.8432
21407SOL     OW66088   0.735   7.974   6.407  0.0619  0.6572  0.3390
21407SOL    HW166089   0.730   7.880   6.391  0.1040  0.5458  0.9530
21407SOL    HW266090   0.803   7.983   6.473  0.6304  1.1998 -0.3106
21408SOL     OW66091   7.052   4.817   1.773  0.2288 -0.4734  0.0693
21408SOL    HW166092   6.975   4.765   1.799  1.0874 -1.4602  0.7250
21408SOL    HW266093   7.062   4.882   1.843  0.1760 -0.5401  0.1387
21409SOL     OW66094   3.756   5.073   8.657  1.1979  0.0074 -0.5429
21409SOL    HW166095   3.729   4.987   8.625  1.4005 -0.3746  0.2885
21409SOL    HW266096   3.766   5.126   8.578 -0.7074 -0.2031 -0.9854
21410SOL     OW66097   2.654   3.452   4.430 -0.1006 -0.6332 -0.4678
21410SOL    HW166098   2.573   3.472   4.478  0.4898  0.9927 -0.0827
21410SOL    HW266099   2.724   3.468   4.493  0.5833 -0.9953 -1.1141
21411SOL     OW66100   7.535   1.019   6.220 -0.5473 -0.1870  0.0018
21411SOL    HW166101   7.541   1.064   6.305 -1.7111  0.3355 -0.1706
21411SOL    HW266102   7.441   1.012   6.204 -0.3398 -0.5347 -1.1237
21412SOL     OW66103   2.267   6.183   8.540  0.3524 -0.0167  0.6327
21412SOL    HW166104   2.286   6.104   8.590  0.0861 -1.3282 -1.2550
21412SOL    HW266105   2.352   6.220   8.518  0.4831 -0.0669  1.0498
21413SOL     OW66106   2.243   3.629   1.807  0.1567  0.3747 -0.1734
21413SOL    HW166107   2.177   3.658   1.870  1.0350  1.4415  0.3046
21413SOL    HW266108   2.325   3.633   1.856  0.5642 -1.1622 -0.6779
21414SOL     OW66109   2.181   1.185   1.915 -0.7821 -0.6059  0.3854
21414SOL    HW166110   2.088   1.166   1.906 -1.2371  0.0109  3.0934
21414SOL    HW266111   2.189   1.278   1.893 -0.5515 -0.9616 -1.1228
21415SOL     OW66112   6.552   2.503   2.577  0.1223 -0.0575 -0.4093
21415SOL    HW166113   6.485   2.452   2.532 -1.6934  0.4777  1.5461
21415SOL    HW266114   6.503   2.563   2.634  2.2291  1.7287 -0.3233
21416SOL     OW66115   0.071   1.875   5.875  0.2244  0.4711 -0.1620
21416SOL    HW166116  -0.013   1.900   5.913 -0.3901  0.8151 -1.6953
21416SOL    HW266117   0.135   1.925   5.926 -0.7177  2.3795 -0.7463
21417SOL     OW66118   0.026   2.888   5.393 -0.1368 -0.0444 -0.3587
21417SOL    HW166119   0.043   2.937   5.474  0.0075  0.1753 -0.5210
21417SOL    HW266120  -0.055   2.840   5.411  0.9686 -1.6350  0.6568
21418SOL     OW66121   7.843   3.785   3.229  0.6191  0.6879 -0.1958
21418SOL    HW166122   7.822   3.863   3.279 -2.5865  0.0967 -0.3910
21418SOL    HW266123   7.815   3.712   3.285  1.5814 -0.2181 -0.8614
21419SOL     OW66124   0.668   5.705   6.496  0.5709 -0.8826  0.8541
21419SOL    HW166125   0.636   5.639   6.434  1.0260 -0.3042 -0.0214
21419SOL    HW266126   0.685   5.656   6.576  0.1933 -1.6950  0.4536
21420SOL     OW66127   8.099   6.990   7.163  0.1261  0.4644  0.6038
21420SOL    HW166128   8.148   7.072   7.156 -1.0484  1.1007 -0.7124
21420SOL    HW266129   8.113   6.947   7.079 -3.0172  1.5825 -0.6659
21421SOL     OW66130   8.438   4.905   0.414 -0.0081  0.1846 -0.3246
21421SOL    HW166131   8.353   4.943   0.434 -0.2422 -0.3225 -0.3420
21421SOL    HW266132   8.475   4.883   0.500  0.1168  0.4328 -0.3156
21422SOL     OW66133   4.125   6.213   0.518  0.0528  0.5743  0.1753
21422SOL    HW166134   4.163   6.145   0.462 -0.5731 -0.6771  1.2156
21422SOL    HW266135   4.193   6.280   0.523  0.9608 -0.2725 -0.3487
21423SOL     OW66136   1.483   6.129   6.809 -0.5279 -0.5058 -0.3204
21423SOL    HW166137   1.521   6.078   6.881  0.9121 -0.0313 -0.7100
21423SOL    HW266138   1.442   6.063   6.753  2.4611 -1.5428 -1.5366
21424SOL     OW66139   1.140   6.100   2.075 -0.8630 -0.6319 -0.0287
21424SOL    HW166140   1.132   6.010   2.043  0.8316 -0.4340 -1.1296
21424SOL    HW266141   1.120   6.094   2.168  0.2672 -2.3558  0.1415
21425SOL     OW66142   7.993   7.618   5.136 -0.2747 -0.2068 -0.0702
21425SOL    HW166143   7.920   7.594   5.193 -0.9506  0.8221 -0.4586
21425SOL    HW266144   8.066   7.634   5.196 -0.9677  0.8321  0.5334
21426SOL     OW66145   0.257   1.535   5.249 -0.5211 -0.0013 -0.5336
21426SOL    HW166146   0.329   1.472   5.250  1.4797  2.1217  1.0290
21426SOL    HW266147   0.214   1.525   5.334 -0.5156  0.3426 -0.4851
21427SOL     OW66148   5.599   4.216   7.378 -0.2579 -0.3540  0.1482
21427SOL    HW166149   5.680   4.169   7.396 -1.1895 -1.8205  0.6540
21427SOL    HW266150   5.539   4.190   7.448 -1.0874  0.9389 -0.0339
21428SOL     OW66151   8.951   5.783   8.189  0.5147  0.1971 -0.3855
21428SOL    HW166152   8.983   5.849   8.251  1.8480 -0.6089 -0.1722
21428SOL    HW266153   8.896   5.725   8.241  1.2615 -0.2149 -0.0508
21429SOL     OW66154   8.047   7.902   7.791  0.0901 -0.4100 -0.1881
21429SOL    HW166155   8.138   7.926   7.807 -0.2204  0.6024  0.1404
21429SOL    HW266156   8.022   7.953   7.714 -0.5149  0.1625  0.3757
21430SOL     OW66157   4.089   7.268   4.327  0.3493  0.5750 -0.1462
21430SOL    HW166158   4.144   7.198   4.292  1.7272  1.9787 -0.9252
21430SOL    HW266159   4.097   7.339   4.263 -2.0362  1.0118 -0.0410
21431SOL     OW66160   8.372   7.066   7.009 -0.0719  0.3680  0.6084
21431SOL    HW166161   8.410   7.023   7.086  0.2443  0.5472  0.5556
21431SOL    HW266162   8.447   7.102   6.962 -0.3346  1.0545  0.6986
21432SOL     OW66163   7.546   8.514   8.014  0.1200 -0.4381  0.1533
21432SOL    HW166164   7.556   8.425   7.980 -0.9234 -0.2584 -0.6438
21432SOL    HW266165   7.571   8.507   8.107 -1.1012 -1.8193  0.4128
21433SOL     OW66166   4.443   0.784   1.785 -0.0218 -0.1050  0.2165
21433SOL    HW166167   4.530   0.777   1.746 -0.3678  0.8801 -0.7900
21433SOL    HW266168   4.428   0.878   1.794 -0.3981 -0.2940  1.7473
21434SOL     OW66169   5.491   8.015   4.644  0.1877  0.3849 -0.1298
21434SOL    HW166170   5.432   7.941   4.661  1.1171 -0.6882 -1.2985
21434SOL    HW266171   5.508   8.053   4.730 -0.1877 -0.8907  0.5298
21435SOL     OW66172   4.442   3.224   3.746 -0.8471  0.3261  0.0159
21435SOL    HW166173   4.501   3.298   3.759  1.3679 -1.3511  0.1436
21435SOL    HW266174   4.364   3.246   3.797  0.6933  1.5465  2.0169
21436SOL     OW66175   3.085   5.143   5.273  0.1619 -0.0479  0.5253
21436SOL    HW166176   3.125   5.071   5.321 -0.7768  0.1536  1.6542
21436SOL    HW266177   3.112   5.222   5.320 -0.7043  0.1546  0.7108
21437SOL     OW66178   2.074   4.506   8.032  0.2931 -0.1688  0.0373
21437SOL    HW166179   2.019   4.489   8.108  0.8181 -0.6638  0.3090
21437SOL    HW266180   2.131   4.577   8.060 -0.2284  0.3778 -0.2615
21438SOL     OW66181   4.857   2.160   1.867  0.0977  0.2386 -0.6138
21438SOL    HW166182   4.931   2.219   1.884  1.1437 -0.3614 -2.7269
21438SOL    HW266183   4.825   2.186   1.781 -2.0286  0.2799  0.1316
21439SOL     OW66184   2.539   3.808   1.954 -0.4954  0.0907  0.2076
21439SOL    HW166185   2.536   3.797   2.049 -2.3132  1.1742  0.3193
21439SOL    HW266186   2.598   3.881   1.939  0.4975 -0.6484  0.4159
21440SOL     OW66187   6.431   3.149   8.503  0.5174 -0.3586 -0.1162
21440SOL    HW166188   6.349   3.107   8.476  0.8925 -1.0422 -0.1860
21440SOL    HW266189   6.403   3.216   8.566 -0.2019  0.1491 -0.9372
21441SOL     OW66190   8.191   0.458   6.455  0.0713  0.1164  0.4401
21441SOL    HW166191   8.237   0.427   6.533  0.4958  0.4696  0.3373
21441SOL    HW266192   8.118   0.397   6.444  1.6859 -1.7645 -0.5642
21442SOL     OW66193   3.987   2.865   0.349  0.5796  0.4534 -0.2486
21442SOL    HW166194   4.044   2.922   0.297  2.4977 -0.5793  0.6117
21442SOL    HW266195   4.023   2.777   0.337 -1.0476 -0.3055  0.1009
21443SOL     OW66196   4.090   5.820   8.877 -0.2146  0.0911  0.3077
21443SOL    HW166197   4.165   5.859   8.832  1.6828  0.0011  3.0831
21443SOL    HW266198   4.098   5.726   8.860 -0.3711  0.1854 -0.3022
21444SOL     OW66199   1.779   8.256   8.201  0.2602  0.3958  0.3627
21444SOL    HW166200   1.766   8.319   8.272 -0.1748  0.7609 -0.0294
21444SOL    HW266201   1.816   8.309   8.130  0.7103  0.0308  0.3250
21445SOL     OW66202   3.684   3.078   3.223 -0.2232 -0.2889  0.0134
21445SOL    HW166203   3.715   3.125   3.146  0.7958 -2.4806 -0.9680
21445SOL    HW266204   3.696   3.141   3.295  0.5337  1.1485 -1.3048
21446SOL     OW66205   4.383   6.723   6.918  0.2905 -0.3502  0.1658
21446SOL    HW166206   4.413   6.696   7.005  0.3589 -0.0862  0.2254
21446SOL    HW266207   4.288   6.716   6.923  0.3541 -1.8341 -0.2360
21447SOL     OW66208   4.772   8.325   5.709  0.0313  0.8599 -0.0346
21447SOL    HW166209   4.799   8.253   5.653 -0.7483 -0.0834  0.7591
21447SOL    HW266210   4.711   8.375   5.655  1.2600  1.4753 -0.9020
21448SOL     OW66211   8.042   8.693   0.965 -0.5921 -0.1418 -0.1178
21448SOL    HW166212   8.003   8.619   0.918 -0.2165 -0.6752  0.3829
21448SOL    HW266213   8.043   8.664   1.057 -0.4019  0.4736  0.0774
21449SOL     OW66214   3.739   6.151   8.668  0.2903 -0.5650 -0.5201
21449SOL    HW166215   3.784   6.066   8.662  0.1362 -0.5251 -3.6753
21449SOL    HW266216   3.647   6.128   8.680  0.5473 -0.6887  1.8922
21450SOL     OW66217   2.182   3.212   6.677 -0.5049  0.2120  0.4022
21450SOL    HW166218   2.228   3.160   6.742 -1.2886 -1.5514 -0.3540
21450SOL    HW266219   2.245   3.223   6.606 -0.1758  0.7255  0.7724
21451SOL     OW66220   8.634   5.056   2.407  0.1633  0.5571 -0.2664
21451SOL    HW166221   8.705   5.079   2.346 -1.3971  1.9341 -1.6645
21451SOL    HW266222   8.611   4.965   2.384  2.8704 -0.7729  1.7333
21452SOL     OW66223   4.115   4.694   5.482  0.3344  0.4431  0.1319
21452SOL    HW166224   4.186   4.637   5.512  0.1652  0.3478  0.3539
21452SOL    HW266225   4.070   4.643   5.414  0.0223  0.2031  0.5125
21453SOL     OW66226   4.271   4.377   5.119  0.1434  0.2802 -0.5015
21453SOL    HW166227   4.260   4.433   5.196 -3.1721 -1.3471  0.4044
21453SOL    HW266228   4.253   4.435   5.045 -0.8355  0.9671  0.2449
21454SOL     OW66229   7.203   8.039   6.517  0.0709  0.1138  0.4608
21454SOL    HW166230   7.223   8.105   6.583  1.1288  1.7014 -1.3170
21454SOL    HW266231   7.108   8.042   6.508 -0.1295 -0.3898  2.1033
21455SOL     OW66232   1.624   7.119   8.216  0.2070 -0.1557 -0.5262
21455SOL    HW166233   1.647   7.197   8.166  1.2841 -1.1127 -1.6135
21455SOL    HW266234   1.688   7.115   8.287  0.1339 -0.0337 -0.4539
21456SOL     OW66235   3.312   0.543   5.008 -0.3246 -0.0376 -0.2130
21456SOL    HW166236   3.369   0.617   5.031 -0.3336 -0.0194 -0.2495
21456SOL    HW266237   3.223   0.577   5.017 -0.3363  0.6931 -2.6159
21457SOL     OW66238   1.753   4.803   4.213  0.3159 -0.1160 -0.0556
21457SOL    HW166239   1.715   4.881   4.253 -0.7667 -0.6576 -0.0000
21457SOL    HW266240   1.824   4.836   4.158  0.5268  0.8139  0.7415
21458SOL     OW66241   3.179   3.156   8.173  0.1516 -0.2121 -0.1268
21458SOL    HW166242   3.255   3.199   8.211  0.3758 -1.5095  0.9705
21458SOL    HW266243   3.215   3.081   8.125 -0.4838 -2.0381  2.0716
21459SOL     OW66244   8.042   7.852   6.812  0.2302  0.3021  0.0023
21459SOL    HW166245   8.111   7.860   6.877  1.6431  0.3532 -1.4435
21459SOL    HW266246   8.034   7.758   6.795 -0.0368  0.2994  0.1243
21460SOL     OW66247   6.490   4.577   3.783 -0.3540  0.0811 -0.3335
21460SOL    HW166248   6.468   4.485   3.771  1.2554 -0.3086 -0.5434
21460SOL    HW266249   6.520   4.607   3.697 -2.7660  1.4097 -0.8053
21461SOL     OW66250   5.621   3.551   3.343  0.3784  0.3764 -0.4032
21461SOL    HW166251   5.673   3.628   3.318  0.1287  0.5664 -0.3459
21461SOL    HW266252   5.530   3.580   3.335  0.2766 -0.0717 -0.8687
21462SOL     OW66253   8.604   7.876   8.082 -0.2090 -0.4642 -0.2257
21462SOL    HW166254   8.528   7.819   8.073 -0.2322 -0.7302  1.4334
21462SOL    HW266255   8.679   7.818   8.068 -0.2671 -0.4676 -0.5444
21463SOL     OW66256   1.814   4.051   2.350  0.5670  0.4186  0.6040
21463SOL    HW166257   1.803   3.961   2.318  1.7107  0.2902  0.5363
21463SOL    HW266258   1.736   4.067   2.403  0.1385 -0.4576  0.2607
21464SOL     OW66259   1.929   3.402   2.424 -0.0981  0.9451  0.5912
21464SOL    HW166260   2.010   3.382   2.471 -0.0950  1.1857  0.6879
21464SOL    HW266261   1.866   3.339   2.458  0.4273 -0.2714 -0.5805
21465SOL     OW66262   6.629   7.496   8.144  0.0040 -0.2904 -0.2756
21465SOL    HW166263   6.556   7.538   8.099  1.5551  2.8154 -0.1929
21465SOL    HW266264   6.615   7.514   8.236  0.0179 -1.2137 -0.0801
21466SOL     OW66265   0.891   2.973   8.241  0.0593  0.3192 -0.2170
21466SOL    HW166266   0.974   2.934   8.212 -0.6446 -1.8559  0.5112
21466SOL    HW266267   0.916   3.036   8.308  1.0635 -1.9454  1.6650
21467SOL     OW66268   6.384   0.317   0.301  0.3844 -0.1437 -0.3045
21467SOL    HW166269   6.441   0.313   0.378  0.5847 -2.0405 -0.4896
21467SOL    HW266270   6.357   0.226   0.286 -1.7228  0.5114 -0.9610
21468SOL     OW66271   2.831   6.977   1.620 -0.2940 -0.0258  0.0468
21468SOL    HW166272   2.769   6.983   1.547  0.0211  0.9548 -0.1507
21468SOL    HW266273   2.806   6.897   1.666 -1.2227 -0.0476 -0.4736
21469SOL     OW66274   4.214   7.556   8.496  0.3274 -0.0589  0.8694
21469SOL    HW166275   4.295   7.582   8.541 -0.2855  2.9730  0.4076
21469SOL    HW266276   4.169   7.638   8.477 -1.7296 -1.5040 -1.0716
21470SOL     OW66277   7.854   1.542   3.599  0.8079 -0.2819  0.5242
21470SOL    HW166278   7.853   1.488   3.519  2.1357  1.5654 -0.8113
21470SOL    HW266279   7.797   1.616   3.578  1.4928  0.4284  1.1480
21471SOL     OW66280   1.587   4.862   1.953  0.1358  0.0504  0.1782
21471SOL    HW166281   1.636   4.943   1.943 -0.3922  0.2786 -0.6476
21471SOL    HW266282   1.642   4.808   2.009 -0.0837  1.4562  1.8382
21472SOL     OW66283   8.447   8.262   0.486  0.0124  0.0267  0.2726
21472SOL    HW166284   8.447   8.234   0.395  0.3296 -2.5535  0.9853
21472SOL    HW266285   8.537   8.251   0.515  0.1524  1.8576  0.6524
21473SOL     OW66286   0.108   0.200   2.010  0.0033 -0.3075  0.2123
21473SOL    HW166287   0.152   0.124   2.049 -1.4738 -1.0722  0.4628
21473SOL    HW266288   0.087   0.256   2.084  2.2739  1.0499 -0.0922
21474SOL     OW66289   2.943   7.309   8.546 -0.4602  0.0650 -0.4503
21474SOL    HW166290   2.947   7.388   8.600 -1.3044 -0.8652  1.0103
21474SOL    HW266291   3.012   7.253   8.581 -1.0119 -0.5475 -0.3397
21475SOL     OW66292   4.133   3.828   8.791  0.0082 -0.0023 -0.1113
21475SOL    HW166293   4.041   3.856   8.791 -0.6490 -1.9923 -0.6087
21475SOL    HW266294   4.131   3.741   8.829  1.0469 -1.8608 -3.8314
21476SOL     OW66295   3.007   5.372   6.803 -0.2217 -0.5115 -0.5000
21476SOL    HW166296   2.983   5.443   6.862  0.1543 -1.7051  1.1669
21476SOL    HW266297   3.075   5.323   6.849  1.0182 -0.7929 -2.4739
21477SOL     OW66298   3.720   1.634   3.500 -0.2645 -0.8459  0.0562
21477SOL    HW166299   3.810   1.605   3.512  0.5924  1.4485 -0.2187
21477SOL    HW266300   3.713   1.653   3.406 -0.9687 -0.7964  0.1114
21478SOL     OW66301   8.651   4.126   6.191  0.2199  0.2100 -0.4327
21478SOL    HW166302   8.566   4.141   6.148  0.5728  1.0932 -0.8558
21478SOL    HW266303   8.668   4.033   6.180 -1.7664 -0.4937  1.6907
21479SOL     OW66304   5.022   7.956   3.446 -0.5578  0.5833 -0.3050
21479SOL    HW166305   5.054   7.915   3.366 -0.2640  1.7856 -0.8259
21479SOL    HW266306   5.019   7.885   3.510 -0.2169 -0.2703 -1.2129
21480SOL     OW66307   8.150   8.526   0.654  0.1128  0.1807 -0.3701
21480SOL    HW166308   8.176   8.605   0.606 -0.5837  0.5997 -0.0791
21480SOL    HW266309   8.196   8.455   0.610 -0.6782  0.5214 -1.8281
21481SOL     OW66310   5.473   0.863   6.141  0.0504  0.4928 -0.1553
21481SOL    HW166311   5.554   0.910   6.163 -0.5013  0.9832  0.9164
21481SOL    HW266312   5.503   0.779   6.105  1.0434  0.6802  0.1962
21482SOL     OW66313   5.775   2.846   6.771  0.1731 -0.3378 -0.0812
21482SOL    HW166314   5.813   2.777   6.824  0.1023 -0.4949 -0.2334
21482SOL    HW266315   5.681   2.842   6.789  0.4703  2.2147  2.8968
21483SOL     OW66316   7.723   5.338   0.792 -0.1520  0.5201  0.0868
21483SOL    HW166317   7.657   5.282   0.835 -1.3339  2.2696  0.6849
21483SOL    HW266318   7.803   5.286   0.795 -1.1533 -1.1012  0.6815
21484SOL     OW66319   6.291   6.906   1.274  0.1966  0.3193 -0.3313
21484SOL    HW166320   6.258   6.951   1.352 -3.0781 -0.2537 -1.2422
21484SOL    HW266321   6.265   6.961   1.201  0.7360 -0.5141 -1.1778
21485SOL     OW66322   6.563   3.528   5.359 -0.1482 -0.5052 -0.1459
21485SOL    HW166323   6.595   3.439   5.350 -0.0100 -0.5195  0.4279
21485SOL    HW266324   6.486   3.521   5.417 -0.0746 -0.2450 -0.0108
21486SOL     OW66325   3.331   7.639   7.784 -0.5386 -0.6988  0.4083
21486SOL    HW166326   3.426   7.636   7.779 -0.1526  1.3576  3.5607
21486SOL    HW266327   3.305   7.710   7.726 -0.0875 -0.8103  0.0699
21487SOL     OW66328   3.934   8.390   7.571  0.2467  0.2509  0.0014
21487SOL    HW166329   3.870   8.414   7.638  0.0653 -0.1087 -0.0451
21487SOL    HW266330   4.011   8.363   7.621  0.2552  0.3829  0.0601
21488SOL     OW66331   3.671   5.057   2.810 -0.4189  0.0401  0.5892
21488SOL    HW166332   3.654   4.978   2.860  0.4778 -0.6181 -0.1159
21488SOL    HW266333   3.722   5.028   2.734  0.3086  1.3470  0.5385
21489SOL     OW66334   6.284   3.976   0.905  0.0242 -0.0505  0.0271
21489SOL    HW166335   6.230   4.055   0.905 -0.5941 -0.4256  1.7526
21489SOL    HW266336   6.332   3.980   0.988 -0.6073 -1.8550  0.5078
21490SOL     OW66337   3.187   3.128   3.379 -0.2998 -0.3563  0.1861
21490SOL    HW166338   3.146   3.107   3.462 -0.7355  1.3141  0.4392
21490SOL    HW266339   3.120   3.176   3.330 -0.2206 -1.7268 -1.3413
21491SOL     OW66340   2.072   3.574   4.234  0.1445  0.2976 -0.5418
21491SOL    HW166341   2.154   3.604   4.194  0.9771 -0.5346  0.4531
21491SOL    HW266342   2.079   3.479   4.233 -1.1041  0.2029 -0.9979
21492SOL     OW66343   8.194   3.825   1.043 -0.2255 -0.1536  0.2059
21492SOL    HW166344   8.214   3.791   1.130 -0.3382  1.0950  0.7495
21492SOL    HW266345   8.177   3.918   1.057 -0.8880 -0.0578 -1.0638
21493SOL     OW66346   2.336   2.409   0.662 -0.9032  0.5214 -0.3420
21493SOL    HW166347   2.272   2.344   0.634 -0.6332  0.2130 -0.2483
21493SOL    HW266348   2.415   2.358   0.682  0.0333  1.0973 -2.3842
21494SOL     OW66349   7.858   7.675   0.308  0.2149  0.4268 -0.5472
21494SOL    HW166350   7.931   7.628   0.268  0.9682 -0.1181  1.3314
21494SOL    HW266351   7.899   7.732   0.373 -0.9070  1.6308 -0.8458
21495SOL     OW66352   6.287   8.386   1.730 -0.2364 -0.2391  1.0704
21495SOL    HW166353   6.201   8.375   1.690 -0.8444  0.7313  2.0403
21495SOL    HW266354   6.294   8.480   1.747  1.2812 -0.2025  0.4693
21496SOL     OW66355   6.063   0.098   1.464  0.1249 -0.1395  0.1027
21496SOL    HW166356   6.069   0.028   1.529 -1.3022 -2.8099 -2.3660
21496SOL    HW266357   6.154   0.117   1.440  0.6302  0.4346  2.3307
21497SOL     OW66358   8.397   6.630   6.312 -0.3786 -0.2641  0.0155
21497SOL    HW166359   8.346   6.564   6.265 -1.3888  0.1308  0.5355
21497SOL    HW266360   8.422   6.693   6.244 -0.4409 -0.5494 -0.2769
21498SOL     OW66361   3.766   2.950   6.037  0.1550  0.2807  0.0716
21498SOL    HW166362   3.846   2.992   6.065 -0.0573  0.2818  0.6958
21498SOL    HW266363   3.777   2.936   5.943  1.4375 -0.9288  0.3791
21499SOL     OW66364   0.819   2.879   6.996  0.5319 -0.0899  0.1571
21499SOL    HW166365   0.730   2.866   7.030  0.7976 -1.4720  0.3889
21499SOL    HW266366   0.807   2.888   6.901  0.0889  0.4037  0.2549
21500SOL     OW66367   3.980   6.365   1.479  0.5690 -0.1942 -0.5636
21500SOL    HW166368   4.070   6.352   1.450  0.8877 -0.9185  0.6724
21500SOL    HW266369   3.929   6.299   1.432  0.9400 -0.8063 -0.1225
21501SOL     OW66370   0.932   1.285   5.273 -0.1798  0.0619 -0.0067
21501SOL    HW166371   0.874   1.353   5.238  0.4622  1.3229  1.3032
21501SOL    HW266372   0.994   1.268   5.202 -0.1078  1.1331 -0.2231
21502SOL     OW66373   4.172   8.127   8.209 -0.0332 -0.0155 -0.5320
21502SOL    HW166374   4.121   8.074   8.270 -0.3268  0.4056 -0.4031
21502SOL    HW266375   4.205   8.200   8.261  0.3583 -0.0658 -0.7071
21503SOL     OW66376   6.490   8.461   8.139  0.6716  0.1978 -0.2660
21503SOL    HW166377   6.439   8.389   8.101 -0.9377  1.2042 -0.1234
21503SOL    HW266378   6.581   8.436   8.125  0.1528 -1.5096 -0.8784
21504SOL     OW66379   8.127   8.370   4.187  0.5808  0.1586  0.7317
21504SOL    HW166380   8.124   8.406   4.275 -0.5602  0.2494  0.6628
21504SOL    HW266381   8.154   8.279   4.199  0.0897  0.0753  1.2011
21505SOL     OW66382   0.536   7.727   6.827 -0.1513 -0.2413  0.1508
21505SOL    HW166383   0.632   7.737   6.828 -0.2001  0.4789 -0.9002
21505SOL    HW266384   0.521   7.650   6.771 -0.1784 -0.7033  0.7761
21506SOL     OW66385   5.775   6.006   4.248  0.8553  0.0361 -0.0655
21506SOL    HW166386   5.731   5.963   4.321 -0.8116  0.8069 -0.5647
21506SOL    HW266387   5.825   5.937   4.206  0.0529 -0.9151  0.4926
21507SOL     OW66388   4.861   5.173   6.533  0.4606 -0.4997  0.3259
21507SOL    HW166389   4.832   5.227   6.460 -0.4662 -0.4420  0.7279
21507SOL    HW266390   4.883   5.088   6.493 -0.3839 -0.5866  0.0251
21508SOL     OW66391   3.889   4.674   3.023 -0.2144  0.0132  0.4733
21508SOL    HW166392   3.961   4.619   2.992 -1.6435 -1.2018 -0.9084
21508SOL    HW266393   3.919   4.709   3.106  1.7820 -0.8133  0.1499
21509SOL     OW66394   8.037   7.779   3.247 -0.1619 -0.0505 -0.3797
21509SOL    HW166395   8.030   7.709   3.312 -1.1990  1.4968  1.2724
21509SOL    HW266396   7.957   7.830   3.258  1.0102  1.9816 -0.8084
21510SOL     OW66397   6.138   1.579   8.542 -0.6005 -0.2193 -0.6341
21510SOL    HW166398   6.211   1.620   8.495  0.8034 -1.2828  0.5201
21510SOL    HW266399   6.085   1.653   8.572 -1.0734  0.5183 -3.0730
21511SOL     OW66400   5.293   8.600   6.824 -0.0397  1.0113  0.4414
21511SOL    HW166401   5.244   8.662   6.878  1.3974  2.0013  0.6664
21511SOL    HW266402   5.272   8.515   6.861 -1.8235  1.3465  0.3232
21512SOL     OW66403   5.758   3.128   6.207 -0.3626  0.2372  0.1455
21512SOL    HW166404   5.825   3.060   6.202  0.5553  1.1716 -0.9314
21512SOL    HW266405   5.756   3.153   6.300  2.0765  1.4106 -0.0561
21513SOL     OW66406   6.727   5.996   7.596 -0.0161 -0.2821 -0.1419
21513SOL    HW166407   6.655   5.933   7.588 -0.9438  0.6462  0.6493
21513SOL    HW266408   6.684   6.081   7.604  1.0165  0.0550  3.2636
21514SOL     OW66409   0.409   4.149   3.483 -0.7562  0.6473  0.3894
21514SOL    HW166410   0.355   4.073   3.506 -1.2539  1.4951  2.1770
21514SOL    HW266411   0.488   4.138   3.535 -0.9965  1.5288  0.9588
21515SOL     OW66412   3.826   1.305   8.005 -0.2143 -0.7500 -0.7357
21515SOL    HW166413   3.883   1.229   8.017 -0.4460 -0.8144 -0.0181
21515SOL    HW266414   3.757   1.274   7.945  0.9851 -0.4018 -2.3658
21516SOL     OW66415   8.187   0.061   0.959 -0.3581 -0.3583 -0.2287
21516SOL    HW166416   8.260   0.076   1.018  0.8850 -0.6563 -1.6231
21516SOL    HW266417   8.165   0.149   0.925  1.8610 -0.5891 -2.5860
21517SOL     OW66418   4.335   8.246   0.575 -0.6309 -0.4100  0.6074
21517SOL    HW166419   4.340   8.290   0.490  0.0612 -0.2779  0.7154
21517SOL    HW266420   4.281   8.168   0.559 -1.2554  0.0896  0.2547
21518SOL     OW66421   3.151   0.682   5.812 -0.5611 -1.0131 -0.3324
21518SOL    HW166422   3.132   0.748   5.879  0.2894 -0.4752 -0.6197
21518SOL    HW266423   3.107   0.714   5.733 -0.2008 -0.8137 -0.4551
21519SOL     OW66424   6.800   1.930   4.607  0.1162  0.6179  0.3607
21519SOL    HW166425   6.751   1.928   4.689 -0.5706  1.7260  0.0095
21519SOL    HW266426   6.737   1.963   4.543  0.4106 -0.9146 -0.7889
21520SOL     OW66427   0.501   5.346   6.527 -0.3566  0.0372 -0.0884
21520SOL    HW166428   0.490   5.251   6.521 -0.1037  0.0500 -1.0178
21520SOL    HW266429   0.432   5.375   6.586  0.6035 -0.9083  1.5710
21521SOL     OW66430   7.915   0.939   2.594 -0.2667 -0.1375  0.0274
21521SOL    HW166431   7.969   0.992   2.536 -1.2194  0.0205 -0.7325
21521SOL    HW266432   7.975   0.870   2.625  0.8995  1.1794  0.8037
21522SOL     OW66433   6.880   2.712   1.226  0.1665 -0.0455 -0.2839
21522SOL    HW166434   6.896   2.675   1.313 -0.0564  1.4456  0.4186
21522SOL    HW266435   6.796   2.674   1.199 -0.2706  0.2630  0.6018
21523SOL     OW66436   0.253   2.752   3.033  0.3363 -0.0442  0.2746
21523SOL    HW166437   0.164   2.787   3.037  0.2436 -0.3756  2.0035
21523SOL    HW266438   0.307   2.827   3.009 -0.2143  0.5799  0.9345
21524SOL     OW66439   6.050   7.139   3.611  0.2559  0.3507 -0.1653
21524SOL    HW166440   5.993   7.146   3.688 -2.4817 -2.4972 -1.6696
21524SOL    HW266441   6.128   7.096   3.643 -0.6860 -0.4671  1.1317
21525SOL     OW66442   2.439   5.616   0.138  0.2883  0.0000  0.0891
21525SOL    HW166443   2.531   5.622   0.110  0.8020  0.1808  1.7178
21525SOL    HW266444   2.443   5.622   0.233 -1.3091 -1.4527  0.2821
21526SOL     OW66445   5.570   2.203   6.100 -0.1817 -0.0817  0.0035
21526SOL    HW166446   5.589   2.126   6.046 -0.4997  0.1020 -0.3733
21526SOL    HW266447   5.595   2.277   6.045 -0.2182  0.0959  0.2281
21527SOL     OW66448   5.427   3.916   4.991  0.0201  0.1122 -0.4412
21527SOL    HW166449   5.443   3.888   4.901 -1.7425 -1.1197 -0.4212
21527SOL    HW266450   5.409   4.010   4.985 -0.4237 -0.0301 -1.4337
21528SOL     OW66451   5.100   8.219   5.243 -0.6959  0.0548  0.1710
21528SOL    HW166452   5.071   8.188   5.329 -1.7886 -0.0185 -0.2146
21528SOL    HW266453   5.195   8.203   5.243 -0.8382 -0.8761  0.9718
21529SOL     OW66454   6.626   8.115   8.666 -0.1211 -0.0856  0.6173
21529SOL    HW166455   6.611   8.021   8.672 -1.5528  0.0796  0.0483
21529SOL    HW266456   6.721   8.125   8.671  0.0497 -1.5627  0.6067
21530SOL     OW66457   7.101   0.255   2.582 -0.8799 -0.9817  0.4673
21530SOL    HW166458   7.037   0.326   2.579 -0.2211 -0.3775 -0.0452
21530SOL    HW266459   7.082   0.202   2.504  0.3758  0.2717 -0.7707
21531SOL     OW66460   7.785   2.650   7.868  0.7105 -0.0504 -0.1838
21531SOL    HW166461   7.823   2.586   7.929 -1.2292 -0.6112  0.5246
21531SOL    HW266462   7.797   2.610   7.782 -1.6733 -2.1731  0.3357
21532SOL     OW66463   2.576   7.838   7.252 -0.2947  0.2118 -0.4770
21532SOL    HW166464   2.605   7.830   7.344 -1.7386  0.7988  0.0568
21532SOL    HW266465   2.565   7.748   7.222  0.2168  0.0142 -0.0876
21533SOL     OW66466   0.178   8.840   8.320 -0.6449  0.5525 -0.5281
21533SOL    HW166467   0.261   8.793   8.324 -1.6356 -1.3687 -1.4080
21533SOL    HW266468   0.117   8.789   8.372 -1.4558  1.5800 -0.4166
21534SOL     OW66469   1.493   7.438   6.870  0.4790  0.5054  0.5213
21534SOL    HW166470   1.519   7.515   6.921  1.2025 -0.5965  1.9025
21534SOL    HW266471   1.505   7.364   6.931  0.4422 -0.7650 -0.9571
21535SOL     OW66472   8.286   2.311   6.144 -0.6472 -0.3674  0.1131
21535SOL    HW166473   8.248   2.243   6.199 -1.6078 -0.2991 -0.4355
21535SOL    HW266474   8.362   2.270   6.103 -0.8761 -0.9260  0.2468
21536SOL     OW66475   3.346   6.919   4.419 -0.3413 -0.5496 -0.8540
21536SOL    HW166476   3.380   6.839   4.458  0.8256  0.0804 -0.5343
21536SOL    HW266477   3.423   6.974   4.405 -1.0024  0.1580 -1.9333
21537SOL     OW66478   0.407   3.564   0.948 -0.5576 -0.0368  0.6475
21537SOL    HW166479   0.462   3.523   1.015 -0.9223 -0.2347  0.8271
21537SOL    HW266480   0.352   3.492   0.915 -1.8308  0.4709  1.5823
21538SOL     OW66481   7.961   2.620   8.434  0.1935 -0.0311  0.3849
21538SOL    HW166482   8.003   2.556   8.492 -2.0000  0.5915  2.8238
21538SOL    HW266483   7.874   2.585   8.418  0.3359  0.4074 -1.6645
21539SOL     OW66484   3.996   1.521   8.347  0.0826  0.2030 -0.0445
21539SOL    HW166485   3.930   1.474   8.296  0.6738 -2.0827  1.1486
21539SOL    HW266486   4.028   1.589   8.287 -2.3830  0.5720 -1.0907
21540SOL     OW66487   4.016   1.703   0.136  0.8176  0.1829 -0.3514
21540SOL    HW166488   4.008   1.645   0.211  2.8701  1.7494  1.2197
21540SOL    HW266489   4.076   1.657   0.076 -1.2979 -1.3401 -1.4255
21541SOL     OW66490   2.439   7.368   4.885 -0.2977 -0.3671 -0.1357
21541SOL    HW166491   2.494   7.436   4.845  0.0638 -1.0459 -0.8339
21541SOL    HW266492   2.367   7.415   4.926  0.1392  0.4585 -0.3054
21542SOL     OW66493   8.314   6.034   2.236  0.1708 -0.4128  0.1640
21542SOL    HW166494   8.334   6.006   2.147  0.4335 -0.6875  0.3085
21542SOL    HW266495   8.325   6.129   2.234 -0.5290 -0.3364 -0.2753
21543SOL     OW66496   6.265   6.780   1.897  0.0072 -0.3999 -0.4065
21543SOL    HW166497   6.185   6.833   1.900  0.1290 -0.2397  0.2426
21543SOL    HW266498   6.234   6.690   1.907 -0.2129 -0.4819 -1.6453
21544SOL     OW66499   5.303   7.114   7.681  0.4786 -0.4245 -0.3896
21544SOL    HW166500   5.224   7.131   7.731  0.3808 -1.4707 -0.1619
21544SOL    HW266501   5.308   7.186   7.618 -2.0093 -1.5697 -2.0581
21545SOL     OW66502   7.894   0.563   1.680  0.2515 -0.1104 -0.2074
21545SOL    HW166503   7.886   0.658   1.669  0.8340 -0.0250  0.0819
21545SOL    HW266504   7.860   0.546   1.768 -1.1693 -0.3581 -0.7766
21546SOL     OW66505   8.890   8.502   7.771 -0.5344  0.2372  0.0739
21546SOL    HW166506   8.842   8.507   7.854  1.9588  2.6956  1.5298
21546SOL    HW266507   8.960   8.439   7.787  0.8225  1.7730  0.4167
21547SOL     OW66508   5.552   3.434   1.566  0.0523 -0.4011 -0.4177
21547SOL    HW166509   5.621   3.387   1.520 -0.3785 -0.3581 -1.1208
21547SOL    HW266510   5.486   3.367   1.585  0.8917 -0.7439  1.5216
21548SOL     OW66511   8.547   7.472   0.556 -0.9345 -0.1624  0.1671
21548SOL    HW166512   8.592   7.497   0.476 -0.4283  0.9107  0.7654
21548SOL    HW266513   8.614   7.478   0.624 -1.8157  0.9596  0.9848
21549SOL     OW66514   6.188   1.869   1.230 -0.2057 -0.3346 -0.1370
21549SOL    HW166515   6.119   1.921   1.272  0.3892  0.5812 -0.2516
21549SOL    HW266516   6.169   1.877   1.136 -0.6248 -1.0794 -0.1254
21550SOL     OW66517   8.867   2.634   7.432 -0.3801  0.4741 -0.0505
21550SOL    HW166518   8.809   2.682   7.373 -1.3462  0.0844  0.5523
21550SOL    HW266519   8.861   2.682   7.515 -0.4457 -0.0125  0.2272
21551SOL     OW66520   3.935   3.081   4.485 -0.2247 -0.1709  0.0959
21551SOL    HW166521   4.008   3.039   4.531  0.1541 -1.0684 -1.2729
21551SOL    HW266522   3.911   3.154   4.542  2.0445  0.4490  0.3696
21552SOL     OW66523   0.253   1.877   8.750  0.4362  0.1088 -0.1816
21552SOL    HW166524   0.217   1.960   8.720 -0.5678 -0.5522 -0.8758
21552SOL    HW266525   0.319   1.854   8.684 -0.3247 -0.3433 -0.8065
21553SOL     OW66526   7.850   7.136   3.374  0.2594  0.1313  0.5147
21553SOL    HW166527   7.815   7.048   3.367  1.7668 -0.6268  1.8841
21553SOL    HW266528   7.783   7.192   3.335 -0.6230 -1.6252 -0.5878
21554SOL     OW66529   1.364   1.894   2.115  0.1261 -0.2847 -0.3074
21554SOL    HW166530   1.459   1.878   2.118  0.0082 -0.8692  1.7774
21554SOL    HW266531   1.325   1.812   2.143 -1.1542 -0.7330 -3.1227
21555SOL     OW66532   4.158   6.629   5.686  0.5901 -0.3032  0.3456
21555SOL    HW166533   4.195   6.563   5.744  3.2653 -0.7020 -1.6156
21555SOL    HW266534   4.230   6.691   5.672 -0.9750  1.4992 -0.0757
21556SOL     OW66535   6.149   3.029   6.164 -0.1088 -0.3024 -0.5272
21556SOL    HW166536   6.167   3.046   6.257 -1.4408  0.4453 -0.3886
21556SOL    HW266537   6.067   2.980   6.164 -1.4523  1.8507 -1.4019
21557SOL     OW66538   7.869   1.041   1.624  0.2026  0.3055 -0.0300
21557SOL    HW166539   7.793   1.100   1.623  0.3614  0.5159 -0.9692
21557SOL    HW266540   7.896   1.036   1.532  0.1719 -1.2588  0.0217
21558SOL     OW66541   2.626   0.080   3.965  0.3894 -0.6295 -0.0264
21558SOL    HW166542   2.598   0.164   4.000  0.0002  0.2305 -2.2300
21558SOL    HW266543   2.715   0.068   3.999  0.7283  1.0496 -0.2404
21559SOL     OW66544   3.035   0.873   0.670 -0.4330  0.2642 -0.4852
21559SOL    HW166545   2.978   0.873   0.592 -0.2410 -2.2402 -0.7207
21559SOL    HW266546   2.980   0.908   0.740 -1.3109  0.5780 -1.3083
21560SOL     OW66547   8.876   7.107   7.647 -0.6475  0.3907  0.0456
21560SOL    HW166548   8.839   7.155   7.722  0.5397  1.0644  0.2242
21560SOL    HW266549   8.888   7.173   7.580  0.3981  0.2299  0.0617
21561SOL     OW66550   0.764   1.991   6.240 -0.4951  0.0557 -0.0045
21561SOL    HW166551   0.736   2.082   6.228 -0.1407  0.0817 -0.6615
21561SOL    HW266552   0.823   1.974   6.166 -0.7021 -0.7625  0.0122
21562SOL     OW66553   8.350   0.572   8.512  0.2455  0.2774 -0.3856
21562SOL    HW166554   8.290   0.613   8.450  2.0466 -0.1798 -2.5654
21562SOL    HW266555   8.312   0.486   8.528 -1.4498  1.2355  1.0440
21563SOL     OW66556   0.133   0.723   4.218  0.3210 -0.6800  0.0283
21563SOL    HW166557   0.196   0.773   4.270  0.3519 -1.6423  0.9610
21563SOL    HW266558   0.174   0.713   4.133 -0.0494  1.5701 -0.4731
21564SOL     OW66559   3.609   7.944   6.734 -0.4290 -0.0157 -0.4401
21564SOL    HW166560   3.621   8.033   6.768  0.7808 -1.0565  2.0637
21564SOL    HW266561   3.660   7.943   6.652  2.5099  0.6985  1.2200
21565SOL     OW66562   5.674   8.349   3.276 -0.9317 -0.8290  0.0366
21565SOL    HW166563   5.711   8.302   3.350 -0.7534 -0.3950  0.2271
21565SOL    HW266564   5.739   8.340   3.207 -0.4118  0.0214  0.4039
21566SOL     OW66565   7.755   8.800   3.325  0.2850  0.0697 -0.3740
21566SOL    HW166566   7.683   8.771   3.268 -1.4073  0.0706  1.6274
21566SOL    HW266567   7.711   8.841   3.399  2.3370 -0.5117  1.2505
21567SOL     OW66568   3.357   1.349   6.939  1.0078  0.4524  0.9443
21567SOL    HW166569   3.396   1.323   6.855  0.0058 -0.6427  0.7811
21567SOL    HW266570   3.374   1.275   6.997 -1.8377 -0.7051  0.5043
21568SOL     OW66571   6.911   7.395   5.755 -0.3157 -0.2144  0.1146
21568SOL    HW166572   6.833   7.373   5.806 -0.2790 -1.0926 -0.1980
21568SOL    HW266573   6.889   7.370   5.665 -0.3294  1.1883 -0.2983
21569SOL     OW66574   2.204   2.434   8.473 -0.7527 -0.5081 -0.2110
21569SOL    HW166575   2.213   2.339   8.484  0.3142 -0.5118 -0.9778
21569SOL    HW266576   2.155   2.444   8.391 -1.8037 -0.3938  0.4134
21570SOL     OW66577   6.910   1.418   8.993  0.7733  0.2080 -0.5016
21570SOL    HW166578   6.877   1.349   9.051  2.5088 -1.0552 -0.9309
21570SOL    HW266579   6.870   1.399   8.908  1.0009 -0.0876 -0.5435
21571SOL     OW66580   8.033   2.761   7.920  0.1574  0.3012  0.2667
21571SOL    HW166581   7.988   2.709   7.853  1.3674 -2.5640  1.4830
21571SOL    HW266582   7.969   2.767   7.992 -0.8940  2.7996 -0.7667
21572SOL     OW66583   3.166   1.562   5.454 -0.5924 -0.2473  0.0099
21572SOL    HW166584   3.239   1.590   5.509 -1.1026  0.1010  0.5113
21572SOL    HW266585   3.207   1.507   5.387  0.0448 -0.5943  0.6673
21573SOL     OW66586   5.647   2.190   4.687  0.5429  0.7541  0.0705
21573SOL    HW166587   5.651   2.192   4.783 -1.2501 -1.8805  0.2978
21573SOL    HW266588   5.565   2.235   4.666  1.3194  2.0210 -0.3120
21574SOL     OW66589   5.837   1.489   5.983 -0.3842 -0.3007  0.0001
21574SOL    HW166590   5.920   1.453   5.952  0.2939  1.1107  0.0709
21574SOL    HW266591   5.778   1.481   5.908  0.5146  0.7999 -0.8767
21575SOL     OW66592   8.604   6.925   1.682 -0.1402 -0.3341  0.4652
21575SOL    HW166593   8.694   6.893   1.688  0.2715  0.7006  0.1298
21575SOL    HW266594   8.610   7.004   1.629 -1.3411 -0.5525 -0.0282
21576SOL     OW66595   2.708   5.734   6.995  0.0461 -0.4890  0.2545
21576SOL    HW166596   2.687   5.828   6.993 -0.1204 -0.5325  0.0369
21576SOL    HW266597   2.623   5.690   6.999  0.1280 -0.5956  1.9129
21577SOL     OW66598   1.813   4.796   5.728 -0.6706 -0.7451  0.2018
21577SOL    HW166599   1.724   4.768   5.707 -0.9876 -0.0134  0.5367
21577SOL    HW266600   1.802   4.881   5.772  0.2219 -0.3705 -0.2653
21578SOL     OW66601   5.247   3.953   3.589  0.4267  0.1824 -0.1242
21578SOL    HW166602   5.191   4.027   3.568  0.6692  0.0236 -1.4247
21578SOL    HW266603   5.199   3.877   3.556  1.2811  0.0232 -1.0652
21579SOL     OW66604   4.258   1.757   2.022 -0.2538 -0.1796 -0.7591
21579SOL    HW166605   4.341   1.752   2.069 -1.3429 -0.9402  1.2040
21579SOL    HW266606   4.252   1.674   1.974  0.1833 -0.0528 -1.0343
21580SOL     OW66607   7.793   7.302   5.732 -0.5048 -0.0978  0.0368
21580SOL    HW166608   7.755   7.383   5.698 -1.2985 -0.4572  0.0513
21580SOL    HW266609   7.728   7.269   5.793  0.3842 -0.0769  1.0296
21581SOL     OW66610   5.225   7.657   5.345 -0.5075 -0.4526 -0.2374
21581SOL    HW166611   5.293   7.644   5.411  0.4110  0.8283 -0.8788
21581SOL    HW266612   5.232   7.581   5.288 -1.9950 -2.1021  1.6502
21582SOL     OW66613   2.965   1.106   4.745 -0.2304 -0.1355 -0.4034
21582SOL    HW166614   2.978   1.192   4.706 -2.8106  0.4954 -0.0261
21582SOL    HW266615   3.053   1.080   4.775  0.9163  1.5429 -2.0714
21583SOL     OW66616   2.071   2.117   2.850 -0.4932  0.1996  0.0305
21583SOL    HW166617   2.105   2.137   2.763  0.9034  0.5263  0.6134
21583SOL    HW266618   2.046   2.203   2.886 -1.6572 -0.0025 -0.2638
21584SOL     OW66619   6.442   0.360   1.539  0.1612 -0.5200  0.0583
21584SOL    HW166620   6.534   0.386   1.548  0.2216 -0.7775  0.2013
21584SOL    HW266621   6.432   0.340   1.446  0.6317 -1.8819  0.2799
21585SOL     OW66622   4.464   7.344   5.070  0.2849 -0.3147  0.4448
21585SOL    HW166623   4.432   7.352   4.980  0.8938 -1.3732  0.1186
21585SOL    HW266624   4.400   7.287   5.113  1.0033 -1.3820  0.1406
21586SOL     OW66625   7.654   4.941   8.302  0.2476  0.6209  0.6003
21586SOL    HW166626   7.615   5.026   8.323 -2.2221 -0.5215  0.9568
21586SOL    HW266627   7.640   4.930   8.208 -0.9296 -0.0639  0.8394
21587SOL     OW66628   5.085   6.030   8.025  0.4799  0.5832 -0.1105
21587SOL    HW166629   5.024   6.076   8.083 -0.0376 -1.3282  0.9358
21587SOL    HW266630   5.147   6.098   7.998 -1.7793  2.5130 -0.8325
21588SOL     OW66631   8.197   6.459   7.237 -0.1711  0.2315 -0.4638
21588SOL    HW166632   8.126   6.396   7.221  0.2598 -0.5084  0.4511
21588SOL    HW266633   8.277   6.412   7.213  0.1337  0.5177 -0.0317
21589SOL     OW66634   8.881   4.696   0.045  0.0643  0.0868  0.2729
21589SOL    HW166635   8.863   4.738   0.129  2.3765  0.9052  0.4340
21589SOL    HW266636   8.976   4.703   0.035  0.0241 -1.4346 -1.6691
21590SOL     OW66637   3.445   0.389   1.126 -0.2062  0.6920 -0.4885
21590SOL    HW166638   3.482   0.331   1.059  0.1777  0.2580  0.0933
21590SOL    HW266639   3.351   0.388   1.110 -0.5464 -2.1633  1.0974
21591SOL     OW66640   5.327   2.965   0.010  0.0213 -0.2348  0.2447
21591SOL    HW166641   5.320   2.936   0.101  1.1473 -2.7840 -0.3772
21591SOL    HW266642   5.420   2.984  -0.002 -0.0427 -0.3048 -0.4500
21592SOL     OW66643   4.882   6.556   4.213 -0.6900  0.1062 -0.3269
21592SOL    HW166644   4.944   6.514   4.153 -0.9860  0.2123 -0.7130
21592SOL    HW266645   4.866   6.490   4.280 -0.7608 -0.2184 -0.6559
21593SOL     OW66646   2.122   0.225   0.367 -0.2049  0.0872 -0.3417
21593SOL    HW166647   2.165   0.250   0.449 -0.0090 -0.7571 -0.1864
21593SOL    HW266648   2.112   0.130   0.372  2.0530 -0.3553 -2.3568
21594SOL     OW66649   0.486   7.991   6.672 -0.1555  0.3052 -0.0203
21594SOL    HW166650   0.521   7.902   6.677  1.8728  1.0259 -0.4165
21594SOL    HW266651   0.453   7.999   6.583  0.3345  0.1642 -0.2188
21595SOL     OW66652   2.002   6.952   2.265  0.0141  0.2058  0.0530
21595SOL    HW166653   2.054   6.996   2.198 -0.7901 -0.1042 -0.7935
21595SOL    HW266654   1.998   7.015   2.337  1.4947  0.2623  0.1282
21596SOL     OW66655   2.011   8.113   3.542 -0.4217  0.1178  0.0001
21596SOL    HW166656   2.044   8.196   3.506 -0.9671  0.0891 -0.5813
21596SOL    HW266657   2.073   8.091   3.611  0.9885 -0.1132 -1.2787
21597SOL     OW66658   5.147   0.573   0.860  0.4733  0.0888 -0.3449
21597SOL    HW166659   5.139   0.668   0.854 -0.8523  0.0212  0.2562
21597SOL    HW266660   5.070   0.539   0.815  0.6991 -0.6938 -0.1567
21598SOL     OW66661   6.275   4.275   5.509  0.5315  0.0026 -0.6652
21598SOL    HW166662   6.220   4.351   5.491 -1.3964 -1.7191 -2.4796
21598SOL    HW266663   6.365   4.308   5.502 -0.2434  2.0435 -1.7288
21599SOL     OW66664   2.735   5.666   8.786  0.4311  0.1656  0.3383
21599SOL    HW166665   2.649   5.701   8.808 -0.0367 -1.0641  0.5873
21599SOL    HW266666   2.776   5.648   8.871  0.4640 -0.3242  0.2227
21600SOL     OW66667   6.560   7.567   1.969 -0.2332 -0.2141  0.1154
21600SOL    HW166668   6.621   7.498   1.996 -0.9828 -0.1319  2.1980
21600SOL    HW266669   6.608   7.648   1.984  0.2084 -0.2247 -1.1627
21601SOL     OW66670   2.614   2.768   6.983  0.4715 -0.5018 -0.1470
21601SOL    HW166671   2.567   2.708   7.040 -2.4637  1.5809 -0.1188
21601SOL    HW266672   2.562   2.771   6.903  1.4984  0.6841 -0.8048
21602SOL     OW66673   8.847   7.698   5.951  0.1843 -0.0829  0.2371
21602SOL    HW166674   8.785   7.634   5.915 -1.1854  1.2935  0.0361
21602SOL    HW266675   8.914   7.645   5.995 -1.4313 -1.6342  0.9568
21603SOL     OW66676   0.629   3.586   4.305  0.2914  0.2239 -0.5881
21603SOL    HW166677   0.641   3.548   4.392 -1.3648  2.0484  0.5216
21603SOL    HW266678   0.716   3.616   4.280  1.3144 -2.6290 -0.7737
21604SOL     OW66679   8.293   8.455   2.288 -0.1347  0.0898  0.1494
21604SOL    HW166680   8.304   8.475   2.195  0.0934  0.2746  0.2146
21604SOL    HW266681   8.245   8.529   2.324  0.7509  0.5516  0.3996
21605SOL     OW66682   8.705   5.190   2.623 -0.0876  0.0801 -0.0571
21605SOL    HW166683   8.695   5.274   2.578 -2.2080  0.3924  0.8756
21605SOL    HW266684   8.698   5.125   2.553  0.6994  0.6343 -0.6721
21606SOL     OW66685   6.704   1.787   0.528  0.1476  0.3752  0.4813
21606SOL    HW166686   6.655   1.791   0.446 -0.1707 -0.9363  0.5907
21606SOL    HW266687   6.637   1.793   0.596  0.0512 -1.7541  0.6328
21607SOL     OW66688   2.937   5.709   8.331  0.3454  0.1005 -0.5316
21607SOL    HW166689   2.879   5.659   8.388 -0.6801  1.4114 -0.3805
21607SOL    HW266690   2.910   5.683   8.242  1.4144 -1.3469 -0.4667
21608SOL     OW66691   3.907   4.314   7.640 -0.1667  1.0990  0.6203
21608SOL    HW166692   3.941   4.225   7.626 -0.6437  1.0421 -0.3199
21608SOL    HW266693   3.946   4.366   7.570 -2.3364  0.9197 -0.8344
21609SOL     OW66694   1.167   3.205   3.613 -0.3101 -0.1272  0.0792
21609SOL    HW166695   1.164   3.226   3.520 -1.3984 -0.4478  0.0280
21609SOL    HW266696   1.106   3.132   3.623 -0.2770 -0.0314  1.0580
21610SOL     OW66697   8.121   8.204   3.412 -0.0867 -0.1589  0.0352
21610SOL    HW166698   8.132   8.113   3.438  0.0013 -0.0960  0.2139
21610SOL    HW266699   8.201   8.248   3.441  0.3516 -0.2365 -0.9899
21611SOL     OW66700   6.316   0.704   6.853 -0.0311  0.0275 -0.1962
21611SOL    HW166701   6.305   0.611   6.832 -0.7577 -0.0780  0.5965
21611SOL    HW266702   6.257   0.750   6.793  0.8885  0.0450 -1.1040
21612SOL     OW66703   8.613   5.608   0.049  0.3357 -0.1965 -0.0263
21612SOL    HW166704   8.628   5.701   0.034  2.1651 -0.5585 -0.6525
21612SOL    HW266705   8.518   5.598   0.045  0.2066  1.1011 -3.4153
21613SOL     OW66706   3.244   1.465   6.307  0.2510  0.1181 -0.4409
21613SOL    HW166707   3.305   1.395   6.329 -0.6998 -0.3542  0.8390
21613SOL    HW266708   3.166   1.420   6.276 -0.0542  0.6370 -0.4453
21614SOL     OW66709   1.081   4.172   8.385 -0.1694  0.4304  0.7040
21614SOL    HW166710   1.010   4.230   8.413 -0.1363  0.3520  0.9488
21614SOL    HW266711   1.150   4.185   8.450  0.3578  1.0985  0.0360
21615SOL     OW66712   4.734   8.219   7.556 -0.3906 -0.0377  0.3571
21615SOL    HW166713   4.782   8.173   7.487  0.8596 -0.6004  1.5433
21615SOL    HW266714   4.717   8.306   7.521  0.2725 -0.2974 -0.6344
21616SOL     OW66715   2.099   7.214   1.221 -0.1909 -0.1420  0.1555
21616SOL    HW166716   2.074   7.266   1.145 -0.0347  3.1072  2.1288
21616SOL    HW266717   2.190   7.239   1.239  0.0858 -1.5479  0.8997
21617SOL     OW66718   7.496   4.473   3.939  0.4148 -0.1227  0.0985
21617SOL    HW166719   7.454   4.387   3.943  0.4676 -0.1495  0.0804
21617SOL    HW266720   7.526   4.481   3.848 -0.7856  0.4805 -0.2685
21618SOL     OW66721   0.159   6.008   0.085  0.3408 -0.1372 -0.0337
21618SOL    HW166722   0.099   5.936   0.066 -0.5151  0.3114  0.8834
21618SOL    HW266723   0.197   5.986   0.169  0.7908  0.0185 -0.1964
21619SOL     OW66724   2.913   0.827   3.471  0.3747 -0.0780 -0.1641
21619SOL    HW166725   2.925   0.838   3.377  2.4368 -2.3296 -0.2548
21619SOL    HW266726   2.983   0.879   3.511 -0.3712  0.7078  0.1632
21620SOL     OW66727   6.995   0.336   3.634  0.0652 -0.3320  0.4146
21620SOL    HW166728   6.939   0.413   3.645  1.1447  0.7262 -1.0917
21620SOL    HW266729   7.061   0.345   3.702  0.7364  0.6050 -0.3414
21621SOL     OW66730   2.799   5.438   3.532 -0.2576  0.0577 -0.0019
21621SOL    HW166731   2.743   5.488   3.473 -0.0734 -0.2146 -0.4195
21621SOL    HW266732   2.762   5.451   3.619 -2.4464 -2.0223 -0.4995
21622SOL     OW66733   8.596   6.125   8.926 -0.0311 -0.3124 -0.4511
21622SOL    HW166734   8.647   6.198   8.892 -0.1477 -0.2016 -0.3892
21622SOL    HW266735   8.521   6.119   8.867  0.2512 -0.7225 -0.7737
21623SOL     OW66736   5.948   6.582   3.202 -0.5580  0.5673 -0.3435
21623SOL    HW166737   5.909   6.624   3.279  0.7883 -1.1954  1.4308
21623SOL    HW266738   5.886   6.513   3.178 -1.0264  1.1818 -0.9314
21624SOL     OW66739   1.837   6.968   4.788  0.1952  0.4502 -0.2402
21624SOL    HW166740   1.881   6.995   4.869  2.9564 -2.5108 -0.5264
21624SOL    HW266741   1.889   7.007   4.718  0.4566 -0.4817 -0.5775
21625SOL     OW66742   2.907   4.390   3.320  0.1974 -0.1472  0.2958
21625SOL    HW166743   3.002   4.404   3.314 -0.0384  2.4038  1.2685
21625SOL    HW266744   2.883   4.422   3.407 -1.5469 -0.9204  0.1401
21626SOL     OW66745   4.068   6.593   7.344 -0.4459 -0.2406  0.0394
21626SOL    HW166746   4.141   6.576   7.403  0.1984  1.0408 -0.3491
21626SOL    HW266747   4.061   6.688   7.341 -0.5078 -0.2496 -1.8566
21627SOL     OW66748   6.448   0.924   5.091  0.2418  0.2397  0.2040
21627SOL    HW166749   6.470   1.001   5.144 -1.2674 -0.8072  2.5107
21627SOL    HW266750   6.521   0.864   5.103 -0.1164 -0.0098  1.1797
21628SOL     OW66751   8.227   2.763   7.740 -0.3101 -0.1338 -0.1010
21628SOL    HW166752   8.187   2.787   7.656 -0.2402  0.3023 -0.0148
21628SOL    HW266753   8.163   2.791   7.806 -0.5668 -0.8968 -0.0274
21629SOL     OW66754   3.335   8.231   0.530  0.8711 -0.0454  0.1424
21629SOL    HW166755   3.399   8.161   0.546 -0.0066 -1.1233 -0.9172
21629SOL    HW266756   3.336   8.244   0.436  0.3159  0.7031  0.2294
21630SOL     OW66757   3.188   7.368   7.688  0.0915  0.6600  0.1307
21630SOL    HW166758   3.259   7.375   7.624  1.8564 -2.5786  1.4565
21630SOL    HW266759   3.222   7.411   7.766 -1.0801  2.4780 -0.3001
21631SOL     OW66760   7.228   1.268   1.487  0.3634  0.3107 -0.1611
21631SOL    HW166761   7.295   1.283   1.554  0.8576 -0.9869 -0.3265
21631SOL    HW266762   7.176   1.196   1.522  0.6552 -0.4109 -1.1773
21632SOL     OW66763   4.480   4.202   5.163 -0.1565 -0.2789 -0.6452
21632SOL    HW166764   4.404   4.260   5.158  0.0453  0.0769  0.1778
21632SOL    HW266765   4.538   4.245   5.226 -0.9928 -2.4750  1.8366
21633SOL     OW66766   2.497   4.913   5.702 -0.1448 -0.2941 -0.6337
21633SOL    HW166767   2.552   4.835   5.696 -1.6530 -1.3474 -1.5209
21633SOL    HW266768   2.545   4.972   5.760  0.7314 -2.1397  0.6219
21634SOL     OW66769   0.310   4.263   3.772 -0.8272 -0.1716 -0.2140
21634SOL    HW166770   0.367   4.241   3.699  0.2024 -0.3678  0.6281
21634SOL    HW266771   0.243   4.320   3.734 -0.1869 -0.0851 -1.2562
21635SOL     OW66772   0.454   3.981   7.857 -0.2892  0.5312 -0.0093
21635SOL    HW166773   0.428   3.893   7.884 -0.0024  0.3164 -0.4102
21635SOL    HW266774   0.488   4.022   7.937 -1.2402  0.5934  0.3730
21636SOL     OW66775   1.750   6.349   6.396 -0.4271 -0.3493 -0.4837
21636SOL    HW166776   1.707   6.344   6.481 -2.2381  1.1251 -1.2516
21636SOL    HW266777   1.683   6.324   6.333  0.2648  0.5559 -1.6244
21637SOL     OW66778   3.375   5.941   2.905  0.3780 -0.2151  0.3059
21637SOL    HW166779   3.382   6.037   2.903  3.0487 -0.3382 -2.2199
21637SOL    HW266780   3.298   5.922   2.852 -0.6416  0.4829  1.4667
21638SOL     OW66781   2.391   0.449   5.657  0.6975 -0.3307 -0.2361
21638SOL    HW166782   2.461   0.504   5.692  0.0104  0.0177  0.6244
21638SOL    HW266783   2.436   0.380   5.609  1.5946  0.8938 -1.2396
21639SOL     OW66784   3.121   0.153   4.209  0.6141 -0.5058 -0.8333
21639SOL    HW166785   3.209   0.129   4.238  1.0638  0.8454 -1.0212
21639SOL    HW266786   3.064   0.087   4.249  1.3288  0.4755  2.0501
21640SOL     OW66787   2.723   8.580   8.423  0.1841  0.0552  0.2787
21640SOL    HW166788   2.705   8.666   8.460 -0.8573  0.9247 -2.0732
21640SOL    HW266789   2.744   8.597   8.331  0.0586 -2.1952 -0.2255
21641SOL     OW66790   8.206   8.541   2.043  0.1548 -0.3622 -0.2829
21641SOL    HW166791   8.277   8.603   2.062  0.3690  0.0700 -2.2866
21641SOL    HW266792   8.133   8.597   2.015 -0.0583 -0.9370 -0.9068
21642SOL     OW66793   5.588   2.646   1.854  0.3064  0.2227 -0.4339
21642SOL    HW166794   5.547   2.651   1.768  1.0027 -0.5727 -0.8317
21642SOL    HW266795   5.680   2.625   1.836  0.5552  0.4448  0.4880
21643SOL     OW66796   3.308   8.292   1.932  0.2294 -0.2090 -0.0657
21643SOL    HW166797   3.309   8.236   1.854  1.3400 -0.2772 -0.0212
21643SOL    HW266798   3.341   8.235   2.002  0.2209  0.1506  0.2311
21644SOL     OW66799   6.679   6.114   6.491  0.0709 -0.2180 -0.1243
21644SOL    HW166800   6.723   6.179   6.545  0.6444 -1.1767  0.6054
21644SOL    HW266801   6.590   6.148   6.479  0.7860  1.3913 -1.0087
21645SOL     OW66802   2.524   4.845   1.432  0.7310 -0.2381  0.1851
21645SOL    HW166803   2.437   4.840   1.471  0.7335 -0.3991  0.1691
21645SOL    HW266804   2.545   4.755   1.407  0.1990  0.0303 -1.3417
21646SOL     OW66805   3.692   1.091   3.675  0.3295 -0.4586  0.2266
21646SOL    HW166806   3.617   1.109   3.732  0.8839  1.0191  0.5275
21646SOL    HW266807   3.768   1.117   3.725  1.0092 -1.2141 -0.3754
21647SOL     OW66808   8.182   0.012   2.750 -0.0629  0.1330 -0.0695
21647SOL    HW166809   8.205   0.102   2.775 -0.1444  1.0321 -2.8926
21647SOL    HW266810   8.164  -0.031   2.833  0.7058  2.5060  1.4577
21648SOL     OW66811   1.414   1.965   6.355  0.2209  0.5533  0.0434
21648SOL    HW166812   1.330   1.925   6.335 -0.1135  0.7417  1.0619
21648SOL    HW266813   1.435   2.016   6.276 -0.4461  0.2321 -0.3492
21649SOL     OW66814   3.545   5.298   7.499  0.4163  0.0784  0.1899
21649SOL    HW166815   3.552   5.205   7.520  1.2652 -0.1166 -0.8536
21649SOL    HW266816   3.558   5.302   7.404  0.7118  1.2922  0.2635
21650SOL     OW66817   8.773   6.595   4.076 -0.6009  0.1023  0.4090
21650SOL    HW166818   8.749   6.686   4.095 -1.7532 -0.3081  1.0050
21650SOL    HW266819   8.776   6.590   3.981  2.6619  1.5306  0.2969
21651SOL     OW66820   6.553   8.565   6.398 -0.1287  0.1246  0.1599
21651SOL    HW166821   6.642   8.529   6.390 -0.0208  0.7158 -1.9521
21651SOL    HW266822   6.567   8.657   6.423 -0.3483 -0.6851  3.7475
21652SOL     OW66823   1.487   4.883   4.570 -0.4071 -0.8048 -0.0195
21652SOL    HW166824   1.533   4.803   4.591  0.0028 -0.8837 -1.1270
21652SOL    HW266825   1.549   4.934   4.518 -1.0498 -0.2664 -0.2831
21653SOL     OW66826   3.542   2.388   4.565  0.8129  0.0442 -0.0813
21653SOL    HW166827   3.508   2.444   4.495 -0.2598 -3.1828 -2.4073
21653SOL    HW266828   3.609   2.335   4.522  1.4177 -0.8174  1.8268
21654SOL     OW66829   0.028   7.553   6.082 -0.2772  0.2500 -0.6561
21654SOL    HW166830   0.021   7.471   6.131 -0.6998  0.9513  0.4969
21654SOL    HW266831   0.097   7.602   6.127 -0.5842  0.8585 -0.8375
21655SOL     OW66832   7.114   0.415   5.043 -0.0209 -0.1754  1.1127
21655SOL    HW166833   7.033   0.389   5.087  1.1429 -2.3072  2.1129
21655SOL    HW266834   7.144   0.336   4.998 -0.1646  1.4209 -2.0745
21656SOL     OW66835   4.723   6.547   6.867 -0.5166 -0.2253 -0.0683
21656SOL    HW166836   4.686   6.593   6.792  1.5667  0.0757 -0.9845
21656SOL    HW266837   4.679   6.586   6.943 -0.9604  1.1597 -0.9942
21657SOL     OW66838   6.577   5.210   6.041 -0.1635  0.5156  0.3071
21657SOL    HW166839   6.547   5.251   6.122  2.0903  2.0436  0.4698
21657SOL    HW266840   6.540   5.264   5.972 -1.5358 -0.3947  0.2850
21658SOL     OW66841   3.937   6.288   7.927 -0.0404 -0.4355  0.3559
21658SOL    HW166842   3.919   6.233   8.003 -0.8883  1.2545  1.4560
21658SOL    HW266843   3.855   6.336   7.912  1.0748  1.6006  0.4093
21659SOL     OW66844   6.287   3.171   5.766  0.2944 -0.6275  0.2853
21659SOL    HW166845   6.266   3.169   5.673  0.7423 -1.1962  0.1880
21659SOL    HW266846   6.286   3.079   5.793 -0.0370 -0.4513  0.8895
21660SOL     OW66847   4.707   7.382   5.243  0.2010  0.9242 -0.2538
21660SOL    HW166848   4.627   7.383   5.190  1.1052  0.4448 -1.6724
21660SOL    HW266849   4.726   7.289   5.257  0.2459  1.0411  0.5180
21661SOL     OW66850   2.502   6.682   7.706 -0.0315  0.0918  0.1501
21661SOL    HW166851   2.500   6.623   7.630  3.4041 -2.2358  1.6064
21661SOL    HW266852   2.562   6.751   7.681 -0.4774  0.4594  0.0784
21662SOL     OW66853   0.004   3.480   5.394 -0.3745 -0.4295 -0.1259
21662SOL    HW166854  -0.022   3.394   5.362  0.8987 -0.3774 -1.3561
21662SOL    HW266855   0.029   3.529   5.316 -0.0169  0.6997  0.6661
21663SOL     OW66856   5.250   0.166   3.074 -0.0596  0.0541  0.3861
21663SOL    HW166857   5.202   0.204   3.001  2.0386  1.3012 -0.4296
21663SOL    HW266858   5.286   0.084   3.040  0.6007  0.4468  0.1280
21664SOL     OW66859   1.755   1.010   1.721 -0.2778 -0.3398 -0.1793
21664SOL    HW166860   1.811   1.025   1.797  0.8887 -1.2431 -0.8141
21664SOL    HW266861   1.792   1.065   1.652 -2.2639  1.6958  0.2448
21665SOL     OW66862   6.300   1.303   7.964 -0.1551  0.2063 -0.6243
21665SOL    HW166863   6.312   1.294   8.058  0.3907  3.0220 -0.3488
21665SOL    HW266864   6.205   1.298   7.952 -0.1540 -3.3481 -0.4575
21666SOL     OW66865   7.339   8.384   5.942 -0.0331  0.1254 -0.2548
21666SOL    HW166866   7.385   8.468   5.940 -2.4242  1.5411  0.4297
21666SOL    HW266867   7.345   8.352   5.852  1.2175  0.8148 -0.4530
21667SOL     OW66868   7.264   7.625   3.779  0.3477 -0.0567  0.0285
21667SOL    HW166869   7.199   7.611   3.710 -0.6877 -1.3726  1.2118
21667SOL    HW266870   7.340   7.659   3.732 -0.0674 -1.5272 -1.8912
21668SOL     OW66871   7.306   5.125   3.346 -0.2953  0.2120 -0.6910
21668SOL    HW166872   7.269   5.110   3.433 -0.9272 -0.8250 -1.1184
21668SOL    HW266873   7.256   5.198   3.311  0.1138  0.7841 -0.1038
21669SOL     OW66874   6.592   1.106   4.197  0.0438 -0.0681  0.0216
21669SOL    HW166875   6.600   1.196   4.167 -0.2252 -0.4257 -1.2104
21669SOL    HW266876   6.512   1.104   4.249 -1.0835  0.0046 -1.6369
21670SOL     OW66877   1.356   2.304   1.806 -0.2572  0.0243  0.0610
21670SOL    HW166878   1.386   2.220   1.841 -0.0358  0.1139  0.0915
21670SOL    HW266879   1.332   2.285   1.716 -0.9622 -0.2376  0.2967
21671SOL     OW66880   6.167   6.337   7.466  0.1831 -0.3548  0.3708
21671SOL    HW166881   6.151   6.281   7.390 -0.1053  0.3628 -0.1045
21671SOL    HW266882   6.080   6.352   7.503  0.2922 -0.4753  0.6744
21672SOL     OW66883   5.302   2.263   5.843  0.4515  0.0846 -0.0736
21672SOL    HW166884   5.256   2.319   5.906  0.2303 -0.0273 -0.1336
21672SOL    HW266885   5.361   2.210   5.896 -2.1118 -2.4359  0.4806
21673SOL     OW66886   5.165   3.542   7.151  0.0386  0.1067 -0.4120
21673SOL    HW166887   5.079   3.582   7.163  0.7536  1.7066 -0.4220
21673SOL    HW266888   5.217   3.607   7.104  1.1303 -1.0082 -0.8260
21674SOL     OW66889   0.455   4.463   7.752  0.9352  1.0073 -0.3871
21674SOL    HW166890   0.424   4.544   7.713  1.4242  2.1726  1.4915
21674SOL    HW266891   0.484   4.488   7.840  0.2522 -1.3546  0.6086
21675SOL     OW66892   4.421   1.065   6.817 -0.1741  0.3712 -0.7261
21675SOL    HW166893   4.461   1.140   6.773 -0.2137  0.9909  0.2502
21675SOL    HW266894   4.330   1.091   6.831  0.0013  0.4949  0.3236
21676SOL     OW66895   3.323   3.196   1.182  0.1426 -0.7626  0.1021
21676SOL    HW166896   3.269   3.152   1.247 -0.2938  0.0591  0.3008
21676SOL    HW266897   3.307   3.289   1.195 -0.4629 -0.5850 -1.5904
21677SOL     OW66898   0.908   1.885   0.693 -0.5776  0.0348  0.1614
21677SOL    HW166899   0.907   1.859   0.785 -0.0635 -0.8723 -0.0834
21677SOL    HW266900   0.853   1.821   0.649  0.5278 -0.5535 -0.4112
21678SOL     OW66901   3.817   8.455   6.377  0.1752  0.4043  0.1611
21678SOL    HW166902   3.812   8.370   6.333 -0.8248  1.5303 -2.0754
21678SOL    HW266903   3.750   8.451   6.446  0.5978 -0.8209  0.5180
21679SOL     OW66904   1.470   3.403   1.028 -0.4207 -0.0667  0.0977
21679SOL    HW166905   1.443   3.479   0.975  0.6311  0.0443 -0.2868
21679SOL    HW266906   1.565   3.407   1.030 -0.4080 -0.5827  1.2698
21680SOL     OW66907   3.751   5.431   3.985 -0.0602 -0.5657  0.4762
21680SOL    HW166908   3.796   5.409   3.904 -2.6625 -1.5186 -0.8315
21680SOL    HW266909   3.806   5.498   4.026  1.6215 -0.4555 -1.7769
21681SOL     OW66910   0.930   4.741   5.274 -0.3603  0.4482  0.7530
21681SOL    HW166911   0.996   4.756   5.207 -0.5484 -2.1453 -0.1279
21681SOL    HW266912   0.857   4.799   5.250 -0.4908 -0.5409 -1.4270
21682SOL     OW66913   6.641   7.348   5.471 -0.1898  0.2589 -0.5535
21682SOL    HW166914   6.732   7.327   5.493 -0.4081 -1.3100 -1.0239
21682SOL    HW266915   6.589   7.282   5.516 -1.1223  1.1851 -0.2319
21683SOL     OW66916   2.186   8.617   6.109 -0.1492 -0.1126 -0.5706
21683SOL    HW166917   2.222   8.700   6.140  1.1278 -0.4938 -0.9553
21683SOL    HW266918   2.156   8.635   6.020  3.0055 -0.7155 -1.9110
21684SOL     OW66919   3.961   4.024   3.047  0.2795 -0.7735 -0.0026
21684SOL    HW166920   4.005   4.066   2.973 -0.3390 -1.2337 -0.6486
21684SOL    HW266921   3.870   4.015   3.018 -0.0644 -0.6024  0.9749
21685SOL     OW66922   1.328   0.748   6.004 -0.8003 -0.1940 -0.4917
21685SOL    HW166923   1.390   0.704   5.947 -1.1915 -1.3536 -0.0439
21685SOL    HW266924   1.258   0.684   6.018 -1.2468  0.4592  0.3969
21686SOL     OW66925   1.359   8.164   1.499  0.1718  0.2337 -0.3247
21686SOL    HW166926   1.379   8.232   1.434 -0.5051  0.2945 -0.4719
21686SOL    HW266927   1.275   8.127   1.471 -0.8738  1.2401  1.2929
21687SOL     OW66928   5.847   1.944   5.707 -0.0503  0.1646  0.2591
21687SOL    HW166929   5.904   1.898   5.646  0.6532  0.6896  0.5096
21687SOL    HW266930   5.784   1.877   5.736  2.0321 -1.2041  1.9999
21688SOL     OW66931   0.125   4.518   3.985 -0.1244  0.3773  0.1816
21688SOL    HW166932   0.188   4.585   3.957 -0.6678  0.1131 -1.8394
21688SOL    HW266933   0.150   4.497   4.075  1.2700  1.8842  0.1820
21689SOL     OW66934   7.469   7.619   6.792  0.0869  0.5257 -0.1057
21689SOL    HW166935   7.494   7.705   6.825 -3.1441  0.6983  2.4787
21689SOL    HW266936   7.438   7.635   6.703  0.1147  1.9236  0.1198
21690SOL     OW66937   7.604   0.431   3.509 -0.0978  0.3802 -0.0977
21690SOL    HW166938   7.654   0.352   3.529 -1.0225 -0.4184 -0.8273
21690SOL    HW266939   7.667   0.502   3.518  0.7814 -0.4439  0.4718
21691SOL     OW66940   5.540   8.395   4.105 -0.1350 -0.6987  0.0469
21691SOL    HW166941   5.606   8.411   4.172 -1.4575  0.6602  1.0957
21691SOL    HW266942   5.457   8.399   4.153 -1.1587  0.8390 -1.7526
21692SOL     OW66943   6.526   3.280   7.481  0.0847 -0.2962 -0.0881
21692SOL    HW166944   6.611   3.312   7.511 -0.2110  0.3796  0.0296
21692SOL    HW266945   6.538   3.185   7.476  1.8208 -0.0354 -3.0591
21693SOL     OW66946   8.325   7.113   6.355  0.6521 -0.1751  0.1215
21693SOL    HW166947   8.385   7.071   6.417  0.1658 -1.0728  0.0145
21693SOL    HW266948   8.295   7.192   6.400  1.6391  0.0988  0.3126
21694SOL     OW66949   5.026   6.442   7.508  0.4737 -0.2777  0.3056
21694SOL    HW166950   5.004   6.528   7.543  0.9728 -0.0995  0.2017
21694SOL    HW266951   4.944   6.394   7.507  0.0059  0.5185 -0.5383
21695SOL     OW66952   1.663   2.313   5.710  0.4139 -0.7185 -0.2413
21695SOL    HW166953   1.695   2.320   5.800 -2.0109 -0.0714  0.6590
21695SOL    HW266954   1.602   2.240   5.712 -0.7603  0.2050 -0.9700
21696SOL     OW66955   7.842   5.361   7.851  0.4064  0.5620  0.1688
21696SOL    HW166956   7.899   5.356   7.927  0.3910  0.2904  0.1619
21696SOL    HW266957   7.785   5.285   7.858  0.4070  0.5350 -0.1160
21697SOL     OW66958   8.431   7.184   3.877  0.7595  0.1095  0.0469
21697SOL    HW166959   8.377   7.234   3.938  0.5933 -2.6742  2.3533
21697SOL    HW266960   8.380   7.182   3.796 -0.2530  1.6624  0.5964
21698SOL     OW66961   4.752   7.519   6.874  0.0198 -0.5239  0.6500
21698SOL    HW166962   4.834   7.515   6.825 -0.3436 -1.0585  0.0758
21698SOL    HW266963   4.778   7.511   6.965  0.6599 -0.0449  0.5145
21699SOL     OW66964   3.162   1.833   8.994  0.0501  0.3012  0.1864
21699SOL    HW166965   3.190   1.879   8.914  0.3339 -1.0504 -0.5174
21699SOL    HW266966   3.214   1.753   8.995 -1.1899 -0.5225  0.8238
21700SOL     OW66967   4.587   5.345   6.631 -0.2263  0.6708  0.0750
21700SOL    HW166968   4.647   5.408   6.591 -0.6876  0.4113 -1.0615
21700SOL    HW266969   4.593   5.363   6.725  1.6269  0.6575  0.0064
21701SOL     OW66970   7.273   7.607   5.668 -0.3176  0.6223  0.5563
21701SOL    HW166971   7.311   7.678   5.719 -1.2489  1.3934  0.1973
21701SOL    HW266972   7.265   7.643   5.579  0.4881 -0.4028  0.0445
21702SOL     OW66973   0.696   3.485   4.559  0.3593  0.1357  0.4558
21702SOL    HW166974   0.782   3.473   4.597  0.3072 -1.0349  0.2337
21702SOL    HW266975   0.635   3.453   4.626 -0.0067  2.1187  1.1296
21703SOL     OW66976   3.411   6.308   1.737 -0.0913 -0.5999  0.1327
21703SOL    HW166977   3.381   6.348   1.819  0.0710  0.1350 -0.1587
21703SOL    HW266978   3.331   6.288   1.689 -0.1745  1.0208 -0.4857
21704SOL     OW66979   1.436   7.650   5.585  0.1660 -0.0761  0.5686
21704SOL    HW166980   1.529   7.630   5.591 -0.1637 -1.3943  2.2032
21704SOL    HW266981   1.417   7.647   5.491  1.5530 -0.8847  0.2826
21705SOL     OW66982   6.456   0.302   1.272  0.0006  0.3727 -0.1182
21705SOL    HW166983   6.445   0.208   1.254 -1.6448  0.4499  0.2690
21705SOL    HW266984   6.549   0.318   1.259  0.4501 -1.4505  0.4608
21706SOL     OW66985   0.828   2.795   3.972 -0.5415 -0.2494 -0.2323
21706SOL    HW166986   0.756   2.739   3.944 -0.1248 -0.0037 -1.9267
21706SOL    HW266987   0.901   2.772   3.914  0.7329 -0.4131  1.3529
21707SOL     OW66988   1.186   2.741   4.291 -0.5290 -0.3045 -0.4234
21707SOL    HW166989   1.126   2.673   4.323  0.5143 -1.9628 -1.7983
21707SOL    HW266990   1.194   2.724   4.197 -0.3390  1.8546 -0.8410
21708SOL     OW66991   1.688   4.735   3.126 -0.2971  0.4062  0.3313
21708SOL    HW166992   1.782   4.749   3.112 -0.4154  1.1272  0.2452
21708SOL    HW266993   1.650   4.742   3.039 -0.7068  2.3568  0.6260
21709SOL     OW66994   3.286   8.490   6.502  0.0322 -0.1094 -0.4487
21709SOL    HW166995   3.297   8.408   6.454  0.8065  0.1748 -0.7691
21709SOL    HW266996   3.283   8.558   6.434  0.8995  0.2741 -0.1149
21710SOL     OW66997   4.845   4.591   5.839 -0.1927  0.1279 -0.0681
21710SOL    HW166998   4.930   4.603   5.796  0.1561 -2.1074 -0.0972
21710SOL    HW266999   4.838   4.497   5.854 -1.4017  0.5353  2.5627
21711SOL     OW67000   0.199   6.624   7.567  0.0010 -0.1911  0.4328
21711SOL    HW167001   0.224   6.620   7.475  0.2319  2.7400  0.2543
21711SOL    HW267002   0.107   6.649   7.566  0.0833  0.1520  0.9664
21712SOL     OW67003   7.855   7.729   2.852 -0.0596 -0.0892 -0.4477
21712SOL    HW167004   7.779   7.672   2.835 -0.4079  0.2997 -0.2125
21712SOL    HW267005   7.844   7.803   2.793 -0.4640  0.5124  0.3511
21713SOL     OW67006   6.977   1.326   1.187 -0.6735 -0.6716 -0.2455
21713SOL    HW167007   6.888   1.360   1.198 -1.0322 -1.8127  0.5454
21713SOL    HW267008   6.969   1.232   1.206  0.1298 -1.4028 -3.1339
21714SOL     OW67009   8.597   3.990   2.091 -0.3684 -0.5901  0.2127
21714SOL    HW167010   8.553   3.931   2.152 -0.3710 -1.5533 -0.6965
21714SOL    HW267011   8.690   3.982   2.112 -0.4838  0.3667  1.1874
21715SOL     OW67012   8.292   2.310   8.547  0.0395 -0.3071 -1.0618
21715SOL    HW167013   8.238   2.289   8.624 -2.5934  1.9895 -2.1152
21715SOL    HW267014   8.273   2.239   8.485 -0.7531 -0.2438 -0.9061
21716SOL     OW67015   8.654   5.116   4.164  0.2910 -0.1075  0.1932
21716SOL    HW167016   8.606   5.196   4.186  2.0652  1.0297  0.1348
21716SOL    HW267017   8.670   5.074   4.248 -0.2821 -0.2126  0.2594
21717SOL     OW67018   3.445   0.840   8.005  0.4715  0.2722  0.1032
21717SOL    HW167019   3.492   0.838   7.922 -0.0666 -0.1943 -0.1980
21717SOL    HW267020   3.418   0.749   8.019  0.8131  0.2831  0.9405
21718SOL     OW67021   3.865   0.006   0.639  0.3602  0.4523 -0.2930
21718SOL    HW167022   3.869  -0.028   0.549  0.8307  0.5603 -0.3177
21718SOL    HW267023   3.925   0.080   0.638  1.9816 -0.8019  0.6529
21719SOL     OW67024   0.254   3.896   7.621 -0.0104 -0.1143  0.5380
21719SOL    HW167025   0.222   3.907   7.532  0.4629 -0.0416  0.3729
21719SOL    HW267026   0.176   3.878   7.673 -0.3764  0.5222  0.2259
21720SOL     OW67027   4.208   1.569   2.710  0.6385 -0.0035  0.2028
21720SOL    HW167028   4.153   1.632   2.664  0.7713  1.4149  1.9070
21720SOL    HW267029   4.203   1.594   2.802  0.9240 -2.3292  0.9253
21721SOL     OW67030   8.402   5.422   7.177  0.2375  0.6741  0.4048
21721SOL    HW167031   8.478   5.480   7.181 -1.0923  2.5413 -0.0595
21721SOL    HW267032   8.330   5.473   7.214 -1.5281  0.2617 -2.1338
21722SOL     OW67033   1.695   7.677   7.688 -0.2103  0.9113 -0.3385
21722SOL    HW167034   1.732   7.591   7.668  0.4049  1.1984 -0.4522
21722SOL    HW267035   1.771   7.733   7.704 -0.5696  1.6587 -1.1472
21723SOL     OW67036   6.438   1.563   5.824 -0.2472  0.0989 -0.0982
21723SOL    HW167037   6.483   1.618   5.888  0.1923  0.2172 -0.4996
21723SOL    HW267038   6.471   1.475   5.841 -0.6605  0.0171  0.2929
21724SOL     OW67039   7.426   4.131   4.706 -0.2858  0.2805  0.3789
21724SOL    HW167040   7.391   4.193   4.642 -0.3951 -1.0556 -0.9099
21724SOL    HW267041   7.510   4.104   4.670 -0.4512 -0.6613  0.6682
21725SOL     OW67042   4.299   8.252   3.345  0.4948  0.3005 -0.0230
21725SOL    HW167043   4.216   8.288   3.376 -0.5588 -0.6239 -1.6248
21725SOL    HW267044   4.356   8.252   3.422 -0.9383  1.0756  1.0802
21726SOL     OW67045   1.971   2.024   6.473  0.5688 -0.1407 -0.4699
21726SOL    HW167046   1.896   1.995   6.422  0.5901  0.0447 -0.6069
21726SOL    HW267047   1.945   2.010   6.564  0.8085 -1.1437 -0.5515
21727SOL     OW67048   7.124   5.183   6.073 -0.1524 -0.1731  0.2539
21727SOL    HW167049   7.029   5.182   6.063 -0.1364  0.6355 -0.0312
21727SOL    HW267050   7.141   5.257   6.131  0.2762 -0.5641  0.6295
21728SOL     OW67051   3.836   7.869   7.943 -0.7775 -0.0416 -0.2664
21728SOL    HW167052   3.853   7.783   7.982 -0.6641 -0.1502 -0.5507
21728SOL    HW267053   3.749   7.893   7.974 -0.0281  0.6498  1.4355
21729SOL     OW67054   5.194   2.382   0.554  0.5912  0.1079 -0.2441
21729SOL    HW167055   5.119   2.441   0.559 -1.3153 -2.1896  0.2310
21729SOL    HW267056   5.270   2.438   0.569 -1.1890  2.1701  1.9933
21730SOL     OW67057   8.099   5.709   4.927 -0.7173  0.1159 -0.0126
21730SOL    HW167058   8.135   5.627   4.891 -2.1052 -2.4106  3.7316
21730SOL    HW267059   8.173   5.748   4.974 -0.6997 -0.4832  0.4725
21731SOL     OW67060   5.512   2.079   0.654 -0.4624 -0.2639  0.6211
21731SOL    HW167061   5.582   2.083   0.720 -1.2123 -1.2296  1.5132
21731SOL    HW267062   5.483   2.169   0.644  0.0076 -0.0350  1.2358
21732SOL     OW67063   1.814   2.595   1.130 -0.0900 -0.7299 -0.4412
21732SOL    HW167064   1.908   2.617   1.128  0.0071 -0.7202  1.7608
21732SOL    HW267065   1.771   2.669   1.086  0.7164  0.8737  1.3344
21733SOL     OW67066   1.742   2.848   3.112 -0.0616 -0.2729 -0.2555
21733SOL    HW167067   1.657   2.857   3.069  0.6369 -0.1664 -1.6601
21733SOL    HW267068   1.805   2.841   3.040  1.0893 -0.7070  0.7554
21734SOL     OW67069   7.556   0.857   3.818 -0.0676  0.5955  0.4124
21734SOL    HW167070   7.599   0.936   3.788 -1.5290  1.7800  1.2890
21734SOL    HW267071   7.596   0.838   3.903  0.5188  0.1874  0.0489
21735SOL     OW67072   3.015   3.132   2.306 -0.5088 -0.5012 -0.3006
21735SOL    HW167073   2.936   3.081   2.324 -1.1091  0.5881  0.2306
21735SOL    HW267074   2.983   3.212   2.264 -0.0291  1.3067  2.5366
21736SOL     OW67075   3.927   5.417   2.330 -0.0738 -0.5569 -0.2869
21736SOL    HW167076   3.953   5.503   2.364 -1.5292  0.0382 -0.5991
21736SOL    HW267077   3.871   5.437   2.254 -0.9925 -1.7546  0.0418
21737SOL     OW67078   7.794   3.323   7.091 -0.3069 -0.2276  0.2417
21737SOL    HW167079   7.821   3.406   7.131 -1.7198  0.6416 -0.4974
21737SOL    HW267080   7.869   3.265   7.102  0.5150  0.9747  1.2766
21738SOL     OW67081   1.116   4.891   2.676 -0.5013 -0.2687 -0.1763
21738SOL    HW167082   1.075   4.908   2.591 -0.4697 -0.0651 -0.1515
21738SOL    HW267083   1.065   4.819   2.713 -1.5996  0.7374  0.3634
21739SOL     OW67084   3.095   5.890   8.623  0.4479  0.8012  0.1605
21739SOL    HW167085   3.173   5.944   8.623  0.3810  0.8976  0.3304
21739SOL    HW267086   3.032   5.938   8.676  0.6503  0.1682  1.0007
21740SOL     OW67087   4.099   3.459   4.947 -0.0209 -0.1682 -0.0124
21740SOL    HW167088   4.110   3.541   4.900  0.2962 -0.1886  0.0214
21740SOL    HW267089   4.122   3.391   4.883  0.2563 -0.2030  0.1196
21741SOL     OW67090   3.329   1.406   2.339  0.7278  0.3694  0.4607
21741SOL    HW167091   3.404   1.463   2.319  0.3416  0.3484 -1.1849
21741SOL    HW267092   3.353   1.363   2.421  2.5451  0.3528 -0.0331
21742SOL     OW67093   6.348   0.954   2.690  0.3075 -0.0448  0.0385
21742SOL    HW167094   6.352   1.039   2.733 -0.5675 -0.0539  0.1612
21742SOL    HW267095   6.329   0.893   2.761 -3.2161  0.1853 -0.5577
21743SOL     OW67096   7.804   6.569   1.258  0.1156  0.7033  0.3444
21743SOL    HW167097   7.887   6.611   1.279 -0.5214  1.6979  0.9636
21743SOL    HW267098   7.826   6.503   1.193  1.5076  0.4078  1.0798
21744SOL     OW67099   7.898   3.872   0.578 -0.0909 -0.0711 -0.1300
21744SOL    HW167100   7.988   3.841   0.586  0.4656  1.3011 -0.7970
21744SOL    HW267101   7.849   3.821   0.643  1.2641 -0.4350  0.6371
21745SOL     OW67102   0.215   3.998   0.039 -0.0505 -0.0813 -0.4522
21745SOL    HW167103   0.181   4.058   0.105 -0.0154 -0.6626  0.1045
21745SOL    HW267104   0.278   4.051  -0.010 -0.5375  0.5355 -0.4349
21746SOL     OW67105   1.592   5.583   4.971 -0.5091 -0.4971 -0.4140
21746SOL    HW167106   1.499   5.605   4.971 -0.5870 -0.8150 -0.6731
21746SOL    HW267107   1.602   5.521   4.898  0.4014  1.5660 -2.1338
21747SOL     OW67108   1.045   6.415   3.335  0.7200 -0.2467  0.0869
21747SOL    HW167109   1.118   6.361   3.365 -0.9353 -2.3543  0.5498
21747SOL    HW267110   1.006   6.366   3.262 -0.6346  0.4418  0.3045
21748SOL     OW67111   3.859   8.432   8.838 -1.0241 -0.2712  1.0000
21748SOL    HW167112   3.949   8.421   8.868 -0.3056  1.6456 -0.2469
21748SOL    HW267113   3.809   8.449   8.918  0.2421  1.4203  1.4785
21749SOL     OW67114   4.963   6.812   4.868  0.7012 -0.3139 -0.1318
21749SOL    HW167115   4.979   6.905   4.884  0.5541 -0.4380  0.8212
21749SOL    HW267116   4.874   6.808   4.834  0.4009 -0.1711  0.6226
21750SOL     OW67117   1.946   8.781   5.101 -0.2672  0.1791 -0.4997
21750SOL    HW167118   1.953   8.859   5.046  0.2386 -0.3285 -1.1682
21750SOL    HW267119   1.893   8.809   5.175 -1.8320  0.6068 -1.7262
21751SOL     OW67120   3.895   2.088   4.689 -0.0871 -0.4092  0.2413
21751SOL    HW167121   3.853   2.008   4.719 -1.3727  0.5362  1.0653
21751SOL    HW267122   3.964   2.104   4.754  1.4327 -1.7892 -0.9388
21752SOL     OW67123   4.160   5.452   1.132  0.2230 -0.6690 -0.1031
21752SOL    HW167124   4.166   5.531   1.077  0.0052 -0.1234  0.6526
21752SOL    HW267125   4.090   5.400   1.092  0.7886 -0.7836 -0.9753
21753SOL     OW67126   2.555   0.841   7.341 -0.6911  0.0200 -0.2448
21753SOL    HW167127   2.540   0.770   7.403  0.9524  0.1294  0.3007
21753SOL    HW267128   2.569   0.918   7.396 -0.4008  0.3588 -0.7917
21754SOL     OW67129   3.740   3.493   3.844 -0.1099 -0.7494 -0.4795
21754SOL    HW167130   3.787   3.483   3.761  0.4554 -3.7130  0.0848
21754SOL    HW267131   3.688   3.413   3.851 -1.4465  0.2125  1.2605
21755SOL     OW67132   6.537   1.742   0.755  0.0365  0.1122  0.3501
21755SOL    HW167133   6.448   1.734   0.790 -0.2019 -0.8058 -0.4306
21755SOL    HW267134   6.584   1.668   0.792 -0.0550 -0.5222 -0.7793
21756SOL     OW67135   0.855   7.652   0.244 -0.6688 -0.3351 -0.2408
21756SOL    HW167136   0.944   7.676   0.270 -0.3607  0.2361 -1.7362
21756SOL    HW267137   0.801   7.726   0.271 -0.8499 -1.0243  1.3912
21757SOL     OW67138   6.715   6.413   7.954  0.1003  0.4562  0.0129
21757SOL    HW167139   6.635   6.429   8.004  0.0365  0.3110 -0.0432
21757SOL    HW267140   6.703   6.461   7.873  0.2203  0.7242  0.1524
21758SOL     OW67141   3.572   1.613   4.878 -0.0478  0.2644  1.1235
21758SOL    HW167142   3.619   1.567   4.808  0.4917 -0.8762  2.1968
21758SOL    HW267143   3.611   1.700   4.881  0.8896 -0.1446  0.9338
21759SOL     OW67144   1.474   7.653   1.167 -0.7306 -0.1952 -0.2273
21759SOL    HW167145   1.441   7.742   1.155 -2.5347 -1.0097 -1.7036
21759SOL    HW267146   1.459   7.635   1.260  2.5590  2.0455  0.9376
21760SOL     OW67147   6.579   4.204   1.361 -0.4558 -0.4334  0.0369
21760SOL    HW167148   6.614   4.116   1.372 -0.5267 -0.5244 -0.4485
21760SOL    HW267149   6.518   4.215   1.435 -0.9530 -1.0469 -0.2695
21761SOL     OW67150   2.718   1.733   2.955 -0.0123 -0.1658  0.2498
21761SOL    HW167151   2.672   1.816   2.968 -1.3036 -0.5991 -1.1969
21761SOL    HW267152   2.792   1.754   2.899 -0.7111 -0.0615 -0.6627
21762SOL     OW67153   1.198   4.801   1.066  0.3898 -0.3500  0.0118
21762SOL    HW167154   1.255   4.870   1.101  0.3301 -0.5222  0.4428
21762SOL    HW267155   1.234   4.720   1.101  1.6159 -0.7593 -1.9693
21763SOL     OW67156   8.024   4.494   5.630 -0.0151 -0.6552  0.1434
21763SOL    HW167157   8.019   4.569   5.689 -0.8790 -0.7863  0.2571
21763SOL    HW267158   8.108   4.452   5.651  0.5482  0.3626 -0.0381
21764SOL     OW67159   5.936   7.139   1.362 -0.1732  0.1133  0.7088
21764SOL    HW167160   6.001   7.209   1.365  1.8921 -1.5876 -0.8779
21764SOL    HW267161   5.926   7.120   1.269 -0.6075 -1.7295  1.0975
21765SOL     OW67162   2.997   8.305   4.384  0.1643 -0.3602 -0.8226
21765SOL    HW167163   3.028   8.396   4.383  1.4285 -0.7165  1.0112
21765SOL    HW267164   3.021   8.272   4.471 -1.3568 -2.1019 -0.9877
21766SOL     OW67165   4.744   8.232   3.398  0.5103 -0.4029 -0.5398
21766SOL    HW167166   4.706   8.248   3.312  0.2251  2.1337 -0.0288
21766SOL    HW267167   4.715   8.144   3.421 -1.7556 -0.0911 -1.8633
21767SOL     OW67168   4.978   3.024   4.161  0.1588 -0.1465 -0.4885
21767SOL    HW167169   4.978   2.932   4.186  0.8704  0.0245  0.1633
21767SOL    HW267170   5.056   3.034   4.107 -0.4863 -0.1502 -1.4434
21768SOL     OW67171   0.758   4.688   2.663  0.0978 -0.1133  0.5873
21768SOL    HW167172   0.839   4.731   2.689 -0.7297  1.2663  0.9634
21768SOL    HW267173   0.727   4.644   2.743  0.4841 -0.6920  0.4283
21769SOL     OW67174   7.421   4.026   1.496 -0.1875  0.4958 -0.6896
21769SOL    HW167175   7.493   4.076   1.533 -1.6050  0.7425  1.9578
21769SOL    HW267176   7.421   4.050   1.403  2.1766  1.6009 -0.4786
21770SOL     OW67177   4.666   0.929   6.501 -0.6130 -0.2554 -0.3706
21770SOL    HW167178   4.610   0.852   6.508  0.4883 -0.9551  1.3804
21770SOL    HW267179   4.724   0.910   6.427  0.3443 -1.6398  0.6754
21771SOL     OW67180   0.915   2.830   6.493 -0.1947 -0.0121 -0.0339
21771SOL    HW167181   0.856   2.758   6.516 -0.7345  0.2411 -0.6216
21771SOL    HW267182   0.901   2.844   6.400 -1.5883  2.1840  0.4298
21772SOL     OW67183   3.853   6.428   2.877 -0.2888 -0.4931  0.0720
21772SOL    HW167184   3.829   6.431   2.969  1.3191  1.5041  0.5045
21772SOL    HW267185   3.771   6.409   2.831 -1.4169 -0.0174  1.7941
21773SOL     OW67186   0.463   8.553   6.296  0.0619  0.0811 -0.0209
21773SOL    HW167187   0.455   8.562   6.201  0.9897  1.3690 -0.0012
21773SOL    HW267188   0.520   8.625   6.322 -0.7112  0.1470  1.6069
21774SOL     OW67189   6.696   8.929   2.974 -0.3769 -0.2526  0.2663
21774SOL    HW167190   6.661   8.937   3.063  1.1116  1.1291  0.7519
21774SOL    HW267191   6.683   9.015   2.934 -0.4529 -0.6742 -0.6561
21775SOL     OW67192   0.589   3.449   1.111  0.5900  0.2360  0.2118
21775SOL    HW167193   0.627   3.459   1.198  0.3088 -0.0512  0.3683
21775SOL    HW267194   0.637   3.512   1.056 -0.9535  2.3115  1.1107
21776SOL     OW67195   7.946   5.909   3.092  0.4083  0.2634 -0.1160
21776SOL    HW167196   7.975   5.846   3.158 -0.6893  0.2940  0.4107
21776SOL    HW267197   7.873   5.956   3.133  0.2875  0.9004 -1.0232
21777SOL     OW67198   3.136   3.912   6.005  0.4079  0.1312 -0.2106
21777SOL    HW167199   3.213   3.962   5.978  0.6355 -0.0773  0.0568
21777SOL    HW267200   3.085   3.902   5.924 -0.0414  1.4848 -0.1080
21778SOL     OW67201   8.656   5.905   0.690  0.3633  0.7542 -0.1774
21778SOL    HW167202   8.579   5.850   0.673 -0.5946  2.6062 -2.4697
21778SOL    HW267203   8.675   5.891   0.783 -0.7318 -2.1864 -0.2764
21779SOL     OW67204   2.921   0.273   4.703  0.1081  0.7221  0.2376
21779SOL    HW167205   2.990   0.229   4.654 -1.3599  0.5132 -1.8096
21779SOL    HW267206   2.967   0.334   4.760  1.9892  0.2327 -0.6775
21780SOL     OW67207   1.718   1.096   4.492  0.9855 -0.3007  0.2354
21780SOL    HW167208   1.633   1.138   4.506  0.8776 -0.6452  0.6473
21780SOL    HW267209   1.781   1.153   4.535  0.9377 -0.1603  0.1214
21781SOL     OW67210   3.879   1.003   1.837 -0.0255  0.2017 -0.2984
21781SOL    HW167211   3.902   1.040   1.922 -1.1887  0.9347 -0.2882
21781SOL    HW267212   3.830   0.923   1.858  1.5199 -0.8032 -0.3188
21782SOL     OW67213   4.341   3.449   1.682 -0.1245 -1.0719  0.2601
21782SOL    HW167214   4.413   3.477   1.625 -0.5105 -0.8996 -0.1506
21782SOL    HW267215   4.271   3.426   1.622 -0.8483 -0.0551  0.6790
21783SOL     OW67216   3.663   1.329   1.075 -0.2332 -0.2791  0.0176
21783SOL    HW167217   3.704   1.398   1.126 -0.3187 -0.9623  1.0496
21783SOL    HW267218   3.569   1.340   1.091 -0.2685 -0.4311 -0.0807
21784SOL     OW67219   1.146   2.176   1.260 -0.1919  0.4179 -0.4322
21784SOL    HW167220   1.230   2.222   1.258  1.1170 -1.7965  0.4393
21784SOL    HW267221   1.158   2.101   1.201 -0.9149 -0.9556  1.1029
21785SOL     OW67222   6.929   5.025   5.173 -0.0908 -0.5800  0.1060
21785SOL    HW167223   6.876   5.076   5.234 -0.3880  0.7820 -1.2175
21785SOL    HW267224   7.005   5.082   5.155 -0.1694 -0.8001 -1.0148
21786SOL     OW67225   2.785   1.475   5.232  0.1650 -0.0485 -0.5146
21786SOL    HW167226   2.742   1.420   5.296 -0.9648  1.4582  0.0851
21786SOL    HW267227   2.857   1.517   5.280  1.0879 -1.0346 -0.9935
21787SOL     OW67228   0.776   2.908   0.173 -0.1268  0.1331 -0.2550
21787SOL    HW167229   0.712   2.973   0.145 -0.5083 -0.1724 -0.0921
21787SOL    HW267230   0.726   2.845   0.226  0.2721 -0.1888 -0.2532
21788SOL     OW67231   5.148   0.164   3.816 -0.3642 -0.1892  0.4823
21788SOL    HW167232   5.206   0.238   3.800 -1.0793  0.2751 -0.0208
21788SOL    HW267233   5.174   0.099   3.750  0.2194 -0.3720  0.8835
21789SOL     OW67234   0.927   1.698   7.907 -0.2363 -0.1756  0.3583
21789SOL    HW167235   0.869   1.629   7.873  0.5237 -1.3955  1.4346
21789SOL    HW267236   0.869   1.771   7.926 -0.9503 -0.1487 -1.6595
21790SOL     OW67237   6.489   8.492   8.425 -0.3560 -0.3938 -0.0010
21790SOL    HW167238   6.397   8.494   8.452 -0.5047  0.0806 -0.5334
21790SOL    HW267239   6.486   8.479   8.330  0.1306 -0.4065 -0.0153
21791SOL     OW67240   0.087   8.006   5.762  0.0951  0.1148  0.3728
21791SOL    HW167241   0.064   8.072   5.696 -1.6160 -2.0004 -1.3150
21791SOL    HW267242   0.066   8.047   5.846  0.4195  2.1767 -0.4895
21792SOL     OW67243   0.617   7.770   5.018  0.5325 -0.4104 -0.5927
21792SOL    HW167244   0.574   7.786   4.934  1.5367  1.2859 -0.8228
21792SOL    HW267245   0.624   7.857   5.058 -0.5484 -1.2491  1.5806
21793SOL     OW67246   5.038   3.908   3.953 -0.1952  0.1041 -0.1104
21793SOL    HW167247   5.056   3.859   3.872 -1.2245 -1.0758  0.3474
21793SOL    HW267248   5.103   3.876   4.015  0.6216  1.0403 -0.4488
21794SOL     OW67249   1.671   8.187   0.581  0.6755 -0.3291 -0.3672
21794SOL    HW167250   1.644   8.104   0.542  0.4415 -0.6491  0.4545
21794SOL    HW267251   1.726   8.228   0.514  1.0577 -1.2835 -0.6587
21795SOL     OW67252   7.201   4.042   5.830  0.2338 -0.4667  0.9874
21795SOL    HW167253   7.180   4.117   5.775  1.0961 -0.7531  0.2226
21795SOL    HW267254   7.279   4.068   5.878  0.1641 -0.6400  1.1957
21796SOL     OW67255   8.855   3.257   3.869 -0.0679 -0.3961 -0.1960
21796SOL    HW167256   8.884   3.173   3.834  2.4145  0.7409 -1.0752
21796SOL    HW267257   8.936   3.306   3.884 -1.4263  1.7693  0.5018
21797SOL     OW67258   6.270   6.767   6.589  0.0781  0.1088 -0.1497
21797SOL    HW167259   6.268   6.780   6.684  0.6069 -0.0695 -0.1105
21797SOL    HW267260   6.249   6.853   6.552 -1.6864 -0.1756  0.1296
21798SOL     OW67261   0.919   0.654   8.623  0.0212 -0.2517 -0.0873
21798SOL    HW167262   0.977   0.598   8.571  0.8572 -0.7288  1.3005
21798SOL    HW267263   0.914   0.610   8.708 -0.6148  0.9428  0.5117
21799SOL     OW67264   4.815   4.968   2.876  0.5173  0.1745  0.0878
21799SOL    HW167265   4.808   5.010   2.791 -0.2880  2.7065  1.3048
21799SOL    HW267266   4.728   4.932   2.892  0.6825 -0.3449 -0.1708
21800SOL     OW67267   4.530   3.196   5.591 -0.0943 -0.3069  0.3880
21800SOL    HW167268   4.490   3.179   5.506 -0.8048  1.3903  0.3372
21800SOL    HW267269   4.619   3.164   5.582  0.0925  0.5544 -1.2908
21801SOL     OW67270   2.156   1.429   4.638 -0.7064 -0.0045 -0.1502
21801SOL    HW167271   2.157   1.516   4.598 -0.7621 -0.3198 -0.8439
21801SOL    HW267272   2.087   1.434   4.705 -1.5521  0.1325 -1.0035
21802SOL     OW67273   3.967   6.612   1.008  0.2629 -0.8921  0.1121
21802SOL    HW167274   3.948   6.688   1.062  1.5251 -1.3887  1.3441
21802SOL    HW267275   3.896   6.609   0.944 -1.1629 -0.1034  1.5678
21803SOL     OW67276   1.406   1.500   4.896 -0.0876  0.3013  0.0629
21803SOL    HW167277   1.367   1.552   4.966 -0.9758  0.0218 -0.2139
21803SOL    HW267278   1.381   1.410   4.915  1.6032 -0.0812  0.6435
21804SOL     OW67279   5.349   8.779   7.633  0.3622 -0.4291  0.4404
21804SOL    HW167280   5.302   8.789   7.550 -0.1288  1.7470  0.9036
21804SOL    HW267281   5.435   8.817   7.617  0.4106 -0.3733  0.8087
21805SOL     OW67282   4.059   0.501   5.659  0.7024 -1.0315 -0.2232
21805SOL    HW167283   4.037   0.443   5.732 -0.0911 -3.8075 -2.4714
21805SOL    HW267284   4.148   0.532   5.679  1.2656 -3.2092  1.0410
21806SOL     OW67285   1.540   1.515   1.964 -0.3813  0.7605 -0.3422
21806SOL    HW167286   1.498   1.575   2.026  1.0845 -0.2323  1.7691
21806SOL    HW267287   1.475   1.448   1.948 -0.6316  0.7696  0.5622
21807SOL     OW67288   4.963   0.205   0.802  0.5224 -0.2243 -0.5652
21807SOL    HW167289   4.894   0.169   0.856 -0.2414 -0.0404 -1.3961
21807SOL    HW267290   5.044   0.165   0.836 -0.0249 -0.7338  0.1618
21808SOL     OW67291   8.913   0.453   3.788 -0.2543 -0.3854 -0.2370
21808SOL    HW167292   8.847   0.447   3.719 -0.1737  1.6524 -0.5459
21808SOL    HW267293   8.863   0.455   3.869 -0.5348  0.3227 -0.4220
21809SOL     OW67294   4.983   1.255   7.753  0.6787 -0.2241  0.1421
21809SOL    HW167295   4.899   1.231   7.713  1.7036 -1.1805 -1.5473
21809SOL    HW267296   5.048   1.229   7.688  2.1978  2.7195  0.3188
21810SOL     OW67297   4.269   1.897   3.043  0.0860  0.7675  0.3198
21810SOL    HW167298   4.339   1.831   3.049  0.3774  1.1381  1.2216
21810SOL    HW267299   4.233   1.901   3.132 -0.8003  0.8954 -0.0372
21811SOL     OW67300   2.485   6.230   6.335 -0.3687  0.3984  0.3301
21811SOL    HW167301   2.534   6.264   6.409  1.6669 -1.8227  0.1067
21811SOL    HW267302   2.400   6.206   6.371  0.4083 -0.1766  1.8567
21812SOL     OW67303   4.295   3.167   4.239  0.3521  0.1566  0.1925
21812SOL    HW167304   4.248   3.093   4.201 -0.7218  0.0135  1.7175
21812SOL    HW267305   4.342   3.130   4.314 -0.1442  0.9829  0.9291
21813SOL     OW67306   7.460   8.397   3.619 -0.1890  0.2733 -0.0366
21813SOL    HW167307   7.409   8.403   3.700  0.6904  2.3067  0.4295
21813SOL    HW267308   7.508   8.479   3.615 -0.9834  0.7154 -3.1612
21814SOL     OW67309   5.725   2.687   6.406 -0.1450  0.0678 -0.0631
21814SOL    HW167310   5.679   2.633   6.470 -1.8576  0.3186 -1.0024
21814SOL    HW267311   5.681   2.772   6.411  0.6646  0.5242 -0.5446
21815SOL     OW67312   6.530   4.233   4.373  0.1790 -0.2729 -0.6459
21815SOL    HW167313   6.551   4.213   4.282 -0.6337 -0.7504 -0.7376
21815SOL    HW267314   6.608   4.278   4.406  1.3159 -1.8927 -0.9882
21816SOL     OW67315   5.174   8.577   3.095  0.0555 -0.5925  0.2857
21816SOL    HW167316   5.162   8.523   3.173  0.7415 -0.5295  0.4385
21816SOL    HW267317   5.089   8.617   3.080  0.4305  1.0674  2.2341
21817SOL     OW67318   4.160   3.940   1.932 -0.3842 -0.1651 -0.3501
21817SOL    HW167319   4.184   4.027   1.898  1.0196  0.1488  1.2438
21817SOL    HW267320   4.126   3.893   1.857 -3.5399  2.5169 -0.8319
21818SOL     OW67321   8.240   8.720   2.322  0.2184  0.0259 -0.2198
21818SOL    HW167322   8.281   8.791   2.273 -2.0582  0.9484 -0.9148
21818SOL    HW267323   8.213   8.759   2.404 -0.7588 -0.0995 -0.4706
21819SOL     OW67324   7.176   8.266   7.540  0.0875 -0.1860  0.5028
21819SOL    HW167325   7.223   8.247   7.621 -1.7275  1.1004  1.9710
21819SOL    HW267326   7.098   8.210   7.544 -0.2131  0.1812 -0.1431
21820SOL     OW67327   5.367   4.074   2.671 -0.1953  0.0210 -0.1499
21820SOL    HW167328   5.461   4.087   2.672 -0.4485  2.1376 -0.0489
21820SOL    HW267329   5.356   3.984   2.640  1.8271 -0.1268 -0.5941
21821SOL     OW67330   0.976   6.793   5.736  0.5162 -0.1064  0.2290
21821SOL    HW167331   1.010   6.720   5.787  0.6881 -0.6782 -0.6725
21821SOL    HW267332   0.928   6.752   5.664  0.3491  0.6699 -0.1149
21822SOL     OW67333   7.223   0.884   7.842  0.4923 -0.0386 -0.2205
21822SOL    HW167334   7.184   0.817   7.786 -0.1171  1.5737 -1.8018
21822SOL    HW267335   7.158   0.897   7.912 -0.5602  0.6246 -1.2787
21823SOL     OW67336   1.423   6.047   7.640 -0.4477  0.2503  0.3233
21823SOL    HW167337   1.391   6.121   7.691  0.3342  0.0107  1.1837
21823SOL    HW267338   1.398   5.970   7.691 -1.3980 -0.1065 -0.6443
21824SOL     OW67339   6.242   5.670   8.982  0.4475 -0.4042 -0.0497
21824SOL    HW167340   6.216   5.605   8.917 -1.8946  0.1861  0.2016
21824SOL    HW267341   6.208   5.635   9.065 -0.7595  1.0608  0.1023
21825SOL     OW67342   8.607   4.150   5.830  0.4057  0.5100 -0.1617
21825SOL    HW167343   8.542   4.102   5.779  1.4687 -1.3713  0.1599
21825SOL    HW267344   8.555   4.198   5.895 -0.6614 -1.3577  0.4345
21826SOL     OW67345   3.277   5.174   3.216 -0.4943  0.1942 -0.0800
21826SOL    HW167346   3.310   5.156   3.128 -0.8113 -2.0482  0.1980
21826SOL    HW267347   3.201   5.117   3.225 -2.8705  3.1862  0.3145
21827SOL     OW67348   8.828   5.313   4.175  0.2043 -0.2048 -0.3920
21827SOL    HW167349   8.775   5.233   4.178 -1.3109  0.7671  2.7006
21827SOL    HW267350   8.770   5.379   4.136  0.8838 -0.1926 -1.4279
21828SOL     OW67351   8.493   3.389   3.498  0.4529 -0.2245  0.2276
21828SOL    HW167352   8.548   3.359   3.571  0.0830 -0.4302  0.4198
21828SOL    HW267353   8.477   3.311   3.446  0.4147 -0.1463  0.1207
21829SOL     OW67354   8.195   5.924   8.034  0.3533  0.0322 -0.0197
21829SOL    HW167355   8.285   5.892   8.040  0.1271 -0.6280 -0.0481
21829SOL    HW267356   8.159   5.909   8.122 -0.1563 -1.0481 -0.3870
21830SOL     OW67357   5.671   6.940   3.651  0.0974 -0.2162  0.6952
21830SOL    HW167358   5.616   6.876   3.606  0.0044  0.3311  0.0057
21830SOL    HW267359   5.750   6.891   3.675 -0.3577 -0.8116  0.9947
21831SOL     OW67360   8.433   8.429   1.608  0.4976 -0.1867 -0.0428
21831SOL    HW167361   8.440   8.362   1.540  0.9943 -0.2447  0.0547
21831SOL    HW267362   8.435   8.380   1.690 -1.1645 -0.2024  0.0188
21832SOL     OW67363   4.340   3.723   0.917  0.3416  0.2975  0.4730
21832SOL    HW167364   4.319   3.807   0.958 -1.4669  0.3414 -0.3989
21832SOL    HW267365   4.254   3.682   0.904  0.7867  0.1640 -2.9142
21833SOL     OW67366   1.958   3.082   5.122  0.0353 -0.3707  0.4340
21833SOL    HW167367   1.965   3.053   5.031  1.3940 -1.2559  0.7841
21833SOL    HW267368   2.015   3.158   5.127 -0.0135 -0.3429  0.5631
21834SOL     OW67369   5.414   0.645   6.967 -0.3066 -0.0062 -0.1583
21834SOL    HW167370   5.348   0.627   7.034 -0.5350 -0.1775 -0.4268
21834SOL    HW267371   5.470   0.567   6.966 -0.6923 -0.2812 -0.6179
21835SOL     OW67372   3.962   0.782   7.016 -0.2234  0.0552  0.0396
21835SOL    HW167373   4.009   0.866   7.019  1.9310 -1.0969  0.5554
21835SOL    HW267374   3.932   0.775   6.925  2.0801  0.1417 -0.7906
21836SOL     OW67375   6.941   3.683   1.818  0.3467  0.1526  0.0701
21836SOL    HW167376   6.994   3.610   1.849  1.6844  1.3101  0.6327
21836SOL    HW267377   6.865   3.684   1.875  0.3056 -0.8067  0.0445
21837SOL     OW67378   4.487   3.279   6.262 -0.2216  0.7301  0.0293
21837SOL    HW167379   4.513   3.237   6.180 -0.7887 -0.4505  0.4315
21837SOL    HW267380   4.473   3.371   6.239  1.1744  0.7427 -0.8503
21838SOL     OW67381   5.315   7.023   2.244  0.0394 -0.1898  0.1375
21838SOL    HW167382   5.402   7.047   2.274 -0.2687  2.3233 -0.6932
21838SOL    HW267383   5.274   7.107   2.220 -1.2047 -1.5514 -3.1621
21839SOL     OW67384   7.358   0.778   5.493 -0.4372 -1.1734 -0.2335
21839SOL    HW167385   7.399   0.711   5.439 -0.8086 -0.0369 -1.9951
21839SOL    HW267386   7.427   0.803   5.555  0.6346 -1.2626 -1.3366
21840SOL     OW67387   5.068   3.349   3.953 -0.5808  0.2458  0.2319
21840SOL    HW167388   5.140   3.292   3.977 -0.0359  1.3838  1.4300
21840SOL    HW267389   5.005   3.341   4.025 -1.1611  0.0828 -0.2812
21841SOL     OW67390   5.561   7.890   6.213 -0.7449  0.5910  0.1661
21841SOL    HW167391   5.489   7.844   6.171 -1.3143  0.8416  0.8455
21841SOL    HW267392   5.525   7.919   6.297 -0.6533  2.8869 -0.5232
21842SOL     OW67393   4.238   0.351   4.980  0.2473  0.2467  0.4741
21842SOL    HW167394   4.236   0.350   5.076  0.1305  0.8645  0.4833
21842SOL    HW267395   4.300   0.282   4.957  1.1007  0.8017  1.0313
21843SOL     OW67396   6.949   4.306   7.882 -0.4142  0.1560  0.2748
21843SOL    HW167397   7.021   4.297   7.944  1.3641  1.0862 -1.5199
21843SOL    HW267398   6.907   4.388   7.906  0.4377  0.6518  0.1146
21844SOL     OW67399   6.767   8.581   1.378  0.4201 -0.7103  0.1416
21844SOL    HW167400   6.684   8.564   1.422 -0.0893  2.1520  0.4791
21844SOL    HW267401   6.743   8.602   1.288  0.3988  2.4694  0.7816
21845SOL     OW67402   8.594   3.897   3.712 -0.0020 -0.5548 -0.1933
21845SOL    HW167403   8.546   3.821   3.678 -0.3674  0.0337 -1.0395
21845SOL    HW267404   8.644   3.863   3.786 -1.3376 -1.2965  0.3984
21846SOL     OW67405   8.501   8.388   0.841 -0.2249  0.5511 -0.0651
21846SOL    HW167406   8.558   8.354   0.772  1.9238  0.7600  1.4936
21846SOL    HW267407   8.500   8.482   0.827 -2.4299  0.3557 -1.6512
21847SOL     OW67408   1.093   6.569   7.497 -0.0693  0.0844  0.5011
21847SOL    HW167409   1.061   6.508   7.430 -0.3090  2.7170 -1.9856
21847SOL    HW267410   1.166   6.523   7.538 -1.2849 -2.5033 -0.0264
21848SOL     OW67411   7.080   7.189   1.987 -0.0978 -0.4225  0.5112
21848SOL    HW167412   7.153   7.131   2.006  1.5041  1.5409  0.5807
21848SOL    HW267413   7.042   7.209   2.072 -0.1458 -0.7020  0.5574
21849SOL     OW67414   3.696   7.492   5.617 -0.0297  0.4811 -0.2584
21849SOL    HW167415   3.670   7.410   5.575 -1.9791  0.3648  1.0693
21849SOL    HW267416   3.632   7.556   5.586  0.2312  1.0449  0.3398
21850SOL     OW67417   4.128   5.852   3.343 -0.0035 -0.3326  0.0161
21850SOL    HW167418   4.219   5.864   3.316 -0.4710  1.3416 -0.9697
21850SOL    HW267419   4.109   5.929   3.397 -1.2422  0.1130 -1.0143
21851SOL     OW67420   4.777   8.239   5.449 -0.3406 -0.2982 -0.0786
21851SOL    HW167421   4.859   8.191   5.440 -0.2695 -0.3221  0.5960
21851SOL    HW267422   4.709   8.171   5.446 -0.2105 -0.5501  1.4515
21852SOL     OW67423   8.196   0.224   5.467  0.1160 -0.5936  0.5643
21852SOL    HW167424   8.119   0.247   5.520 -0.5316  0.4763 -0.7712
21852SOL    HW267425   8.245   0.305   5.460  0.8996 -1.0557  0.6493
21853SOL     OW67426   2.534   5.132   7.262 -0.2001 -0.0473  0.4618
21853SOL    HW167427   2.516   5.202   7.199 -0.9035 -0.5779  0.0516
21853SOL    HW267428   2.591   5.172   7.327  0.6723  0.4780 -0.5944
21854SOL     OW67429   4.574   7.031   3.668 -0.0227 -0.1686  0.0326
21854SOL    HW167430   4.534   7.114   3.640 -0.3467 -0.2915  0.1319
21854SOL    HW267431   4.510   6.991   3.726 -0.5778 -1.2556 -1.2759
21855SOL     OW67432   0.325   4.684   0.162  0.1952  0.4080  0.2585
21855SOL    HW167433   0.362   4.607   0.119  0.2618  0.5952 -0.0202
21855SOL    HW267434   0.401   4.737   0.187  0.2209 -0.3264  1.7941
21856SOL     OW67435   7.491   8.118   8.226  0.0080 -0.2219 -0.3258
21856SOL    HW167436   7.547   8.189   8.257 -0.8868 -0.4351  1.9141
21856SOL    HW267437   7.548   8.041   8.224 -0.1042 -0.4269  1.8715
21857SOL     OW67438   0.482   4.513   5.110  0.0095  0.3342 -0.5259
21857SOL    HW167439   0.393   4.532   5.082 -0.4625 -0.0121  0.6904
21857SOL    HW267440   0.505   4.584   5.169  0.6829  0.6025 -1.0919
21858SOL     OW67441   0.463   4.210   2.222 -1.0174  0.2739 -0.2515
21858SOL    HW167442   0.432   4.141   2.163 -0.3676  0.7165 -1.1416
21858SOL    HW267443   0.517   4.266   2.166  0.3656  0.2132  0.9772
21859SOL     OW67444   6.999   0.335   4.598  0.3020  0.5126  0.3586
21859SOL    HW167445   7.018   0.425   4.571  0.2959  0.9903  1.8856
21859SOL    HW267446   7.085   0.293   4.602  0.5462  1.0974  1.8010
21860SOL     OW67447   6.780   4.381   8.785  0.0332  1.1334  0.1699
21860SOL    HW167448   6.875   4.391   8.797  0.1904  1.5579 -1.2242
21860SOL    HW267449   6.752   4.464   8.745 -1.1313  1.4468  1.5411
21861SOL     OW67450   1.116   0.072   7.440  0.4456  0.3077  0.4825
21861SOL    HW167451   1.127   0.163   7.467 -0.5297  0.3255  0.8859
21861SOL    HW267452   1.051   0.076   7.369 -1.4616 -0.2473  2.0943
21862SOL     OW67453   2.743   5.725   1.443 -0.0639  0.7160 -0.1817
21862SOL    HW167454   2.795   5.654   1.405 -0.5541  0.0143  0.4213
21862SOL    HW267455   2.794   5.753   1.519 -0.8121 -0.3919  0.7760
21863SOL     OW67456   5.149   7.661   7.522 -0.0153 -0.0509 -0.5144
21863SOL    HW167457   5.080   7.662   7.455 -2.6087  0.4628  1.9986
21863SOL    HW267458   5.106   7.691   7.602  3.0262 -0.2832  1.3630
21864SOL     OW67459   3.682   5.978   7.762 -0.7386  0.3250  0.0484
21864SOL    HW167460   3.669   6.007   7.852 -1.6600  0.3191 -0.0680
21864SOL    HW267461   3.594   5.980   7.724 -0.6879 -1.6767 -0.2626
21865SOL     OW67462   1.357   1.817   4.340  0.0892 -0.6767 -0.8803
21865SOL    HW167463   1.401   1.824   4.425  1.6076 -1.2945 -1.5633
21865SOL    HW267464   1.308   1.899   4.331  0.5906 -0.2349  0.2250
21866SOL     OW67465   8.078   1.577   8.130 -0.0279 -0.3678 -0.1154
21866SOL    HW167466   8.088   1.526   8.049  0.1316  2.3014 -1.8834
21866SOL    HW267467   8.002   1.633   8.113 -1.3464 -1.2025  2.4847
21867SOL     OW67468   7.429   7.291   6.716 -0.5691 -0.5674  0.0832
21867SOL    HW167469   7.430   7.384   6.694  0.7217 -1.1501 -2.8083
21867SOL    HW267470   7.506   7.279   6.772 -1.7162  0.3206  1.9432
21868SOL     OW67471   0.215   4.674   0.420 -0.3526  0.1367  0.1228
21868SOL    HW167472   0.234   4.694   0.329  0.9327 -0.2368  0.2809
21868SOL    HW267473   0.275   4.729   0.470  0.4075 -1.1123  0.6628
21869SOL     OW67474   2.850   5.312   0.643  0.1397  0.3907 -0.1899
21869SOL    HW167475   2.760   5.313   0.609 -0.0366 -0.5226  0.2504
21869SOL    HW267476   2.904   5.292   0.566 -0.0955  0.1562 -0.2931
21870SOL     OW67477   5.148   7.201   5.911  0.4516 -0.2136 -0.1783
21870SOL    HW167478   5.151   7.153   5.994 -0.6608  1.3154  0.8036
21870SOL    HW267479   5.144   7.293   5.937 -0.7595  0.2685 -1.9086
21871SOL     OW67480   5.969   8.979   0.897  0.3362 -0.2965 -0.4818
21871SOL    HW167481   5.954   9.058   0.845 -0.2199 -0.2182 -0.2088
21871SOL    HW267482   6.059   8.988   0.928  0.3109  0.1812 -0.5351
21872SOL     OW67483   7.781   6.710   3.059  0.4073 -0.0025  0.4930
21872SOL    HW167484   7.719   6.693   3.130  0.0056  0.3954  0.2508
21872SOL    HW267485   7.732   6.690   2.980  0.3432  0.9901  0.2653
21873SOL     OW67486   2.452   3.074   1.416  0.1535 -0.1520 -0.5484
21873SOL    HW167487   2.442   3.156   1.464 -2.4439 -1.0243  0.5862
21873SOL    HW267488   2.445   3.098   1.324  2.2257  1.1716 -0.4328
21874SOL     OW67489   8.308   2.632   2.656 -0.2215  0.2697  0.3838
21874SOL    HW167490   8.301   2.666   2.567 -0.7253  2.4259  1.1723
21874SOL    HW267491   8.389   2.671   2.690 -0.0594 -0.4962  0.8941
21875SOL     OW67492   6.241   4.803   8.540 -0.3723 -0.2337 -0.6073
21875SOL    HW167493   6.314   4.846   8.496  0.4082 -2.6673 -1.8832
21875SOL    HW267494   6.200   4.872   8.592  1.8787  1.5699 -1.0648
21876SOL     OW67495   2.773   1.301   7.085  0.2471  0.0966  0.2257
21876SOL    HW167496   2.791   1.378   7.137 -2.6145 -0.1666  1.7775
21876SOL    HW267497   2.777   1.228   7.147 -0.3941 -0.5918 -0.5145
21877SOL     OW67498   6.539   2.163   0.577  0.4755 -0.0331  0.0265
21877SOL    HW167499   6.448   2.177   0.549  0.6684  1.3699  0.0123
21877SOL    HW267500   6.584   2.131   0.499  0.3532  0.9606 -0.4778
21878SOL     OW67501   8.329   8.701   5.571 -0.2642  0.6329 -0.0543
21878SOL    HW167502   8.269   8.775   5.576  0.6951  1.3730  1.0371
21878SOL    HW267503   8.341   8.674   5.662  1.0670  0.5369 -0.2385
21879SOL     OW67504   7.869   3.779   6.711 -0.3662 -0.2301  0.2706
21879SOL    HW167505   7.832   3.706   6.761 -1.2647 -0.3195 -0.4916
21879SOL    HW267506   7.795   3.814   6.662  0.3137  0.4148 -0.3154
21880SOL     OW67507   4.717   1.431   0.396 -0.2513  0.2524 -0.4205
21880SOL    HW167508   4.742   1.441   0.488  0.2978  0.8594 -0.6330
21880SOL    HW267509   4.790   1.468   0.346 -0.6535  0.1573 -1.1003
21881SOL     OW67510   0.519   2.538   1.134  0.0589 -0.3703  0.5328
21881SOL    HW167511   0.584   2.481   1.093  0.1474  0.2416 -0.1934
21881SOL    HW267512   0.551   2.548   1.224  1.1854  0.2015  0.0961
21882SOL     OW67513   0.107   2.208   4.015 -0.0164  0.5154  0.3128
21882SOL    HW167514   0.035   2.267   3.993 -0.4208 -0.1914 -0.3071
21882SOL    HW267515   0.167   2.214   3.941 -0.5247 -0.5556 -0.2031
21883SOL     OW67516   5.614   8.496   5.789  0.0643 -0.2213 -0.4546
21883SOL    HW167517   5.524   8.493   5.755  0.0264  0.7654 -0.4688
21883SOL    HW267518   5.620   8.582   5.832  0.3826 -1.0700  1.2928
21884SOL     OW67519   4.474   6.731   2.184  0.3503  0.3544 -0.3462
21884SOL    HW167520   4.479   6.636   2.196  0.7433  0.2747 -1.0577
21884SOL    HW267521   4.399   6.745   2.127  0.2900  0.4735 -0.2396
21885SOL     OW67522   6.496   4.363   4.843 -0.5045 -0.1300  0.1808
21885SOL    HW167523   6.503   4.412   4.925  0.3140  0.0925 -0.0232
21885SOL    HW267524   6.561   4.294   4.851  0.3991  0.5973 -0.7762
21886SOL     OW67525   0.981   4.528   0.865 -0.5729 -0.2926 -0.2927
21886SOL    HW167526   0.926   4.477   0.925 -3.1540  2.2869 -0.2375
21886SOL    HW267527   0.958   4.494   0.778 -0.0332 -1.1670 -0.1078
21887SOL     OW67528   0.916   2.299   0.545 -0.4288  0.0368  0.3969
21887SOL    HW167529   0.944   2.387   0.520 -1.0423  0.5429  1.4336
21887SOL    HW267530   0.965   2.279   0.625 -1.5794  0.1672  1.1603
21888SOL     OW67531   8.997   4.575   7.353  0.8047 -0.1737 -0.5690
21888SOL    HW167532   8.923   4.635   7.350  0.2954 -0.5037  2.4714
21888SOL    HW267533   8.973   4.504   7.293 -0.7549  0.3070 -0.5511
21889SOL     OW67534   7.803   1.788   7.503  0.2756  0.7472  0.3799
21889SOL    HW167535   7.867   1.726   7.471  0.8533  1.0244  0.9715
21889SOL    HW267536   7.823   1.870   7.457  0.8976  1.0577  1.1644
21890SOL     OW67537   7.298   1.880   3.905 -0.0140  0.5195  0.5131
21890SOL    HW167538   7.349   1.909   3.830  0.4486  0.2167  0.7060
21890SOL    HW267539   7.209   1.910   3.887 -0.8200 -2.8480 -2.0250
21891SOL     OW67540   1.237   1.563   1.869  0.2667  0.0482  0.4941
21891SOL    HW167541   1.299   1.581   1.797 -0.3653 -1.6015 -0.5139
21891SOL    HW267542   1.234   1.468   1.875  0.3055  0.1359  2.7687
21892SOL     OW67543   2.071   6.734   2.734  0.1446 -0.3994  0.5123
21892SOL    HW167544   2.059   6.789   2.811 -0.2224  0.4419 -0.1279
21892SOL    HW267545   2.079   6.796   2.661  1.8761 -1.1253  0.0315
21893SOL     OW67546   6.865   3.643   2.318 -0.2345 -0.4618 -0.5001
21893SOL    HW167547   6.790   3.650   2.260  0.6135  2.8642 -1.3722
21893SOL    HW267548   6.853   3.712   2.383  0.7362 -1.6599  1.0353
21894SOL     OW67549   6.245   2.660   5.817 -0.0182  0.4020 -0.3636
21894SOL    HW167550   6.225   2.664   5.910  0.0185  3.3124 -0.3982
21894SOL    HW267551   6.298   2.581   5.807  0.7245  0.5010  2.2223
21895SOL     OW67552   6.308   4.852   1.201  0.1956  0.5429 -0.1702
21895SOL    HW167553   6.318   4.939   1.239  0.8361  1.5266 -2.3799
21895SOL    HW267554   6.398   4.820   1.189 -0.0428 -1.0069  1.7449
21896SOL     OW67555   8.610   4.666   1.599 -0.6718  0.0147 -0.4113
21896SOL    HW167556   8.677   4.612   1.640  1.1800  2.1097 -0.5129
21896SOL    HW267557   8.642   4.681   1.510  0.2563  3.3084  0.3489
21897SOL     OW67558   2.626   7.097   2.357 -0.7093  0.4145  0.9290
21897SOL    HW167559   2.562   7.165   2.377 -0.8539  0.6116 -0.1231
21897SOL    HW267560   2.711   7.138   2.376 -0.8070  0.8349  0.5042
21898SOL     OW67561   3.455   1.213   5.042  0.5901  0.0798 -0.2701
21898SOL    HW167562   3.433   1.157   5.117 -0.3603  0.7648 -0.0251
21898SOL    HW267563   3.467   1.300   5.080  1.1586  0.2230 -0.7726
21899SOL     OW67564   7.626   1.855   8.126 -0.2173  0.0216 -0.4792
21899SOL    HW167565   7.665   1.816   8.204 -0.6965 -0.0769 -0.2919
21899SOL    HW267566   7.701   1.874   8.070  0.2796  1.3805  0.5808
21900SOL     OW67567   7.752   5.149   6.834 -0.0319 -0.1569 -0.3945
21900SOL    HW167568   7.836   5.105   6.823 -0.3606 -1.1265  0.8010
21900SOL    HW267569   7.750   5.215   6.765  1.6500 -0.2145 -0.5257
21901SOL     OW67570   5.579   7.262   2.956 -0.3533  0.2133 -0.9027
21901SOL    HW167571   5.503   7.289   3.007 -0.9262 -0.9549 -1.1101
21901SOL    HW267572   5.637   7.220   3.020  1.0924  2.8741 -0.3386
21902SOL     OW67573   5.755   7.761   8.417  0.4382  0.0104 -0.0562
21902SOL    HW167574   5.695   7.833   8.433  0.2231  0.7368 -3.4546
21902SOL    HW267575   5.842   7.798   8.431  0.3295  1.0245 -1.8440
21903SOL     OW67576   2.789   2.048   1.644  0.1220  0.0956  0.1659
21903SOL    HW167577   2.780   1.968   1.696 -0.9149 -0.0638 -0.2393
21903SOL    HW267578   2.778   2.020   1.553 -1.7680  0.8742  0.0963
21904SOL     OW67579   5.453   8.211   0.553  0.3435  0.1986  0.0041
21904SOL    HW167580   5.382   8.183   0.495  2.1670 -0.3522 -2.0566
21904SOL    HW267581   5.509   8.134   0.562  1.1722  0.8767  0.8604
21905SOL     OW67582   7.021   2.821   7.289  0.0680 -0.1960 -0.1335
21905SOL    HW167583   6.994   2.824   7.197 -0.2787 -1.4286 -0.1005
21905SOL    HW267584   6.965   2.885   7.333  0.8767  1.0851 -0.9098
21906SOL     OW67585   7.468   0.662   7.978  0.2615 -0.2537 -0.6262
21906SOL    HW167586   7.421   0.720   8.037  0.8026  1.1753 -1.5362
21906SOL    HW267587   7.425   0.577   7.987 -0.7826  0.3733  0.4832
21907SOL     OW67588   6.013   8.108   6.296 -0.1023 -0.1902 -0.0716
21907SOL    HW167589   5.958   8.051   6.241 -1.2091  1.8080 -1.1470
21907SOL    HW267590   5.950   8.160   6.346  0.8812 -1.7562  3.0032
21908SOL     OW67591   8.230   8.216   8.406 -0.2157  0.6478 -0.0573
21908SOL    HW167592   8.189   8.161   8.472  2.8664  0.0144  1.5526
21908SOL    HW267593   8.244   8.157   8.331 -0.0349  0.1832  0.3339
21909SOL     OW67594   8.494   4.861   2.803  0.3775  0.2556  0.1178
21909SOL    HW167595   8.407   4.844   2.837  0.6095 -2.5175 -0.4431
21909SOL    HW267596   8.491   4.830   2.712  1.4245  1.9932 -0.5710
21910SOL     OW67597   7.906   7.392   8.509 -0.1899 -0.4790 -0.4141
21910SOL    HW167598   7.883   7.477   8.546  0.2332 -0.6347  0.2026
21910SOL    HW267599   8.001   7.395   8.497 -0.3902 -0.1209 -2.2638
21911SOL     OW67600   5.271   4.449   4.020  0.3571  0.2411 -0.1648
21911SOL    HW167601   5.217   4.499   3.959 -1.2869 -1.0932  0.1137
21911SOL    HW267602   5.359   4.454   3.984  0.2197  2.9696 -0.3449
21912SOL     OW67603   6.292   8.022   7.213 -0.3389 -0.3167  0.0889
21912SOL    HW167604   6.313   8.049   7.302  0.0612  0.4753 -0.2307
21912SOL    HW267605   6.356   7.954   7.192  1.9415  1.9044 -0.7884
21913SOL     OW67606   5.921   7.317   5.830 -0.5334  0.0690  0.1394
21913SOL    HW167607   5.950   7.229   5.807 -1.5013 -0.1394 -0.3171
21913SOL    HW267608   5.826   7.311   5.835 -0.6116  1.0899  0.1121
21914SOL     OW67609   4.672   1.023   7.075  0.0974  0.0761  0.3264
21914SOL    HW167610   4.598   0.966   7.095  0.6822 -1.5805 -1.9042
21914SOL    HW267611   4.649   1.066   6.993  0.8962  0.8718  0.4977
21915SOL     OW67612   3.048   8.395   2.011  0.0748 -0.0669 -0.0429
21915SOL    HW167613   3.002   8.408   1.929  0.4405  0.1394 -0.2233
21915SOL    HW267614   3.115   8.329   1.991 -0.6673 -0.9661  0.4288
21916SOL     OW67615   6.480   5.827   7.609  0.3238 -0.0562 -0.2639
21916SOL    HW167616   6.420   5.791   7.674  0.7970  1.7423  1.2299
21916SOL    HW267617   6.546   5.758   7.596  0.5028 -0.2684  1.5574
21917SOL     OW67618   0.754   6.702   4.301  0.0829 -0.4607 -0.4876
21917SOL    HW167619   0.765   6.715   4.207  3.0304  1.0065 -0.0436
21917SOL    HW267620   0.749   6.791   4.337 -2.0149 -0.9982  0.7206
21918SOL     OW67621   8.424   3.707   3.547 -0.1334  0.0792 -0.2079
21918SOL    HW167622   8.485   3.690   3.475 -0.3202  0.0352 -0.3568
21918SOL    HW267623   8.359   3.765   3.510  0.1063  0.5483  0.1024
21919SOL     OW67624   2.666   4.939   8.181 -0.1579  0.0762  0.1220
21919SOL    HW167625   2.688   5.025   8.145  1.2884 -0.8671 -1.4035
21919SOL    HW267626   2.690   4.945   8.274  1.9513  0.7109 -0.4048
21920SOL     OW67627   5.039   7.526   4.122 -0.0320 -0.4517  0.1084
21920SOL    HW167628   5.134   7.532   4.137 -0.1542  0.5143  0.5635
21920SOL    HW267629   5.023   7.434   4.106  1.4018 -0.2976 -2.7385
21921SOL     OW67630   8.418   8.113   4.614 -0.2233 -0.7748 -0.3760
21921SOL    HW167631   8.378   8.166   4.544 -1.8952 -0.6142  0.6465
21921SOL    HW267632   8.351   8.047   4.635 -0.5926  0.3326  2.3375
21922SOL     OW67633   5.804   1.307   6.203 -0.4658  0.3595 -0.0956
21922SOL    HW167634   5.778   1.353   6.123 -1.4587  0.3450  0.2060
21922SOL    HW267635   5.876   1.250   6.175 -0.0329  1.1882 -0.7320
21923SOL     OW67636   6.729   1.567   7.617 -0.3811  0.4805  0.0213
21923SOL    HW167637   6.806   1.606   7.659 -0.3035  0.4466 -0.0899
21923SOL    HW267638   6.735   1.474   7.637  0.3351  0.2617 -1.1211
21924SOL     OW67639   1.704   3.814   5.145 -0.1130  0.0577  0.2312
21924SOL    HW167640   1.704   3.826   5.239 -1.4549  1.0440  0.1382
21924SOL    HW267641   1.784   3.857   5.114  0.6842 -0.8676  0.9592
21925SOL     OW67642   8.594   5.823   3.341 -0.0460  0.4312 -0.3071
21925SOL    HW167643   8.676   5.778   3.321 -0.0469  0.5619 -0.6146
21925SOL    HW267644   8.526   5.770   3.297 -0.2351 -0.1847  0.6918
21926SOL     OW67645   2.046   4.768   7.803  0.2037 -0.4178  0.1259
21926SOL    HW167646   2.138   4.747   7.784  0.0505 -1.5425  0.5990
21926SOL    HW267647   2.036   4.859   7.772  1.1028 -0.7373 -1.1852
21927SOL     OW67648   4.270   5.514   8.432 -0.5353  0.4801 -0.0368
21927SOL    HW167649   4.268   5.423   8.461 -0.3217  0.5649  0.2437
21927SOL    HW267650   4.178   5.536   8.416 -0.5154 -0.0650 -0.9786
21928SOL     OW67651   6.303   1.432   0.597  0.2688  0.4049  0.0532
21928SOL    HW167652   6.271   1.418   0.508  0.7509  0.9301 -0.2134
21928SOL    HW267653   6.398   1.426   0.589  0.3849  1.7539  0.2884
21929SOL     OW67654   4.160   7.770   7.357 -0.3274  0.2676  0.0321
21929SOL    HW167655   4.160   7.854   7.312  1.7169  1.1802  1.5867
21929SOL    HW267656   4.067   7.749   7.369 -0.8729  2.3005 -0.3868
21930SOL     OW67657   1.130   6.729   4.578  0.1151  0.2042 -0.1889
21930SOL    HW167658   1.113   6.813   4.535 -0.1217 -0.2140 -0.9440
21930SOL    HW267659   1.169   6.675   4.509  2.1818  0.3235  0.8372
21931SOL     OW67660   2.978   3.828   8.831 -0.6906 -0.1396 -0.0278
21931SOL    HW167661   2.963   3.866   8.744 -0.6619  0.1548  0.0938
21931SOL    HW267662   3.035   3.891   8.875  0.4657 -0.9622 -0.2822
21932SOL     OW67663   6.448   0.327   2.851 -0.1654 -0.1096  0.6299
21932SOL    HW167664   6.413   0.399   2.903  2.4030  0.2004  2.0775
21932SOL    HW267665   6.528   0.301   2.896  1.3668 -0.9138 -2.2980
21933SOL     OW67666   1.482   6.821   1.739 -0.0620  0.2386 -0.8281
21933SOL    HW167667   1.480   6.743   1.795  4.2407  0.6582  0.2713
21933SOL    HW267668   1.424   6.883   1.783 -0.3673 -0.9922  0.6018
21934SOL     OW67669   1.033   7.928   2.018  0.0055  0.0026 -0.2457
21934SOL    HW167670   1.101   7.989   1.987 -1.7182  2.3832  0.3770
21934SOL    HW267671   1.001   7.885   1.939  1.7731 -0.7554 -0.6155
21935SOL     OW67672   4.598   4.990   8.604  0.0598  0.5496  0.0275
21935SOL    HW167673   4.639   5.002   8.689  1.2693  1.2658 -0.6289
21935SOL    HW267674   4.615   4.898   8.581 -0.3144  0.3422  0.5687
21936SOL     OW67675   3.773   6.298   5.624  0.2725  0.3403 -0.1688
21936SOL    HW167676   3.707   6.366   5.608  0.5875  1.2852  2.0569
21936SOL    HW267677   3.853   6.332   5.582 -0.1399  0.1623 -1.1225
21937SOL     OW67678   3.621   6.764   1.315 -0.0120  0.5492  0.1976
21937SOL    HW167679   3.713   6.740   1.328 -0.0491  0.3565  0.1021
21937SOL    HW267680   3.571   6.697   1.362 -0.0898  0.9459  0.6884
21938SOL     OW67681   7.221   2.369   8.964 -0.1347  0.0959  0.1596
21938SOL    HW167682   7.211   2.349   8.871  1.3226  1.4399 -0.3473
21938SOL    HW267683   7.284   2.304   8.996 -0.1415  0.0353  0.0491
21939SOL     OW67684   4.779   2.231   3.648  0.2836 -0.5948 -0.0556
21939SOL    HW167685   4.760   2.162   3.585  0.8025 -0.0519 -0.8231
21939SOL    HW267686   4.693   2.265   3.673  0.1086  0.3015 -1.7472
21940SOL     OW67687   2.290   5.293   6.614 -0.2803 -0.6083 -0.3571
21940SOL    HW167688   2.262   5.254   6.532 -0.5078  1.5990 -1.3973
21940SOL    HW267689   2.208   5.324   6.654  0.0493  0.4118 -0.4545
21941SOL     OW67690   8.330   7.279   6.622 -0.0325 -0.1593  0.5730
21941SOL    HW167691   8.283   7.218   6.680 -1.4311 -0.0765 -0.4130
21941SOL    HW267692   8.408   7.232   6.595 -0.5344 -1.0942  0.7135
21942SOL     OW67693   8.054   4.366   3.833  0.2367 -0.1140 -0.2489
21942SOL    HW167694   8.021   4.360   3.923  0.0866 -0.0954 -0.3032
21942SOL    HW267695   8.105   4.448   3.832 -2.2985  1.5634 -0.9887
21943SOL     OW67696   2.435   5.004   1.145 -0.1615 -0.4319 -0.5512
21943SOL    HW167697   2.470   5.091   1.123 -1.9873  0.3823 -0.4221
21943SOL    HW267698   2.501   4.966   1.203 -0.2670  1.7819  1.1645
21944SOL     OW67699   6.669   6.613   8.521 -0.3884 -0.1908 -0.4687
21944SOL    HW167700   6.742   6.647   8.469  1.4176 -0.9820  1.4164
21944SOL    HW267701   6.652   6.527   8.482 -1.0475  0.4004 -1.5500
21945SOL     OW67702   0.191   3.851   1.175  0.4499 -0.1490 -0.1961
21945SOL    HW167703   0.141   3.791   1.229  0.7638  0.1772  0.4662
21945SOL    HW267704   0.282   3.824   1.186  0.5802  0.3509 -0.0044
21946SOL     OW67705   3.209   8.792   4.764 -0.0974 -0.1838 -0.3402
21946SOL    HW167706   3.233   8.782   4.672 -0.7397  1.6072 -0.7525
21946SOL    HW267707   3.210   8.887   4.779 -1.2794 -0.3594  1.1435
21947SOL     OW67708   1.924   1.742   1.723 -0.0844  0.1932  0.7251
21947SOL    HW167709   1.894   1.814   1.668  0.4995  0.7966  1.1946
21947SOL    HW267710   1.853   1.677   1.717 -0.5913  0.7760  0.2647
21948SOL     OW67711   7.447   0.670   8.471 -0.6394 -0.2559  0.1443
21948SOL    HW167712   7.504   0.672   8.548 -0.6976 -0.6746  0.1990
21948SOL    HW267713   7.367   0.627   8.502 -1.2369  0.8719  0.2349
21949SOL     OW67714   8.093   2.685   4.296  0.0133 -0.1455 -0.2572
21949SOL    HW167715   8.120   2.721   4.211 -0.8431 -0.5417 -0.7179
21949SOL    HW267716   8.065   2.596   4.275  0.7883 -0.6165  0.6280
21950SOL     OW67717   5.213   8.717   8.716  0.0181 -0.6484  0.2275
21950SOL    HW167718   5.126   8.679   8.709 -0.6514  0.7101  0.8239
21950SOL    HW267719   5.229   8.725   8.810  1.3898 -2.1293  0.1772
21951SOL     OW67720   5.263   4.398   1.177 -0.0411  0.3209 -0.2650
21951SOL    HW167721   5.355   4.370   1.173 -0.2227 -0.2209 -0.7851
21951SOL    HW267722   5.229   4.356   1.256  0.0713  0.2454 -0.2556
21952SOL     OW67723   1.745   2.055   2.723 -0.2567 -0.0052  0.9328
21952SOL    HW167724   1.708   2.143   2.717  0.9078  0.4180 -1.0008
21952SOL    HW267725   1.826   2.067   2.773  2.1296  0.9731 -2.7272
21953SOL     OW67726   4.958   4.957   1.114 -0.5010  0.1277 -0.1289
21953SOL    HW167727   4.880   4.932   1.066 -1.1552 -1.8782  1.8280
21953SOL    HW267728   4.991   4.876   1.152  2.3386  0.9753 -0.5526
21954SOL     OW67729   5.520   8.281   5.283  0.1318 -0.6503  0.2730
21954SOL    HW167730   5.567   8.313   5.206 -0.5799  0.0727  0.1225
21954SOL    HW267731   5.457   8.351   5.303 -0.5480 -1.3855  0.7541
21955SOL     OW67732   8.422   1.748   7.167 -0.6017 -0.4245  0.3171
21955SOL    HW167733   8.512   1.727   7.141 -1.2482 -2.4722 -0.3975
21955SOL    HW267734   8.408   1.699   7.248 -0.9684  0.1894  0.6354
21956SOL     OW67735   1.645   7.436   8.635  0.0856 -0.4723  0.5128
21956SOL    HW167736   1.580   7.367   8.646 -0.3621 -0.1525 -0.0979
21956SOL    HW267737   1.604   7.514   8.671 -0.4686  0.0587 -1.1563
21957SOL     OW67738   1.461   8.063   1.855 -0.0825  0.4543  0.7045
21957SOL    HW167739   1.488   7.974   1.879 -0.9949 -0.3956 -1.2049
21957SOL    HW267740   1.507   8.081   1.772 -2.0041  0.6237 -0.3849
21958SOL     OW67741   4.929   0.234   8.425 -0.2734  0.1186 -0.0655
21958SOL    HW167742   4.890   0.318   8.448  0.3567  0.5355 -0.5068
21958SOL    HW267743   5.022   0.252   8.417 -0.3166 -0.2591 -1.7389
21959SOL     OW67744   8.038   1.043   4.106  0.6211  0.1638  0.1890
21959SOL    HW167745   8.050   1.120   4.050 -2.1711  0.7821  0.2957
21959SOL    HW267746   7.973   0.990   4.060  1.7304 -1.6746  0.6325
21960SOL     OW67747   6.440   2.606   6.912 -0.0137  0.0436 -0.4108
21960SOL    HW167748   6.386   2.567   6.981 -1.2866  1.0737 -0.7809
21960SOL    HW267749   6.529   2.599   6.945 -0.4245 -1.0457  0.5546
21961SOL     OW67750   1.930   8.281   8.995  0.3330  0.4839  0.0794
21961SOL    HW167751   1.853   8.266   9.050  0.8281  1.7667  1.1676
21961SOL    HW267752   1.991   8.211   9.020 -0.1821 -0.0817 -0.2351
21962SOL     OW67753   3.862   6.301   0.337  0.8113  0.3311 -0.4590
21962SOL    HW167754   3.800   6.273   0.404  0.1344  0.4798 -1.0127
21962SOL    HW267755   3.939   6.245   0.350  0.0732 -0.7185 -0.5697
21963SOL     OW67756   1.585   4.162   8.408  0.4738 -0.5203 -0.4664
21963SOL    HW167757   1.637   4.083   8.421 -0.3332 -1.0044 -0.0841
21963SOL    HW267758   1.606   4.189   8.318 -1.1005 -2.6159 -1.5763
21964SOL     OW67759   2.236   6.416   8.038  0.1658  0.2363  0.2728
21964SOL    HW167760   2.282   6.335   8.017  0.1249 -0.1017  1.4312
21964SOL    HW267761   2.281   6.483   7.987  1.4556 -0.2094  0.7775
21965SOL     OW67762   8.207   7.755   0.292 -0.9171  0.1037 -0.2061
21965SOL    HW167763   8.200   7.743   0.387  0.8672 -0.1866 -0.0746
21965SOL    HW267764   8.212   7.667   0.256 -1.1851  0.2216 -0.5401
21966SOL     OW67765   0.871   5.274   2.805 -0.1558  0.2227  0.0280
21966SOL    HW167766   0.878   5.179   2.810 -0.1571  0.2792  1.8178
21966SOL    HW267767   0.923   5.298   2.728  0.1949 -1.1744 -0.2022
21967SOL     OW67768   0.416   8.290   6.268 -0.7612  0.0912 -0.0345
21967SOL    HW167769   0.450   8.376   6.295 -1.8870  0.3764  0.5093
21967SOL    HW267770   0.474   8.264   6.196  1.2046  0.1216  1.4372
21968SOL     OW67771   2.579   5.357   2.917  0.1860  0.2993  0.0452
21968SOL    HW167772   2.605   5.405   2.996  1.4024  0.9275 -0.7060
21968SOL    HW267773   2.503   5.306   2.944  0.6452  0.4087  1.6533
21969SOL     OW67774   4.686   5.844   6.202  0.0282  1.0737  0.0160
21969SOL    HW167775   4.677   5.939   6.202 -0.3430  1.0567 -1.5428
21969SOL    HW267776   4.603   5.812   6.237 -0.2968  1.2884 -0.5604
21970SOL     OW67777   6.755   2.308   3.827 -0.6963  0.0306 -0.5660
21970SOL    HW167778   6.743   2.360   3.906  0.2185 -1.6093  0.7233
21970SOL    HW267779   6.802   2.366   3.767  1.2245  0.4111  1.1941
21971SOL     OW67780   0.533   5.256   4.207 -0.2375 -0.1476  0.1345
21971SOL    HW167781   0.506   5.208   4.129  2.0644 -1.5199  0.0988
21971SOL    HW267782   0.613   5.212   4.237  1.2785  2.8399  0.8864
21972SOL     OW67783   8.572   1.586   8.977  0.2090 -0.3923 -0.1076
21972SOL    HW167784   8.638   1.520   8.997 -0.0108 -0.5598  0.0675
21972SOL    HW267785   8.575   1.647   9.051 -1.3884 -1.6251  1.0480
21973SOL     OW67786   4.216   7.033   1.171  0.1584  0.9447  0.3127
21973SOL    HW167787   4.309   7.050   1.158  0.4840 -0.6915  0.2059
21973SOL    HW267788   4.172   7.082   1.102  1.0438  0.7871 -0.3725
21974SOL     OW67789   1.923   6.109   0.553 -0.0288  0.1779 -0.0309
21974SOL    HW167790   1.995   6.045   0.551  1.4556  1.7706 -0.2305
21974SOL    HW267791   1.906   6.123   0.646  0.5990  0.4945  0.0415
21975SOL     OW67792   4.218   0.691   3.517  0.3628 -0.4403  0.4141
21975SOL    HW167793   4.140   0.736   3.551 -0.1389 -3.0035  3.0755
21975SOL    HW267794   4.288   0.717   3.577  0.5398 -1.4694  0.6693
21976SOL     OW67795   3.158   2.600   8.129 -0.2622  0.1561 -0.0034
21976SOL    HW167796   3.156   2.672   8.193 -3.2467 -0.6540  0.9602
21976SOL    HW267797   3.073   2.603   8.086  0.6425 -1.0592 -2.0576
21977SOL     OW67798   7.905   6.357   1.086 -0.4496 -0.4954  0.0081
21977SOL    HW167799   7.867   6.275   1.117  0.6180 -1.3397 -0.8274
21977SOL    HW267800   7.894   6.355   0.991  1.9261 -0.9499 -0.3144
21978SOL     OW67801   6.323   2.726   2.536  0.3815  0.8440  0.2491
21978SOL    HW167802   6.231   2.748   2.526 -0.4747 -2.8616 -2.1919
21978SOL    HW267803   6.328   2.684   2.622 -0.9899 -1.5090 -0.7157
21979SOL     OW67804   3.312   8.417   7.242 -0.3348 -0.0419  0.1928
21979SOL    HW167805   3.304   8.342   7.301  0.4106  1.1262  1.8525
21979SOL    HW267806   3.251   8.397   7.171 -0.9632 -1.7103  1.1212
21980SOL     OW67807   8.753   4.851   1.345 -0.2112  0.3975  0.2310
21980SOL    HW167808   8.662   4.880   1.344  0.3492  2.2456 -0.6540
21980SOL    HW267809   8.804   4.928   1.320  1.4457 -1.1007 -1.3438
21981SOL     OW67810   4.154   5.329   6.094  0.2898  0.1819 -0.4647
21981SOL    HW167811   4.154   5.391   6.167 -1.3703 -0.0871 -0.1838
21981SOL    HW267812   4.184   5.246   6.132 -0.9086 -0.0481  0.0451
21982SOL     OW67813   3.667   8.172   0.530 -0.7836 -0.1686  0.1277
21982SOL    HW167814   3.760   8.177   0.508 -0.7462  0.3344  0.3971
21982SOL    HW267815   3.636   8.262   0.525 -1.4381 -0.4254 -0.7080
21983SOL     OW67816   5.741   4.025   0.130 -0.8547 -0.0611  0.5128
21983SOL    HW167817   5.761   3.931   0.133 -1.5763 -0.2051  1.3543
21983SOL    HW267818   5.754   4.049   0.039 -1.3223 -1.1366  0.1364
21984SOL     OW67819   8.792   6.597   4.451 -0.3190  0.1540  0.2490
21984SOL    HW167820   8.851   6.649   4.397 -0.2957  1.1127  1.1626
21984SOL    HW267821   8.764   6.525   4.394  2.2203 -0.7222 -0.0378
21985SOL     OW67822   0.219   4.180   8.344 -0.0208  0.0981  0.1486
21985SOL    HW167823   0.142   4.126   8.357  0.5137 -0.3548  1.6230
21985SOL    HW267824   0.227   4.189   8.249 -0.8491 -1.3256 -0.0717
21986SOL     OW67825   6.409   1.786   5.227  0.1057 -0.7390 -0.2357
21986SOL    HW167826   6.469   1.759   5.296 -1.5819 -0.9411  1.2167
21986SOL    HW267827   6.428   1.879   5.214 -1.2789  0.0265  2.4404
21987SOL     OW67828   2.404   1.803   6.041  0.1475  0.5172 -0.2567
21987SOL    HW167829   2.435   1.894   6.048 -0.3917  0.6353  0.7468
21987SOL    HW267830   2.467   1.753   6.093 -0.3108  0.5091  0.2987
21988SOL     OW67831   3.266   3.386   6.807 -0.1580 -0.3568  0.0261
21988SOL    HW167832   3.198   3.364   6.870 -0.5116  0.9380  0.1303
21988SOL    HW267833   3.227   3.364   6.722 -0.5808  0.0625  0.1081
21989SOL     OW67834   7.048   3.579   1.233 -0.2388  0.2140 -0.5084
21989SOL    HW167835   6.953   3.568   1.225 -0.5424  1.0736  1.3929
21989SOL    HW267836   7.084   3.511   1.176 -1.9793  0.1043 -1.5613
21990SOL     OW67837   5.276   5.437   8.250  0.6055  0.5382  0.9001
21990SOL    HW167838   5.280   5.436   8.155  1.3075  0.6792  0.9207
21990SOL    HW267839   5.233   5.520   8.272  0.5105  0.5390  0.7083
21991SOL     OW67840   6.992   8.774   4.390 -0.4826 -0.1673  0.0884
21991SOL    HW167841   6.903   8.759   4.423  0.0003 -0.8294  1.1401
21991SOL    HW267842   7.044   8.792   4.468  0.5539 -1.0097 -0.3857
21992SOL     OW67843   4.066   4.740   1.795  0.6269  0.4711 -0.1574
21992SOL    HW167844   4.112   4.731   1.711  0.4976  0.1010 -0.1895
21992SOL    HW267845   3.974   4.727   1.773  0.7899 -1.9610  0.3887
21993SOL     OW67846   2.848   4.173   3.699 -0.1752  0.2085 -0.4044
21993SOL    HW167847   2.860   4.255   3.747 -0.0230 -0.5327  0.8800
21993SOL    HW267848   2.890   4.107   3.755 -1.0964 -0.8797 -0.9673
21994SOL     OW67849   1.364   3.861   8.687  0.1664  0.1322 -0.7656
21994SOL    HW167850   1.295   3.795   8.693  0.7993 -0.5938 -1.1904
21994SOL    HW267851   1.369   3.899   8.775  0.6369 -1.2784 -0.1516
21995SOL     OW67852   2.404   2.119   5.024  0.4094 -0.1592  0.7002
21995SOL    HW167853   2.322   2.135   5.071  0.2344  0.0251  0.3334
21995SOL    HW267854   2.414   2.024   5.026  1.1446 -0.0897  2.3625
21996SOL     OW67855   4.875   0.368   4.770 -0.2330 -0.3314  0.2130
21996SOL    HW167856   4.822   0.357   4.692 -1.8908  0.4226  1.1801
21996SOL    HW267857   4.839   0.304   4.832  0.8563 -0.7054  0.4813
21997SOL     OW67858   1.266   2.263   0.847  0.7915 -0.2122 -0.0293
21997SOL    HW167859   1.310   2.185   0.813 -0.2890  0.0991 -2.3098
21997SOL    HW267860   1.337   2.321   0.875  1.7255 -0.7753 -1.1830
21998SOL     OW67861   7.664   8.494   3.240 -0.0213  0.1809  0.6382
21998SOL    HW167862   7.731   8.476   3.174 -0.3375  1.2689 -0.0089
21998SOL    HW267863   7.631   8.581   3.217  0.3062  0.8816  2.6132
21999SOL     OW67864   2.730   1.518   7.504 -0.7659 -0.1477 -0.9688
21999SOL    HW167865   2.673   1.442   7.514  0.7470 -1.3459 -1.0502
21999SOL    HW267866   2.797   1.489   7.442 -0.6642  1.5815 -1.7207
22000SOL     OW67867   1.865   8.624   6.812  0.3315  0.8235 -0.0232
22000SOL    HW167868   1.842   8.644   6.903  1.0826  3.1140 -0.2558
22000SOL    HW267869   1.798   8.670   6.760 -0.3690 -0.8520 -0.6599
22001SOL     OW67870   8.041   2.276   7.190  0.5882 -0.2431  0.9113
22001SOL    HW167871   8.056   2.289   7.096  0.7892  0.5762  1.0470
22001SOL    HW267872   8.074   2.188   7.208 -0.3819 -0.8113  0.0191
22002SOL     OW67873   8.288   4.662   7.356 -0.2686 -0.7525 -0.2579
22002SOL    HW167874   8.244   4.580   7.376 -1.3588 -0.2517 -0.5551
22002SOL    HW267875   8.326   4.647   7.269  0.2623 -1.2221  0.0466
22003SOL     OW67876   4.793   0.836   1.042 -0.1856 -0.3929 -0.1991
22003SOL    HW167877   4.722   0.893   1.015 -0.1684 -1.2105 -2.1293
22003SOL    HW267878   4.751   0.751   1.058  0.2728 -0.7657 -0.9177
22004SOL     OW67879   8.460   5.858   4.785 -0.4041  0.0861 -0.2887
22004SOL    HW167880   8.464   5.789   4.851  2.1234  0.5759  0.1602
22004SOL    HW267881   8.453   5.811   4.702 -0.0981 -0.6723  0.1004
22005SOL     OW67882   0.548   1.770   2.902 -0.2702 -0.2445 -0.3484
22005SOL    HW167883   0.477   1.752   2.965  0.3407 -0.9387  0.1673
22005SOL    HW267884   0.582   1.855   2.928  1.2456 -1.3569  1.5342
22006SOL     OW67885   3.490   4.882   5.091 -0.3235 -0.5362  0.5803
22006SOL    HW167886   3.479   4.853   5.000  1.8143  0.9458 -0.2269
22006SOL    HW267887   3.440   4.963   5.096  0.2661 -0.1697  0.4849
22007SOL     OW67888   7.955   0.336   1.566  0.7854 -0.4275 -0.4192
22007SOL    HW167889   7.931   0.424   1.594 -0.2828 -1.0988  0.9015
22007SOL    HW267890   7.958   0.285   1.647 -3.1726 -2.6529 -1.3866
22008SOL     OW67891   7.663   2.469   1.118  0.1994  0.3704  0.8665
22008SOL    HW167892   7.708   2.409   1.178  1.5085  0.5858  0.1378
22008SOL    HW267893   7.635   2.413   1.045 -1.8753  0.0041  1.8569
22009SOL     OW67894   8.707   5.848   8.984 -0.0330  0.4171 -0.0341
22009SOL    HW167895   8.662   5.927   9.014 -1.3340  0.3310 -1.6324
22009SOL    HW267896   8.707   5.854   8.889 -0.2410 -1.5392 -0.2079
22010SOL     OW67897   0.553   5.515   5.758  0.2027 -0.2900  0.4297
22010SOL    HW167898   0.580   5.607   5.754 -1.1216  0.1509  1.0687
22010SOL    HW267899   0.576   5.488   5.847  1.0714 -0.7576  0.0801
22011SOL     OW67900   3.413   5.204   2.503 -0.1925 -0.0612 -0.0928
22011SOL    HW167901   3.433   5.113   2.481  1.8155  0.1346  0.6966
22011SOL    HW267902   3.396   5.246   2.419  3.1807 -0.2509 -1.0157
22012SOL     OW67903   2.654   6.772   0.767  0.1691  0.3180 -0.0121
22012SOL    HW167904   2.636   6.829   0.692 -0.8511 -0.7942 -0.6312
22012SOL    HW267905   2.596   6.804   0.836 -0.9053 -0.3817 -0.5735
22013SOL     OW67906   7.700   4.660   5.176  0.0372  0.2593 -0.0593
22013SOL    HW167907   7.774   4.693   5.125  1.2941  0.2873  1.6903
22013SOL    HW267908   7.737   4.639   5.262 -1.6135 -1.5295  0.2915
22014SOL     OW67909   7.814   8.864   7.761 -0.2530 -0.2808 -0.0130
22014SOL    HW167910   7.777   8.941   7.804 -1.1074  0.0185 -1.2095
22014SOL    HW267911   7.740   8.825   7.714  0.6423 -0.5201 -1.2794
22015SOL     OW67912   4.309   1.371   1.556  0.0403  0.0353  0.5275
22015SOL    HW167913   4.371   1.378   1.483  0.1688  0.1266  0.6441
22015SOL    HW267914   4.239   1.433   1.533 -0.2090 -0.3608  0.2020
22016SOL     OW67915   8.404   7.159   1.339 -0.4381 -0.6671  0.3544
22016SOL    HW167916   8.340   7.102   1.383 -1.0556 -0.3500 -0.1191
22016SOL    HW267917   8.360   7.244   1.333  0.8703  0.1777  1.9855
22017SOL     OW67918   8.339   8.252   1.010  0.1261  1.0990  0.1655
22017SOL    HW167919   8.284   8.194   0.957 -1.8534  1.7702  1.3510
22017SOL    HW267920   8.394   8.297   0.946  0.5412 -0.8425 -0.9222
22018SOL     OW67921   5.489   7.287   4.531 -0.0730 -0.1384  0.5262
22018SOL    HW167922   5.468   7.194   4.516 -0.9404  0.0364  0.6185
22018SOL    HW267923   5.537   7.314   4.453 -1.6704 -0.1104 -0.4788
22019SOL     OW67924   7.952   3.352   6.579  0.1348  0.4142  0.5007
22019SOL    HW167925   7.928   3.268   6.541  2.2743  0.3589 -0.9049
22019SOL    HW267926   7.879   3.375   6.637  0.0440 -2.9993  1.9461
22020SOL     OW67927   2.161   6.961   4.105  0.3358  0.2691 -0.0824
22020SOL    HW167928   2.079   6.934   4.146  0.3641  0.6941  0.2660
22020SOL    HW267929   2.136   7.034   4.048  0.3077 -0.2800 -0.7824
22021SOL     OW67930   1.581   4.251   6.488 -0.5679  0.4140  0.2374
22021SOL    HW167931   1.624   4.282   6.567 -0.4547 -1.1397  0.8229
22021SOL    HW267932   1.638   4.181   6.455 -1.5739 -0.2482 -0.1428
22022SOL     OW67933   3.907   3.833   1.520  0.0995 -0.4376 -0.5760
22022SOL    HW167934   3.929   3.885   1.443 -0.7963 -0.5992 -0.9457
22022SOL    HW267935   3.895   3.744   1.487  0.4490 -0.6610 -0.1285
22023SOL     OW67936   3.706   4.177   5.225 -0.0684  0.0635  0.3714
22023SOL    HW167937   3.747   4.183   5.139 -1.5016 -0.5652 -0.3864
22023SOL    HW267938   3.726   4.261   5.267  0.7608  0.3176 -0.4952
22024SOL     OW67939   2.077   0.261   7.769  0.3281 -0.1736  0.1774
22024SOL    HW167940   2.146   0.313   7.727 -0.5979  1.5714  0.7132
22024SOL    HW267941   1.996   0.302   7.740 -0.4851 -1.6241  0.2935
22025SOL     OW67942   2.726   0.698   2.851  0.0742 -0.0094  0.2840
22025SOL    HW167943   2.729   0.610   2.888  0.3940  0.3836  1.2217
22025SOL    HW267944   2.756   0.755   2.922 -2.4488  1.1309  0.5500
22026SOL     OW67945   7.108   4.284   5.693 -0.0161 -0.6883  0.6855
22026SOL    HW167946   7.170   4.356   5.703  1.7004 -2.2709  1.9335
22026SOL    HW267947   7.043   4.299   5.762  1.2421 -1.1848  2.0287
22027SOL     OW67948   6.366   4.576   5.751  0.1716  0.5359  0.0513
22027SOL    HW167949   6.272   4.595   5.750  0.4576  2.1139 -0.4192
22027SOL    HW267950   6.374   4.495   5.801 -1.3539  0.9257  0.9959
22028SOL     OW67951   1.148   3.749   3.639 -0.0973 -0.1212  0.1117
22028SOL    HW167952   1.131   3.801   3.717 -1.4457  0.3624 -0.4751
22028SOL    HW267953   1.078   3.683   3.639  1.5529 -1.9697  0.8289
22029SOL     OW67954   7.698   8.691   0.606  0.6241 -1.4644 -0.0066
22029SOL    HW167955   7.783   8.725   0.577  0.8495  0.2468  2.3119
22029SOL    HW267956   7.635   8.756   0.576  0.7283 -0.3226  2.0350
22030SOL     OW67957   4.085   7.368   3.254  0.4395 -0.3843 -0.1498
22030SOL    HW167958   4.036   7.286   3.262  0.1404 -0.2898 -0.9449
22030SOL    HW267959   4.018   7.436   3.246  0.6918 -0.0970  0.1503
22031SOL     OW67960   4.777   6.468   1.823  0.0767 -0.0455 -0.7762
22031SOL    HW167961   4.788   6.464   1.728 -0.1087  0.0796 -0.8024
22031SOL    HW267962   4.700   6.415   1.841 -0.2781  0.4711 -0.7629
22032SOL     OW67963   3.198   3.023   7.457 -0.3226  0.1496 -0.0856
22032SOL    HW167964   3.193   3.081   7.382  1.1989  1.6279  0.8799
22032SOL    HW267965   3.243   2.945   7.425  0.4120  0.8137 -0.6927
22033SOL     OW67966   1.522   6.046   0.083  0.8265  0.6570  0.2176
22033SOL    HW167967   1.514   6.036   0.177  0.1807  0.2361  0.1220
22033SOL    HW267968   1.443   6.093   0.056 -0.7134 -2.0953 -0.5185
22034SOL     OW67969   4.364   1.692   5.509 -0.0787 -0.6911 -0.2483
22034SOL    HW167970   4.360   1.708   5.603  0.4134 -0.0236 -0.3410
22034SOL    HW267971   4.278   1.654   5.488  0.5553 -2.9427  0.8359
22035SOL     OW67972   2.929   7.433   6.273  0.2454 -0.0277  0.5832
22035SOL    HW167973   2.939   7.510   6.217  1.4142 -0.4683  0.1475
22035SOL    HW267974   3.008   7.432   6.326 -0.6083  0.0838  1.8879
22036SOL     OW67975   1.941   5.925   4.444  0.2706  0.4301 -0.2051
22036SOL    HW167976   1.888   5.862   4.493 -0.7835  0.9005 -0.7055
22036SOL    HW267977   1.931   5.899   4.353  1.5435  0.0653 -0.2576
22037SOL     OW67978   4.463   3.551   1.268 -0.1456 -0.6752 -0.1584
22037SOL    HW167979   4.398   3.621   1.260 -0.0568 -0.7191 -1.2979
22037SOL    HW267980   4.441   3.489   1.199  2.2412  0.2310 -1.8545
22038SOL     OW67981   7.009   2.911   5.083 -0.2029  0.4184 -0.2665
22038SOL    HW167982   7.029   2.823   5.114 -2.1157 -0.0845 -0.3684
22038SOL    HW267983   7.077   2.929   5.018 -0.6209 -1.5773 -1.3367
22039SOL     OW67984   4.919   4.802   6.829 -0.1353 -0.6607  0.2760
22039SOL    HW167985   4.839   4.844   6.797 -0.1072 -0.8437 -0.0313
22039SOL    HW267986   4.892   4.756   6.908 -1.0450 -3.2879 -1.4206
22040SOL     OW67987   0.149   8.203   4.662  0.6628 -0.5541 -0.0537
22040SOL    HW167988   0.201   8.186   4.584  0.3709 -2.2316  0.0765
22040SOL    HW267989   0.074   8.144   4.655 -1.6785  2.2205 -0.5693
22041SOL     OW67990   1.140   3.918   7.630 -0.2615 -0.5532 -0.2386
22041SOL    HW167991   1.157   3.946   7.720  0.1266  1.2089 -0.8204
22041SOL    HW267992   1.192   3.839   7.620  2.3513  0.9988  0.1396
22042SOL     OW67993   0.006   7.841   0.542  0.7228 -0.3514 -0.2236
22042SOL    HW167994   0.022   7.884   0.626  1.7286 -1.9233  0.4280
22042SOL    HW267995   0.076   7.873   0.485 -0.1892  1.0265 -0.6334
22043SOL     OW67996   5.066   5.994   1.620  0.4024 -0.4411 -0.1805
22043SOL    HW167997   5.135   5.981   1.555 -0.5482  0.5861 -1.4626
22043SOL    HW267998   4.988   5.955   1.581  0.4252 -2.5576  1.7150
22044SOL     OW67999   7.792   1.285   4.580  0.2043  0.0883  0.2307
22044SOL    HW168000   7.782   1.194   4.607  1.8201 -0.1559  0.1252
22044SOL    HW268001   7.878   1.311   4.616  1.5597  0.3650 -2.9190
22045SOL     OW68002   8.855   2.660   5.486 -0.2038  0.4172 -0.0515
22045SOL    HW168003   8.769   2.644   5.446  0.4375  0.8432 -1.7110
22045SOL    HW268004   8.915   2.601   5.439  0.1801 -1.2093  2.3104
22046SOL     OW68005   7.909   7.612   1.572 -0.0547 -0.2148  0.5926
22046SOL    HW168006   7.825   7.565   1.570 -0.1178 -0.1347  1.2648
22046SOL    HW268007   7.921   7.635   1.664 -1.0096  2.8668  0.0704
22047SOL     OW68008   4.323   3.626   7.198 -0.3577  0.8612  0.2412
22047SOL    HW168009   4.265   3.663   7.131 -0.6117  1.2586  0.6743
22047SOL    HW268010   4.284   3.541   7.219  0.5009  0.0939 -1.1113
22048SOL     OW68011   3.715   6.370   3.692  0.2704  0.2808  0.3064
22048SOL    HW168012   3.683   6.413   3.613 -2.0727  0.6597  1.3619
22048SOL    HW268013   3.695   6.277   3.678 -0.6177  0.4147  0.6407
22049SOL     OW68014   7.735   4.712   3.502 -0.2890 -0.4271  0.5403
22049SOL    HW168015   7.729   4.704   3.406  0.6693 -1.1447  0.5245
22049SOL    HW268016   7.826   4.736   3.518 -0.7864  1.1325  1.2070
22050SOL     OW68017   6.354   0.414   6.806  0.1634 -0.1683 -0.1535
22050SOL    HW168018   6.418   0.352   6.770 -0.6395 -0.0625 -1.9127
22050SOL    HW268019   6.271   0.367   6.800  0.0978 -0.5984  2.7996
22051SOL     OW68020   8.859   2.666   4.453 -0.7394 -0.4186  0.2113
22051SOL    HW168021   8.820   2.689   4.369 -1.3717 -1.2003  0.2743
22051SOL    HW268022   8.840   2.741   4.510  1.5797  1.1198 -0.8703
22052SOL     OW68023   3.607   0.400   0.175  0.8482 -0.6625 -0.1496
22052SOL    HW168024   3.646   0.461   0.113 -0.6506  0.0992 -0.3757
22052SOL    HW268025   3.616   0.442   0.260  2.5108 -1.5116  0.1288
22053SOL     OW68026   7.802   2.512   3.505  0.0197  0.1351 -0.0852
22053SOL    HW168027   7.770   2.589   3.457  0.0294  0.6995  0.7853
22053SOL    HW268028   7.763   2.437   3.459 -1.2566  0.7289 -0.0200
22054SOL     OW68029   0.605   4.959   8.260 -0.0569 -0.5519  0.5656
22054SOL    HW168030   0.612   4.965   8.164 -0.5840  4.6693  0.5586
22054SOL    HW268031   0.516   4.929   8.275  0.4604 -2.7786 -0.4797
22055SOL     OW68032   3.645   4.705   5.942 -0.1343 -0.3437 -0.0412
22055SOL    HW168033   3.703   4.678   5.871  0.2064 -2.2052  0.8772
22055SOL    HW268034   3.610   4.623   5.977 -1.1092  0.5837  1.2781
22056SOL     OW68035   4.893   5.583   5.210  0.0569  0.5442  0.2677
22056SOL    HW168036   4.873   5.669   5.245 -1.1640  0.8532 -1.0988
22056SOL    HW268037   4.808   5.543   5.193  0.5967 -0.2112 -0.7977
22057SOL     OW68038   2.294   1.923   2.006 -0.1805  0.4778  1.0749
22057SOL    HW168039   2.236   1.854   2.040 -1.1862  0.6276 -0.2424
22057SOL    HW268040   2.382   1.895   2.031 -0.5461 -1.4112  0.4207
22058SOL     OW68041   3.468   0.826   2.777 -0.2061  0.1592  0.0404
22058SOL    HW168042   3.422   0.903   2.745 -0.2046  0.7656  1.4634
22058SOL    HW268043   3.405   0.782   2.833  0.1960 -0.2353  0.1881
22059SOL     OW68044   7.368   4.158   0.263  0.3570 -0.4110  0.2653
22059SOL    HW168045   7.315   4.125   0.190  0.8530 -0.5710 -0.0301
22059SOL    HW268046   7.344   4.250   0.271 -0.3545 -0.6078  0.4854
22060SOL     OW68047   2.225   5.575   8.309 -0.0555 -0.0679 -0.8234
22060SOL    HW168048   2.177   5.492   8.313 -0.4955  0.1955 -0.4519
22060SOL    HW268049   2.203   5.618   8.392 -0.7226  0.9087 -1.4870
22061SOL     OW68050   1.803   7.568   1.229 -0.2286  0.0174  0.0940
22061SOL    HW168051   1.795   7.596   1.320  1.3636 -1.9636  0.9253
22061SOL    HW268052   1.751   7.487   1.225  1.5831 -1.1954 -0.0642
22062SOL     OW68053   2.152   5.766   1.031 -0.1708  0.2189  0.0593
22062SOL    HW168054   2.221   5.829   1.010  0.0432  0.1460  0.5223
22062SOL    HW268055   2.084   5.819   1.074  1.1398 -0.2099  2.9264
22063SOL     OW68056   6.216   5.392   0.134  0.3886 -0.0375 -0.2972
22063SOL    HW168057   6.188   5.315   0.183 -0.6944  0.1808 -0.5373
22063SOL    HW268058   6.277   5.437   0.192 -0.2829 -0.1842  0.5405
22064SOL     OW68059   6.280   8.317   8.047 -0.5069  0.3041 -0.3357
22064SOL    HW168060   6.224   8.245   8.017 -0.8639  0.7981 -0.8871
22064SOL    HW268061   6.232   8.357   8.118 -0.4406  0.1823 -0.2208
22065SOL     OW68062   3.407   1.986   4.142 -0.2200 -0.1621  0.0366
22065SOL    HW168063   3.468   1.936   4.196 -0.8248 -0.7992  0.1574
22065SOL    HW268064   3.372   2.053   4.200  0.3186  0.1746 -0.0210
22066SOL     OW68065   2.508   1.323   7.554  0.2526 -0.2327 -0.2757
22066SOL    HW168066   2.461   1.395   7.514  0.5784  0.5075  0.6377
22066SOL    HW268067   2.467   1.312   7.640 -0.0737 -1.4210 -0.5637
22067SOL     OW68068   6.111   2.591   4.728 -0.2002  0.0394  0.0394
22067SOL    HW168069   6.186   2.544   4.766  1.5131  0.8325 -2.1552
22067SOL    HW268070   6.116   2.572   4.634 -0.9243  2.5778 -0.5791
22068SOL     OW68071   0.764   3.322   7.275 -0.1792 -0.5340  0.0271
22068SOL    HW168072   0.844   3.338   7.226  0.0017 -0.1765  0.4373
22068SOL    HW268073   0.752   3.227   7.271  0.9175 -0.7340  0.9793
22069SOL     OW68074   0.130   7.151   6.414  0.2044 -0.1636  0.2225
22069SOL    HW168075   0.119   7.131   6.507 -0.6163  1.4902  0.5241
22069SOL    HW268076   0.208   7.103   6.388  2.3362  1.7346  2.5600
22070SOL     OW68077   2.182   3.185   0.352  0.2007  0.1324 -0.2032
22070SOL    HW168078   2.246   3.163   0.284 -1.0056  1.1616 -1.7538
22070SOL    HW268079   2.197   3.277   0.370 -0.5937  0.2990 -0.3384
22071SOL     OW68080   7.313   4.192   5.134  0.1597  0.2333 -0.1901
22071SOL    HW168081   7.349   4.275   5.164 -1.5499  0.8532  0.2351
22071SOL    HW268082   7.219   4.208   5.123 -0.0296 -1.3156 -1.2470
22072SOL     OW68083   2.978   8.721   5.104 -0.0888  0.0175 -0.1368
22072SOL    HW168084   3.008   8.792   5.047  0.3654  0.0215  0.1006
22072SOL    HW268085   2.908   8.678   5.055  2.4817 -2.1238 -2.2705
22073SOL     OW68086   8.234   6.646   2.156  0.2880 -0.0149  0.1232
22073SOL    HW168087   8.329   6.629   2.154  0.6864  1.8693  1.0702
22073SOL    HW268088   8.199   6.581   2.216  1.1538 -0.0262  0.6323
22074SOL     OW68089   8.517   6.929   4.421 -0.3732  0.5424  0.5336
22074SOL    HW168090   8.453   6.902   4.355  0.6837 -1.1428  0.1610
22074SOL    HW268091   8.469   6.926   4.503 -0.3913 -2.5264  0.5271
22075SOL     OW68092   8.010   4.406   0.138  0.2597  0.0224 -0.1920
22075SOL    HW168093   8.033   4.440   0.225 -1.2134 -0.7287  0.5182
22075SOL    HW268094   8.074   4.446   0.080  2.1155 -0.4350  1.4059
22076SOL     OW68095   5.270   2.024   0.811  0.2064 -0.4199 -0.1730
22076SOL    HW168096   5.227   1.947   0.774 -0.1874  0.8470 -2.4859
22076SOL    HW268097   5.313   2.065   0.737  0.4352  1.5859  1.0169
22077SOL     OW68098   6.635   5.197   4.773 -0.3663  0.4438  0.7836
22077SOL    HW168099   6.598   5.117   4.810 -0.1905 -0.7493 -1.4495
22077SOL    HW268100   6.729   5.189   4.786 -0.3669  0.3842  0.7540
22078SOL     OW68101   0.489   2.470   7.168 -0.2866  0.1994 -0.5273
22078SOL    HW168102   0.550   2.501   7.235 -0.5622  1.8333 -0.9834
22078SOL    HW268103   0.483   2.375   7.183  1.2971  0.2009  0.3818
22079SOL     OW68104   0.411   2.295   0.000 -0.4435 -0.2509 -0.3850
22079SOL    HW168105   0.354   2.248   0.061 -2.3602  0.6929 -1.3865
22079SOL    HW268106   0.487   2.320   0.054 -2.4705  1.3978  1.9189
22080SOL     OW68107   8.933   1.305   6.992 -0.3755 -0.0684  0.2899
22080SOL    HW168108   8.952   1.375   7.055  0.7307 -0.0284 -0.0604
22080SOL    HW268109   8.892   1.236   7.044 -1.5446  0.8559  0.6297
22081SOL     OW68110   8.023   8.888   1.580  0.3666  0.2204 -0.4852
22081SOL    HW168111   7.980   8.942   1.646  0.6752 -0.5787  0.3873
22081SOL    HW268112   8.072   8.951   1.526  1.3528  0.7675  0.9790
22082SOL     OW68113   3.894   8.505   2.930  0.2489 -0.3636 -0.1577
22082SOL    HW168114   3.930   8.575   2.876  0.0172  1.3373  1.7866
22082SOL    HW268115   3.806   8.491   2.896 -1.0973  2.8864  1.5651
22083SOL     OW68116   3.509   1.788   6.642 -0.1545  0.0817  0.1583
22083SOL    HW168117   3.481   1.738   6.565 -2.3974  0.5114  0.6532
22083SOL    HW268118   3.484   1.734   6.717 -2.3220  1.6832  0.6932
22084SOL     OW68119   5.309   4.127   7.821 -0.5644 -0.1527 -0.0343
22084SOL    HW168120   5.260   4.084   7.890 -1.1255  1.1286  0.3962
22084SOL    HW268121   5.376   4.178   7.866  0.2553 -0.7353 -0.5468
22085SOL     OW68122   3.524   7.480   1.064 -0.4167  0.2201  0.8603
22085SOL    HW168123   3.506   7.573   1.077 -0.9620 -0.0054  1.7841
22085SOL    HW268124   3.462   7.453   0.996  0.2819  0.6951  0.0104
22086SOL     OW68125   4.601   3.988   3.650 -0.6071 -1.3350  0.1365
22086SOL    HW168126   4.649   4.006   3.731 -1.2293  0.1798  0.1868
22086SOL    HW268127   4.610   3.893   3.639 -0.4556 -1.5842  1.9448
22087SOL     OW68128   8.541   8.340   6.704 -0.0468 -0.9980 -0.2540
22087SOL    HW168129   8.593   8.403   6.753 -0.2034 -1.3579  0.3735
22087SOL    HW268130   8.595   8.262   6.698  1.3979  0.0554 -3.5335
22088SOL     OW68131   4.242   4.594   3.577  0.4405 -0.1431 -0.0164
22088SOL    HW168132   4.277   4.680   3.597  1.7022 -0.2653 -1.4728
22088SOL    HW268133   4.320   4.540   3.560 -0.2611 -1.8712  1.9109
22089SOL     OW68134   3.446   5.739   4.741  0.6156  0.0919  0.3335
22089SOL    HW168135   3.441   5.834   4.753 -1.0055  0.2862 -1.3045
22089SOL    HW268136   3.539   5.720   4.731  1.0578  1.3249  1.7761
22090SOL     OW68137   3.509   7.478   6.602 -0.2508  0.1222  0.4311
22090SOL    HW168138   3.513   7.416   6.675  0.9629 -1.4614 -0.8988
22090SOL    HW268139   3.538   7.427   6.526 -0.6551  1.9429 -1.0058
22091SOL     OW68140   1.820   4.224   3.727  0.0082  0.4322  0.5333
22091SOL    HW168141   1.871   4.206   3.807 -1.5155  0.7467  1.6124
22091SOL    HW268142   1.874   4.288   3.679 -0.1213  2.1339  2.4924
22092SOL     OW68143   6.299   2.263   8.315 -0.7213 -0.4534  0.2669
22092SOL    HW168144   6.333   2.184   8.359 -3.2665 -2.3111 -0.8324
22092SOL    HW268145   6.206   2.265   8.338 -1.6280 -0.1332 -2.9247
22093SOL     OW68146   1.905   4.966   8.205  0.8116  0.1836  0.3059
22093SOL    HW168147   1.928   5.009   8.122 -1.0308  1.4418  0.3721
22093SOL    HW268148   1.988   4.958   8.251  1.8770 -0.4621 -1.5992
22094SOL     OW68149   4.119   6.923   5.031  0.5532  0.3807  0.5171
22094SOL    HW168150   4.085   6.959   5.112 -0.4219  0.7724 -0.0437
22094SOL    HW268151   4.134   6.831   5.050  2.0094  0.8163  1.6415
22095SOL     OW68152   8.812   2.597   6.197  0.3418  0.4470 -0.0777
22095SOL    HW168153   8.722   2.568   6.211  0.7558 -0.5772  0.5997
22095SOL    HW268154   8.860   2.517   6.177  1.2209  0.9029  0.1647
22096SOL     OW68155   2.731   0.400   5.590 -0.7520 -0.4081  0.0145
22096SOL    HW168156   2.697   0.447   5.666 -1.1280  0.2040 -0.5150
22096SOL    HW268157   2.657   0.348   5.559 -1.6394  1.7440 -1.7823
22097SOL     OW68158   3.885   0.766   0.195 -0.3101 -0.1327  0.0593
22097SOL    HW168159   3.971   0.725   0.197 -0.2328 -0.0857  3.0627
22097SOL    HW268160   3.823   0.694   0.201 -0.3682 -0.0626  0.3326
22098SOL     OW68161   5.849   4.531   2.673  0.2074 -0.6409  0.0570
22098SOL    HW168162   5.872   4.443   2.643 -1.4975 -0.6123 -1.5238
22098SOL    HW268163   5.849   4.585   2.593 -1.2146  0.2040  0.5814
22099SOL     OW68164   5.264   6.890   0.841  0.1576 -0.4973  0.0854
22099SOL    HW168165   5.206   6.831   0.792  0.2815  0.4117 -1.1791
22099SOL    HW268166   5.205   6.954   0.880  0.3489  1.1493 -2.1935
22100SOL     OW68167   2.931   8.240   4.859 -0.3110  0.9218  0.1869
22100SOL    HW168168   2.844   8.266   4.827 -0.2678 -0.3229 -1.0738
22100SOL    HW268169   2.972   8.198   4.783  0.7618  0.0196  1.2335
22101SOL     OW68170   1.457   6.913   8.698 -0.1343 -0.0980 -0.4076
22101SOL    HW168171   1.457   6.914   8.794 -1.7817 -0.7803 -0.3706
22101SOL    HW268172   1.507   6.834   8.675  1.7779  0.9742 -0.1994
22102SOL     OW68173   8.383   8.383   4.454 -0.4119  0.2693  0.1069
22102SOL    HW168174   8.459   8.364   4.508  0.2100  0.4187 -0.6902
22102SOL    HW268175   8.320   8.423   4.513 -0.1968 -0.6122  0.9593
22103SOL     OW68176   6.964   7.654   3.950 -0.3398  0.0951 -0.1625
22103SOL    HW168177   6.913   7.658   4.031  0.8647 -0.7512  0.6711
22103SOL    HW268178   7.013   7.736   3.948 -1.0167  0.5054 -0.5041
22104SOL     OW68179   0.689   4.987   3.095 -0.1556  0.6306  0.8179
22104SOL    HW168180   0.626   5.041   3.048  0.3956  1.3249  0.8544
22104SOL    HW268181   0.637   4.917   3.135 -0.9821  1.5744  1.4092
22105SOL     OW68182   4.922   5.193   3.858  0.6597 -0.3894 -0.1046
22105SOL    HW168183   4.969   5.198   3.774  0.3241  2.5423 -0.2307
22105SOL    HW268184   4.830   5.193   3.834  0.5642  0.3241  0.2269
22106SOL     OW68185   2.611   6.240   2.942  0.2921 -0.0070  0.0623
22106SOL    HW168186   2.657   6.167   2.900  0.2415 -0.4401  0.7378
22106SOL    HW268187   2.606   6.215   3.034 -0.7748  0.3077  0.1045
22107SOL     OW68188   4.526   7.880   0.066  0.2661  0.6291  0.2447
22107SOL    HW168189   4.444   7.850   0.104 -0.6340 -0.7456 -2.4773
22107SOL    HW268190   4.500   7.927  -0.013  2.0387  2.4921  0.6746
22108SOL     OW68191   1.869   5.885   6.565  0.1862 -0.0906  0.0504
22108SOL    HW168192   1.883   5.975   6.534  0.6730 -0.1747  0.0202
22108SOL    HW268193   1.791   5.856   6.519  1.0480 -0.3072 -1.3426
22109SOL     OW68194   6.075   3.000   0.226 -0.5262  0.2688 -0.0286
22109SOL    HW168195   6.066   3.016   0.132  0.1390 -0.6267 -0.2646
22109SOL    HW268196   6.167   2.976   0.237 -0.5428  0.5980  0.8918
22110SOL     OW68197   8.163   8.095   0.894 -0.2833  0.0984 -0.3060
22110SOL    HW168198   8.070   8.094   0.872 -0.0012  1.0998 -1.6377
22110SOL    HW268199   8.209   8.088   0.810  0.8240  2.5699 -0.0012
22111SOL     OW68200   1.026   4.608   2.783  0.3805 -0.4465 -0.1440
22111SOL    HW168201   1.106   4.639   2.824 -0.0338  1.4247 -0.6113
22111SOL    HW268202   0.960   4.611   2.853  0.1408  0.6876 -0.3983
22112SOL     OW68203   5.500   1.767   0.952  0.7610 -0.0627  0.1605
22112SOL    HW168204   5.418   1.816   0.958  0.2095 -1.0376  0.8374
22112SOL    HW268205   5.517   1.761   0.858  0.8325  1.3759  0.0553
22113SOL     OW68206   7.777   0.864   5.239  0.1078  0.0806 -0.4030
22113SOL    HW168207   7.825   0.881   5.158  2.0269  1.9744  0.9854
22113SOL    HW268208   7.692   0.905   5.226  0.6268  0.9232 -1.2516
22114SOL     OW68209   1.152   7.376   4.961  0.2376  0.5200  0.3654
22114SOL    HW168210   1.117   7.297   5.002 -1.2108  1.6444  1.3740
22114SOL    HW268211   1.246   7.372   4.978  0.3745 -1.5222 -0.5856
22115SOL     OW68212   4.712   4.388   4.861  0.4129  0.0881 -0.2140
22115SOL    HW168213   4.648   4.443   4.814  0.1102  0.2946  0.4254
22115SOL    HW268214   4.676   4.300   4.856  0.3337  0.1243 -0.2856
22116SOL     OW68215   7.667   2.663   6.369 -0.0078  0.0167 -0.2932
22116SOL    HW168216   7.721   2.587   6.348  1.7113  0.6757  1.4498
22116SOL    HW268217   7.590   2.626   6.413  0.7557 -0.7547  0.4499
22117SOL     OW68218   8.747   4.389   6.138  0.0147 -0.0005 -0.3130
22117SOL    HW168219   8.722   4.300   6.162  0.6978 -0.8024 -2.3283
22117SOL    HW268220   8.724   4.396   6.045  1.1501  1.4734 -0.5278
22118SOL     OW68221   3.110   1.414   0.889 -0.2146  0.0169  0.0358
22118SOL    HW168222   3.194   1.386   0.851 -0.0907  0.8249 -0.2906
22118SOL    HW268223   3.119   1.396   0.982 -0.0286 -0.7652 -0.1243
22119SOL     OW68224   4.875   4.159   8.038 -0.3265 -0.1739  0.2812
22119SOL    HW168225   4.931   4.220   7.990  0.1988 -0.5787  0.3689
22119SOL    HW268226   4.842   4.209   8.112 -0.0693  0.0646  0.2330
22120SOL     OW68227   3.500   3.942   6.616 -0.0753 -0.1043  0.0718
22120SOL    HW168228   3.572   3.878   6.616 -0.7559 -0.9246 -1.6989
22120SOL    HW268229   3.542   4.026   6.598  0.4491 -0.5781 -0.9684
22121SOL     OW68230   0.048   1.782   1.716 -0.2231 -0.0466  0.7747
22121SOL    HW168231   0.085   1.870   1.705  1.4125 -0.7070  0.6928
22121SOL    HW268232   0.030   1.753   1.627 -0.1349 -0.0494  0.7576
22122SOL     OW68233   4.115   8.690   4.712 -0.7716  0.1035 -0.0521
22122SOL    HW168234   4.058   8.758   4.678  0.4244  1.4110  0.4663
22122SOL    HW268235   4.173   8.735   4.773 -1.5971 -1.7980  2.3349
22123SOL     OW68236   1.631   0.474   5.382  0.4636  0.0309  0.3868
22123SOL    HW168237   1.564   0.454   5.448  0.1256  0.2513  0.1158
22123SOL    HW268238   1.585   0.527   5.317  0.6994 -0.4906 -0.2186
22124SOL     OW68239   6.295   0.569   3.543  0.3651  0.2172  0.0466
22124SOL    HW168240   6.346   0.519   3.607  1.6569  0.3523 -0.8345
22124SOL    HW268241   6.204   0.554   3.568  0.7662 -1.3944  0.6919
22125SOL     OW68242   1.152   4.759   0.271 -0.4268  0.2427  0.2948
22125SOL    HW168243   1.099   4.820   0.220  2.0524  0.6798 -1.9826
22125SOL    HW268244   1.162   4.682   0.214 -0.2014 -0.6270  1.4639
22126SOL     OW68245   0.314   1.447   1.940 -0.0597  0.5284  0.5045
22126SOL    HW168246   0.229   1.404   1.943 -0.0162  0.4354  0.4107
22126SOL    HW268247   0.294   1.539   1.957 -0.1135  0.4242  1.0260
22127SOL     OW68248   8.690   5.614   4.908  0.2001 -0.5022  0.1106
22127SOL    HW168249   8.671   5.557   4.982 -0.6513 -0.3783 -0.0056
22127SOL    HW268250   8.642   5.576   4.834  0.9406 -0.5573 -0.3627
22128SOL     OW68251   6.158   8.562   3.046 -0.0305  0.4027 -0.1417
22128SOL    HW168252   6.230   8.623   3.060 -0.8438  1.0631  1.3741
22128SOL    HW268253   6.117   8.591   2.964 -1.4281  3.0431  1.3496
22129SOL     OW68254   8.822   4.548   1.716  0.7199  0.0857  0.6560
22129SOL    HW168255   8.824   4.632   1.762 -1.1593  0.6895 -0.2618
22129SOL    HW268256   8.798   4.485   1.783  0.5892  0.5262  1.0294
22130SOL     OW68257   8.728   3.715   1.896 -0.1507  0.1352 -0.2265
22130SOL    HW168258   8.713   3.674   1.981 -0.0585  0.6874  0.0627
22130SOL    HW268259   8.641   3.723   1.857  0.0095 -2.4876 -1.3349
22131SOL     OW68260   1.319   2.583   8.854 -0.0443  0.3621 -0.6445
22131SOL    HW168261   1.389   2.517   8.857  0.8454  1.0509 -3.3141
22131SOL    HW268262   1.238   2.533   8.846  0.3936 -0.4159 -0.3149
22132SOL     OW68263   0.463   2.094   7.502 -0.6377 -0.0078  0.1997
22132SOL    HW168264   0.418   2.163   7.550 -0.6324  1.5923 -1.9542
22132SOL    HW268265   0.414   2.014   7.523 -0.9426  0.6935  2.3686
22133SOL     OW68266   0.391   8.713   7.104  0.4949 -0.6089  0.4540
22133SOL    HW168267   0.333   8.776   7.063 -0.7004 -0.8173  1.7394
22133SOL    HW268268   0.476   8.728   7.063 -0.0777  0.8565 -0.2693
22134SOL     OW68269   4.251   1.492   1.009  0.4840 -0.3562  0.2119
22134SOL    HW168270   4.157   1.477   1.013  0.3799  0.3819  0.8275
22134SOL    HW268271   4.261   1.565   0.947  0.4078  1.2063  1.9349
22135SOL     OW68272   4.453   6.516   2.991 -0.3313 -0.0028 -0.0682
22135SOL    HW168273   4.521   6.458   3.025 -0.0101  2.0934  3.2950
22135SOL    HW268274   4.377   6.459   2.979  0.4077 -1.4303  1.5919
22136SOL     OW68275   3.373   5.224   8.297  0.1396 -0.7388 -0.3294
22136SOL    HW168276   3.358   5.131   8.276  2.1602 -1.7447  2.1885
22136SOL    HW268277   3.347   5.233   8.388  1.0344  0.9137 -0.1951
22137SOL     OW68278   4.568   4.820   3.528  0.0442  0.0832  0.2281
22137SOL    HW168279   4.645   4.835   3.583  1.0817  0.0609 -1.1937
22137SOL    HW268280   4.549   4.727   3.538  0.2829  0.0592  0.4620
22138SOL     OW68281   4.947   4.225   8.940 -0.0973  0.3357  0.0888
22138SOL    HW168282   4.951   4.284   8.864 -1.5501 -0.1471 -0.3931
22138SOL    HW268283   4.993   4.146   8.912  0.0999  0.4740  0.0180
22139SOL     OW68284   6.176   3.108   2.804  0.0315 -0.1956 -0.7782
22139SOL    HW168285   6.095   3.062   2.782 -0.6774 -0.5319  2.2012
22139SOL    HW268286   6.148   3.193   2.837  0.9480 -0.0251 -0.4042
22140SOL     OW68287   5.395   8.714   0.550  0.6269  0.0577 -0.4364
22140SOL    HW168288   5.400   8.747   0.460  2.3908  0.8023 -0.0955
22140SOL    HW268289   5.317   8.757   0.586  1.3670  1.7960 -0.8354
22141SOL     OW68290   5.575   8.148   2.658  0.0424  0.0179 -0.1756
22141SOL    HW168291   5.523   8.133   2.579  0.2225 -1.4075 -0.0549
22141SOL    HW268292   5.532   8.094   2.725  1.4845 -0.9669  0.0018
22142SOL     OW68293   6.137   1.319   7.503  0.3810  0.0339  0.0054
22142SOL    HW168294   6.050   1.317   7.464  0.7313  0.1559 -0.7876
22142SOL    HW268295   6.121   1.310   7.597 -0.3683 -2.9210 -0.2813
22143SOL     OW68296   3.326   1.899   7.905 -0.2507 -0.1260  0.7670
22143SOL    HW168297   3.345   1.832   7.839  1.0384 -0.9101  1.8641
22143SOL    HW268298   3.348   1.857   7.988 -2.3319  0.6355  1.7879
22144SOL     OW68299   8.366   7.574   7.039  0.1431 -0.3273 -0.0407
22144SOL    HW168300   8.324   7.490   7.021  2.6035 -1.1513 -2.5427
22144SOL    HW268301   8.343   7.629   6.964 -0.4113  0.8800  0.9634
22145SOL     OW68302   0.853   4.420   2.175  0.3336  0.2664 -0.4561
22145SOL    HW168303   0.914   4.482   2.214  0.6136 -0.8683  0.9872
22145SOL    HW268304   0.894   4.335   2.187 -0.7399 -0.3513 -1.0280
22146SOL     OW68305   3.344   6.634   0.540  0.3001 -0.2613 -0.1957
22146SOL    HW168306   3.302   6.550   0.522 -0.1908  0.1973 -1.2613
22146SOL    HW268307   3.381   6.624   0.628 -1.7753 -0.7763  0.6649
22147SOL     OW68308   1.884   2.451   5.667 -0.1458  0.1404  0.0825
22147SOL    HW168309   1.803   2.401   5.680  0.0185  0.1488  1.2630
22147SOL    HW268310   1.954   2.386   5.670 -0.1077  0.1126 -1.0963
22148SOL     OW68311   3.624   0.172   6.943  0.1186  0.1710 -0.5475
22148SOL    HW168312   3.615   0.082   6.974 -1.6596  0.8814  1.2515
22148SOL    HW268313   3.691   0.210   7.000 -0.0531  0.3157 -0.4396
22149SOL     OW68314   7.088   3.869   5.419  0.0803  0.1945  0.9221
22149SOL    HW168315   7.105   3.871   5.514  2.0434 -2.3709  0.7303
22149SOL    HW268316   7.174   3.876   5.379 -0.7375  1.5122 -0.7654
22150SOL     OW68317   4.368   5.803   2.053  1.0917  0.4377 -0.1294
22150SOL    HW168318   4.427   5.736   2.017 -0.3253 -0.2394 -1.2829
22150SOL    HW268319   4.393   5.810   2.145  1.8199 -1.0823 -0.1828
22151SOL     OW68320   7.868   3.194   2.326 -0.4473 -0.0943  0.1233
22151SOL    HW168321   7.821   3.120   2.289 -1.7513  0.4827  0.5731
22151SOL    HW268322   7.801   3.261   2.339  0.7621  1.3800 -0.7849
22152SOL     OW68323   1.390   3.708   0.449 -0.1820  0.1224  0.4260
22152SOL    HW168324   1.347   3.715   0.363  0.5678 -0.0076  0.0358
22152SOL    HW268325   1.451   3.635   0.439 -0.6149 -0.3830  1.3092
22153SOL     OW68326   0.023   0.483   7.853 -0.0725 -0.4041  0.1351
22153SOL    HW168327  -0.038   0.419   7.817 -0.4022  0.2431 -0.4636
22153SOL    HW268328   0.081   0.431   7.910  0.2316 -1.3769 -1.0261
22154SOL     OW68329   5.582   8.478   5.071  0.1944  0.0316 -0.4783
22154SOL    HW168330   5.622   8.484   4.985  1.3294 -2.0242 -0.1455
22154SOL    HW268331   5.637   8.533   5.127  1.9773 -1.8439 -0.2704
22155SOL     OW68332   4.196   7.194   8.189 -0.6958  0.2359 -0.1702
22155SOL    HW168333   4.152   7.192   8.104  0.3292  1.3700 -0.7622
22155SOL    HW268334   4.208   7.287   8.207 -0.0072 -0.0222  0.7493
22156SOL     OW68335   0.894   4.859   0.666  0.1265 -0.0166 -0.2695
22156SOL    HW168336   0.882   4.836   0.759 -1.2410 -1.7814 -0.8259
22156SOL    HW268337   0.822   4.920   0.648 -0.8818 -1.2700 -0.6368
22157SOL     OW68338   5.609   8.443   8.703 -0.4848  0.1347 -0.4174
22157SOL    HW168339   5.524   8.458   8.744 -0.6529  2.1678 -1.4206
22157SOL    HW268340   5.627   8.523   8.654  0.9491 -1.1628 -2.1245
22158SOL     OW68341   4.967   8.633   4.219 -0.2766 -0.0633  0.2393
22158SOL    HW168342   5.033   8.637   4.150  0.4204  1.4739  0.9540
22158SOL    HW268343   4.960   8.723   4.251 -0.6701 -0.7217  2.0979
22159SOL     OW68344   0.981   8.263   1.107 -0.2784  0.1691  0.3386
22159SOL    HW168345   1.004   8.193   1.045 -0.0136 -1.7510  2.4693
22159SOL    HW268346   1.062   8.313   1.117 -0.5559  1.0636 -1.4576
22160SOL     OW68347   3.948   2.112   3.110  0.4107 -0.4948 -0.1722
22160SOL    HW168348   3.911   2.024   3.112 -1.9301  0.4394  1.5253
22160SOL    HW268349   3.979   2.127   3.199  0.2637  0.5838 -0.2909
22161SOL     OW68350   7.714   4.944   0.709 -0.7608 -0.2952  0.1469
22161SOL    HW168351   7.797   4.905   0.681 -0.0815  0.7144  0.6674
22161SOL    HW268352   7.707   5.024   0.657 -3.3883 -2.2103 -2.7889
22162SOL     OW68353   3.108   3.824   4.900  0.3445 -0.0260  0.0295
22162SOL    HW168354   3.032   3.767   4.900  0.5660 -0.3263 -0.3257
22162SOL    HW268355   3.182   3.766   4.916  0.8827 -0.2941 -2.8250
22163SOL     OW68356   6.821   7.325   7.242  0.0049 -0.0049  0.6646
22163SOL    HW168357   6.778   7.240   7.235 -0.9780  0.6064 -3.6384
22163SOL    HW268358   6.912   7.308   7.222 -0.2530 -0.0617 -0.5286
22164SOL     OW68359   6.255   6.831   5.804 -0.3525 -0.5468  0.2231
22164SOL    HW168360   6.327   6.842   5.866 -0.0870  0.9297 -0.2943
22164SOL    HW268361   6.291   6.778   5.733 -0.0807 -0.6579  0.4438
22165SOL     OW68362   2.558   2.563   4.915 -0.4416 -0.1184 -0.3179
22165SOL    HW168363   2.649   2.552   4.887 -0.9738 -0.4742 -1.9859
22165SOL    HW268364   2.544   2.491   4.977  0.7136  0.6050  0.8576
22166SOL     OW68365   3.193   4.997   2.935 -0.6276  0.5540  0.5947
22166SOL    HW168366   3.214   5.065   2.871  0.6536 -0.6289 -0.2920
22166SOL    HW268367   3.104   4.969   2.911  0.7866 -1.8050 -2.5951
22167SOL     OW68368   7.750   5.057   1.891  0.3389  0.3603  0.3727
22167SOL    HW168369   7.743   5.088   1.801 -0.3435  1.6443  0.8344
22167SOL    HW268370   7.810   4.982   1.887  0.6519  0.6652 -1.0701
22168SOL     OW68371   6.022   8.612   4.503 -0.0422 -0.3777 -0.3569
22168SOL    HW168372   6.082   8.540   4.484  0.5241 -0.3878  1.2655
22168SOL    HW268373   6.017   8.614   4.599 -0.9812  0.9821 -0.4048
22169SOL     OW68374   6.352   5.042   6.814 -0.0225 -0.4043  0.3691
22169SOL    HW168375   6.289   5.055   6.743 -1.1699  1.2273  1.6118
22169SOL    HW268376   6.298   5.040   6.893  1.4687  0.9995  1.4895
22170SOL     OW68377   5.177   7.799   3.652 -0.3303 -0.5964  0.8247
22170SOL    HW168378   5.114   7.728   3.659 -0.6098 -0.3271  1.0495
22170SOL    HW268379   5.260   7.759   3.681 -0.4242 -0.9076  0.6707
22171SOL     OW68380   5.390   5.720   6.914 -0.0239  0.0908 -0.6009
22171SOL    HW168381   5.416   5.638   6.957  0.8383  0.6022 -0.1231
22171SOL    HW268382   5.472   5.756   6.880 -0.0356  1.7605  0.9618
22172SOL     OW68383   7.207   3.668   2.998 -0.1460 -0.5695 -0.0323
22172SOL    HW168384   7.273   3.618   2.949  1.1271  1.2695 -0.3058
22172SOL    HW268385   7.123   3.641   2.960  0.6678 -0.8216 -1.7253
22173SOL     OW68386   3.040   3.509   5.606  0.2018  0.2678 -0.3584
22173SOL    HW168387   3.039   3.414   5.623 -1.3692  0.5222  1.2207
22173SOL    HW268388   3.072   3.548   5.687 -1.4014  1.1966 -0.1276
22174SOL     OW68389   3.919   6.821   1.175  0.0675  0.2194  0.1096
22174SOL    HW168390   3.844   6.880   1.187 -0.1583 -0.2074  0.8651
22174SOL    HW268391   3.967   6.826   1.258  1.7862  1.7067 -0.8971
22175SOL     OW68392   3.092   2.748   7.690  0.3685  0.2208 -0.4216
22175SOL    HW168393   3.141   2.667   7.707 -0.2510 -0.0250  0.2158
22175SOL    HW268394   3.057   2.736   7.602 -0.8373 -0.8114  0.1508
22176SOL     OW68395   8.761   2.157   7.817 -0.1890 -0.2277 -0.4578
22176SOL    HW168396   8.828   2.225   7.821 -0.2940 -0.1532  0.1037
22176SOL    HW268397   8.679   2.206   7.809 -0.1305 -0.3263 -2.1884
22177SOL     OW68398   5.638   7.706   4.570  0.5182 -0.5327  0.4484
22177SOL    HW168399   5.579   7.749   4.632  1.5030 -1.3386  2.0124
22177SOL    HW268400   5.585   7.639   4.528 -0.2930  0.3471  0.0257
22178SOL     OW68401   0.616   2.946   8.793 -0.0919 -0.2230  0.4884
22178SOL    HW168402   0.644   2.908   8.709  0.0354 -0.0700  0.4617
22178SOL    HW268403   0.698   2.958   8.842  0.0257  1.2968 -0.0275
22179SOL     OW68404   8.176   5.232   6.450 -0.5339 -0.3219 -0.0391
22179SOL    HW168405   8.239   5.222   6.522 -0.4827 -0.1184 -0.0526
22179SOL    HW268406   8.195   5.320   6.415  0.5081 -1.0068 -1.3107
22180SOL     OW68407   2.002   7.552   7.414  0.1626 -0.0942  0.9470
22180SOL    HW168408   1.999   7.625   7.351 -0.0347 -0.2209  0.8084
22180SOL    HW268409   2.082   7.567   7.464 -1.2934  1.8809  2.9202
22181SOL     OW68410   4.263   4.564   5.823 -0.5226 -0.6336  0.4571
22181SOL    HW168411   4.337   4.511   5.853 -0.7069 -1.0109  0.2501
22181SOL    HW268412   4.188   4.506   5.831 -0.6549 -0.5606 -0.2338
22182SOL     OW68413   6.820   1.585   4.644 -0.3319  0.2961 -0.6259
22182SOL    HW168414   6.893   1.564   4.702 -0.5083  0.9293 -0.1716
22182SOL    HW268415   6.750   1.526   4.672 -0.4768  0.7288 -0.0692
22183SOL     OW68416   4.694   4.647   2.311 -0.3287  0.0236 -0.2339
22183SOL    HW168417   4.732   4.565   2.279 -0.2466 -0.2767  0.6254
22183SOL    HW268418   4.600   4.629   2.316 -0.2311 -0.2586  0.6496
22184SOL     OW68419   4.378   5.109   4.990 -0.1739  0.7494 -0.0691
22184SOL    HW168420   4.448   5.128   5.053 -0.4525 -2.5177  1.4242
22184SOL    HW268421   4.422   5.068   4.916 -0.2793  0.7137 -0.1127
22185SOL     OW68422   0.386   4.331   1.251 -0.3417 -0.0042 -0.2185
22185SOL    HW168423   0.451   4.261   1.237  1.1003  1.1197  0.5247
22185SOL    HW268424   0.309   4.285   1.284  0.4111 -1.2997 -0.1539
22186SOL     OW68425   3.116   7.049   8.945 -0.2597 -0.2476  0.1848
22186SOL    HW168426   3.153   6.983   9.004 -1.4515  0.0638  1.3261
22186SOL    HW268427   3.031   7.013   8.919 -0.1362  0.0334 -0.6383
22187SOL     OW68428   3.877   2.539   5.949 -0.1775 -0.3267  0.3326
22187SOL    HW168429   3.962   2.518   5.911  0.6209 -1.2263  2.4267
22187SOL    HW268430   3.893   2.540   6.044 -2.1902  0.9796  0.7186
22188SOL     OW68431   6.194   8.646   1.918  0.2880  0.0578 -0.0202
22188SOL    HW168432   6.142   8.569   1.943 -0.0517 -0.1190 -1.2410
22188SOL    HW268433   6.132   8.719   1.922  0.2689  0.0521 -0.2057
22189SOL     OW68434   5.312   3.703   3.026 -0.1077 -0.2608 -0.0802
22189SOL    HW168435   5.240   3.693   2.963 -1.0874 -1.0433  1.1331
22189SOL    HW268436   5.386   3.658   2.985 -0.4102  0.1610 -1.1388
22190SOL     OW68437   3.857   4.603   5.161 -0.1988 -0.0138 -0.1856
22190SOL    HW168438   3.911   4.648   5.095  0.5830 -0.6532  0.0079
22190SOL    HW268439   3.916   4.541   5.202 -1.2038 -1.0818 -0.2966
22191SOL     OW68440   1.748   3.079   4.068 -0.3463 -0.0610  0.3531
22191SOL    HW168441   1.674   3.138   4.057  0.3164  0.5742 -0.7811
22191SOL    HW268442   1.779   3.061   3.979  2.5275  1.8270  0.8391
22192SOL     OW68443   3.857   8.285   5.530  0.4251  0.3570 -0.1318
22192SOL    HW168444   3.821   8.221   5.468  0.5641  0.0778  0.0728
22192SOL    HW268445   3.944   8.304   5.498  0.5282  0.1505  0.0181
22193SOL     OW68446   4.103   2.759   1.184  0.6660  0.3083  0.9945
22193SOL    HW168447   4.012   2.729   1.190  0.9982 -0.9873 -0.0278
22193SOL    HW268448   4.153   2.678   1.172  1.6801  1.2234 -1.2477
22194SOL     OW68449   6.911   4.070   1.944 -0.1678  0.0255  0.4518
22194SOL    HW168450   6.961   4.061   2.025 -0.7142  0.1091  0.8024
22194SOL    HW268451   6.957   4.014   1.882  0.8345  0.7174  0.5330
22195SOL     OW68452   0.301   5.382   6.737  0.3932  0.0651 -0.0845
22195SOL    HW168453   0.326   5.467   6.700 -0.6001  1.2676  1.8827
22195SOL    HW268454   0.230   5.402   6.798 -0.9380 -2.4060 -0.7137
22196SOL     OW68455   8.734   3.390   1.923  0.0537 -0.1677  0.0430
22196SOL    HW168456   8.804   3.365   1.863 -0.1735  0.5476 -0.5404
22196SOL    HW268457   8.665   3.424   1.866  0.0867  1.1441  0.7522
22197SOL     OW68458   2.977   4.077   2.117  0.2635 -0.8510  0.5197
22197SOL    HW168459   2.993   4.001   2.173 -0.4882 -0.6782  0.9871
22197SOL    HW268460   2.978   4.152   2.176  1.1260 -0.4756  0.0386
22198SOL     OW68461   1.955   3.284   8.031 -0.3785 -0.0307  0.1667
22198SOL    HW168462   1.979   3.290   8.124 -1.2801 -0.8005  0.4592
22198SOL    HW268463   2.001   3.207   8.000  0.5007  0.6348 -0.2230
22199SOL     OW68464   8.116   4.926   2.551  0.3969 -0.6544  0.1329
22199SOL    HW168465   8.066   4.948   2.629  0.3215  0.2873 -0.1738
22199SOL    HW268466   8.095   4.996   2.488  3.1689  0.5624  0.4489
22200SOL     OW68467   0.265   0.225   0.803 -0.0590 -0.2663  0.4395
22200SOL    HW168468   0.288   0.138   0.836 -0.7551 -0.4544  0.4557
22200SOL    HW268469   0.344   0.277   0.814 -0.3940 -0.1713  2.9527
22201SOL     OW68470   8.173   6.802   7.953  0.3200 -0.0002  0.0063
22201SOL    HW168471   8.264   6.777   7.938  0.6479  1.2471 -0.1900
22201SOL    HW268472   8.139   6.825   7.866 -0.1306 -0.2877  0.1012
22202SOL     OW68473   0.396   0.615   3.009  0.6889 -0.4613  0.1479
22202SOL    HW168474   0.388   0.521   2.994  0.9384 -0.5063  0.2945
22202SOL    HW268475   0.378   0.655   2.924 -0.5080 -0.5839  0.3296
22203SOL     OW68476   2.067   7.394   6.283 -0.7664 -0.4621  0.0949
22203SOL    HW168477   2.007   7.320   6.280  0.1190 -1.2880  1.7562
22203SOL    HW268478   2.147   7.360   6.323 -0.1203  1.2412  0.3572
22204SOL     OW68479   5.718   1.151   5.425 -0.2433 -0.5811  0.2899
22204SOL    HW168480   5.683   1.080   5.478  0.0398 -1.1550 -0.2855
22204SOL    HW268481   5.741   1.110   5.342 -1.4215  0.4416 -0.5856
22205SOL     OW68482   3.596   3.692   3.451  0.7416  0.4107 -0.0103
22205SOL    HW168483   3.627   3.714   3.539  0.8276  0.6322 -0.0943
22205SOL    HW268484   3.624   3.766   3.397  1.8951 -0.3484 -0.4876
22206SOL     OW68485   4.707   3.523   6.445  0.5716 -0.4945 -0.4579
22206SOL    HW168486   4.730   3.473   6.366 -0.6782  0.2080 -1.3087
22206SOL    HW268487   4.662   3.601   6.411  1.0465  0.3985  0.9112
22207SOL     OW68488   8.421   2.037   7.585 -0.2238  0.0887  0.7647
22207SOL    HW168489   8.439   1.959   7.532  0.7697  1.2787 -0.7487
22207SOL    HW268490   8.452   2.015   7.672 -0.8030 -1.5138  0.6012
22208SOL     OW68491   8.199   8.405   1.212  0.4625  0.1416  0.4046
22208SOL    HW168492   8.250   8.408   1.293  0.8923  0.6088  0.1251
22208SOL    HW268493   8.247   8.343   1.157  0.9932  0.8995 -0.0183
22209SOL     OW68494   8.828   1.845   6.802 -0.2028 -0.2699 -0.2843
22209SOL    HW168495   8.844   1.920   6.860 -2.8286 -0.0238  0.2252
22209SOL    HW268496   8.871   1.771   6.845  1.5776  0.7041 -0.2896
22210SOL     OW68497   5.830   8.928   3.957  0.0409 -0.3429  0.1136
22210SOL    HW168498   5.872   9.010   3.931 -1.2084 -0.1462 -1.4528
22210SOL    HW268499   5.738   8.952   3.970 -0.7171 -1.7758 -2.0970
22211SOL     OW68500   7.263   4.628   0.500 -0.3524 -0.6800  0.0368
22211SOL    HW168501   7.174   4.595   0.514 -0.2161 -0.8685  0.4747
22211SOL    HW268502   7.313   4.596   0.575 -0.3260  0.8969  0.7317
22212SOL     OW68503   4.188   1.530   3.967 -0.1052 -0.0708  0.8840
22212SOL    HW168504   4.171   1.519   4.061 -1.2832  0.0708  0.6975
22212SOL    HW268505   4.275   1.570   3.964 -0.6590  1.3240  1.9804
22213SOL     OW68506   3.214   0.173   7.215 -0.8891  0.5450  0.7486
22213SOL    HW168507   3.259   0.211   7.139 -0.6589  0.1848  0.7013
22213SOL    HW268508   3.284   0.161   7.280 -0.9001 -0.0859  0.6480
22214SOL     OW68509   6.276   2.239   0.211 -0.2030  0.2517  0.2686
22214SOL    HW168510   6.240   2.223   0.298 -2.7783  1.5936 -0.4594
22214SOL    HW268511   6.356   2.186   0.209  0.6457  1.0926  3.8452
22215SOL     OW68512   7.479   2.787   0.530  0.3608  0.0900  0.0954
22215SOL    HW168513   7.547   2.805   0.596 -0.8582  0.2356  1.3503
22215SOL    HW268514   7.409   2.850   0.550 -1.0306 -1.4232  0.1708
22216SOL     OW68515   6.326   5.689   5.114 -0.0826 -0.1127 -0.2973
22216SOL    HW168516   6.263   5.629   5.153 -2.7406  2.5297 -0.1904
22216SOL    HW268517   6.376   5.723   5.188 -0.2086 -0.3855 -0.0865
22217SOL     OW68518   2.565   2.965   4.961  0.4278 -0.1568 -0.5658
22217SOL    HW168519   2.627   2.999   4.897  0.1593 -0.1279 -0.8143
22217SOL    HW268520   2.493   2.930   4.908  0.9960 -1.7490 -0.3437
22218SOL     OW68521   6.904   8.395   1.674 -0.1685 -0.7351 -0.0121
22218SOL    HW168522   6.850   8.370   1.749 -1.2801 -0.3164 -0.6596
22218SOL    HW268523   6.850   8.455   1.624  0.8392 -0.4428 -0.7782
22219SOL     OW68524   6.616   8.860   6.459  0.1274  0.1370  0.6219
22219SOL    HW168525   6.606   8.955   6.472 -0.2240  0.3419 -0.9828
22219SOL    HW268526   6.638   8.850   6.367  4.3070 -1.0963  1.5360
22220SOL     OW68527   8.224   5.739   5.386  0.2657  0.1348 -0.1851
22220SOL    HW168528   8.247   5.648   5.404 -0.7507 -0.2677 -0.8251
22220SOL    HW268529   8.158   5.734   5.317  2.6204  1.4908 -2.7205
22221SOL     OW68530   7.178   6.764   6.239  0.3302 -0.0395  0.2626
22221SOL    HW168531   7.236   6.833   6.209  1.3709 -0.5698  0.9725
22221SOL    HW268532   7.236   6.689   6.253 -0.5137 -0.5661  1.0450
22222SOL     OW68533   3.521   7.269   6.797 -0.4386 -0.0185  0.1074
22222SOL    HW168534   3.441   7.223   6.822 -1.2848  0.7993 -0.9767
22222SOL    HW268535   3.580   7.258   6.871 -0.4228 -3.2098 -0.2729
22223SOL     OW68536   7.779   0.037   5.947  0.3573  0.0450  0.2230
22223SOL    HW168537   7.774  -0.058   5.958  2.6167 -0.3300 -1.3173
22223SOL    HW268538   7.837   0.049   5.872  0.5962  2.6646  0.7424
22224SOL     OW68539   8.559   0.450   0.981 -0.0854 -0.1331 -0.2577
22224SOL    HW168540   8.651   0.454   0.953  0.0228 -0.1748  0.0922
22224SOL    HW268541   8.528   0.540   0.974 -0.0323 -0.1272 -0.4240
22225SOL     OW68542   3.156   4.734   2.640 -0.6917  0.3889 -0.6648
22225SOL    HW168543   3.099   4.804   2.609 -1.1433  0.5934  0.6060
22225SOL    HW268544   3.221   4.724   2.570  0.8126  3.6939  0.0795
22226SOL     OW68545   3.033   6.031   3.716 -0.1815  0.4939  0.0688
22226SOL    HW168546   3.047   6.116   3.673  1.5253  0.2691  0.1145
22226SOL    HW268547   3.120   6.003   3.742 -0.6791 -1.4403 -0.2216
22227SOL     OW68548   4.695   7.689   1.882 -0.0809  0.0197  0.0673
22227SOL    HW168549   4.725   7.703   1.792 -0.2825 -1.0517 -0.1718
22227SOL    HW268550   4.600   7.688   1.875 -0.0836 -1.6414  0.0292
22228SOL     OW68551   2.799   6.680   0.984  0.0238 -0.2189 -0.0753
22228SOL    HW168552   2.881   6.728   0.991 -0.2058  0.0683  0.6843
22228SOL    HW268553   2.759   6.712   0.903  1.7644 -2.1071 -1.8190
22229SOL     OW68554   0.160   2.192   0.061  0.2279  0.5221 -0.1899
22229SOL    HW168555   0.160   2.235  -0.025 -0.2417  0.5473 -0.1804
22229SOL    HW268556   0.113   2.109   0.046  1.6449 -0.2813 -0.3492
22230SOL     OW68557   7.360   3.548   8.349  0.1626 -0.6419  0.3774
22230SOL    HW168558   7.435   3.600   8.320  1.2516 -2.8200 -0.9081
22230SOL    HW268559   7.311   3.530   8.269 -0.1204 -1.6874  0.7697
22231SOL     OW68560   4.764   6.301   8.611  0.2367 -0.5514  0.5936
22231SOL    HW168561   4.715   6.237   8.560  1.4732 -1.9418  1.0836
22231SOL    HW268562   4.773   6.377   8.553  0.5912 -1.6426 -0.8292
22232SOL     OW68563   2.882   0.191   0.097 -0.0405 -0.0388 -0.2936
22232SOL    HW168564   2.842   0.278   0.092  0.8385  0.3711 -0.3778
22232SOL    HW268565   2.849   0.144   0.020  2.1728  1.3938 -2.2470
22233SOL     OW68566   3.935   2.708   2.998  0.0403  0.7439  0.2302
22233SOL    HW168567   3.885   2.750   3.068  2.4657  1.3240  1.7459
22233SOL    HW268568   3.997   2.776   2.969  3.2872 -1.2266  1.9158
22234SOL     OW68569   8.176   1.255   4.003  0.3889 -0.7035  0.2084
22234SOL    HW168570   8.213   1.274   3.917 -2.2519 -0.8265 -1.0545
22234SOL    HW268571   8.194   1.333   4.056 -0.1852  0.4666 -1.2755
22235SOL     OW68572   4.049   5.876   2.965  0.3955 -0.2979  0.0585
22235SOL    HW168573   4.080   5.809   3.026 -2.2294 -2.2917 -0.6095
22235SOL    HW268574   3.978   5.920   3.012  0.3684  0.2454 -0.4814
22236SOL     OW68575   8.565   4.887   0.645 -0.1174  0.1222  0.1860
22236SOL    HW168576   8.578   4.815   0.706 -0.4300  0.9042  1.2158
22236SOL    HW268577   8.644   4.941   0.655 -0.6253  0.7873  0.6602
22237SOL     OW68578   4.716   0.894   8.192 -0.3449 -0.0716  0.4481
22237SOL    HW168579   4.635   0.842   8.193 -0.2746 -0.2143 -0.1862
22237SOL    HW268580   4.745   0.890   8.100 -0.8245  1.8689  0.1825
22238SOL     OW68581   5.294   7.368   3.006 -0.3066 -0.2083 -0.3091
22238SOL    HW168582   5.303   7.460   2.980 -1.2203 -0.6629 -2.4957
22238SOL    HW268583   5.200   7.353   3.012 -0.1573 -0.8607  0.6390
22239SOL     OW68584   8.253   1.257   7.753 -0.2027  0.3577 -0.3185
22239SOL    HW168585   8.198   1.181   7.737 -1.6051  0.5970  2.6277
22239SOL    HW268586   8.342   1.221   7.753 -0.6823 -0.9094 -0.8060
22240SOL     OW68587   7.335   5.985   4.354  0.3416 -0.5092  0.5233
22240SOL    HW168588   7.365   6.075   4.364  0.0544 -0.4044  0.4535
22240SOL    HW268589   7.399   5.932   4.403  3.5004 -0.8253 -3.4096
22241SOL     OW68590   4.169   5.436   3.224 -0.3412  0.1282  0.2298
22241SOL    HW168591   4.085   5.425   3.179  0.2044 -1.0819 -0.5556
22241SOL    HW268592   4.204   5.518   3.189  1.2916 -1.9955 -3.7979
22242SOL     OW68593   1.485   5.024   3.602  0.1730  0.4954 -0.3588
22242SOL    HW168594   1.470   5.032   3.508  0.5156  0.9746 -0.3745
22242SOL    HW268595   1.466   5.111   3.637 -0.4412  0.1904  0.0904
22243SOL     OW68596   4.685   0.477   2.833 -0.2007  0.1749 -0.5258
22243SOL    HW168597   4.626   0.407   2.860  0.4086  0.1189  0.7532
22243SOL    HW268598   4.744   0.437   2.769  1.1285 -0.9407  1.3195
22244SOL     OW68599   6.065   3.192   6.701  0.0785  0.1532 -0.4487
22244SOL    HW168600   6.065   3.100   6.674 -1.3936  0.3014 -1.0542
22244SOL    HW268601   6.129   3.197   6.772  0.2702 -1.3039 -0.5016
22245SOL     OW68602   0.723   0.412   0.445  0.2819  0.0326  0.6603
22245SOL    HW168603   0.801   0.431   0.498 -0.6567  0.5788  1.8851
22245SOL    HW268604   0.758   0.369   0.366  1.6943 -1.2838  1.9184
22246SOL     OW68605   0.750   5.120   0.222 -0.2754  0.1188 -0.5250
22246SOL    HW168606   0.812   5.193   0.219 -0.4613  0.2593 -1.0838
22246SOL    HW268607   0.682   5.144   0.158 -1.9746  0.9220  1.4568
22247SOL     OW68608   2.978   4.145   2.833  0.1850  0.0015 -0.1214
22247SOL    HW168609   2.903   4.143   2.773  0.7469 -0.0327 -0.8456
22247SOL    HW268610   2.974   4.062   2.879  0.0256 -0.1877 -0.4708
22248SOL     OW68611   6.730   0.881   5.413 -0.6388 -0.0046 -0.6674
22248SOL    HW168612   6.761   0.917   5.330  0.6799  0.2836 -0.0774
22248SOL    HW268613   6.739   0.953   5.475 -0.3481 -0.5970 -0.0004
22249SOL     OW68614   0.729   6.576   5.274  0.4543 -0.2269 -0.0168
22249SOL    HW168615   0.773   6.500   5.310  0.2098 -0.1322  0.4892
22249SOL    HW268616   0.783   6.602   5.199 -0.2862 -1.8226 -1.1684
22250SOL     OW68617   2.345   7.311   1.269 -0.6232  0.1649 -0.7869
22250SOL    HW168618   2.334   7.406   1.280 -0.0415 -0.0035  1.9010
22250SOL    HW268619   2.419   7.303   1.210  2.1742  1.5570  2.1858
22251SOL     OW68620   4.157   1.330   5.174 -0.0791  0.2286 -0.1011
22251SOL    HW168621   4.148   1.235   5.168  1.2595 -0.0284  1.3261
22251SOL    HW268622   4.249   1.346   5.152 -0.0262  1.0705  0.7046
22252SOL     OW68623   1.310   0.094   6.847 -0.0112  0.0403  0.0256
22252SOL    HW168624   1.232   0.149   6.841  0.3182  0.3817 -1.9678
22252SOL    HW268625   1.378   0.152   6.884  0.1423  0.7906 -1.3724
22253SOL     OW68626   8.391   2.624   0.219 -0.4273 -0.3546 -0.5077
22253SOL    HW168627   8.467   2.576   0.186 -0.3659 -0.8755  0.3558
22253SOL    HW268628   8.339   2.558   0.265 -0.1301  0.4584  1.0786
22254SOL     OW68629   2.234   2.245   2.625  0.5487  0.5092  0.7789
22254SOL    HW168630   2.281   2.313   2.673 -1.6915  0.6033  3.0344
22254SOL    HW268631   2.302   2.201   2.573  2.4875  2.7459  1.2697
22255SOL     OW68632   5.089   7.395   6.328  0.3653 -0.0628 -0.4605
22255SOL    HW168633   5.066   7.376   6.419  2.4526 -0.5368  0.0297
22255SOL    HW268634   5.145   7.472   6.334  0.4422 -0.0457 -1.3691
22256SOL     OW68635   8.505   2.103   3.024  0.3876 -0.5519 -0.9907
22256SOL    HW168636   8.579   2.081   3.080  1.8476 -0.7847 -2.9208
22256SOL    HW268637   8.456   2.021   3.016 -0.2418 -0.3415  0.4759
22257SOL     OW68638   8.964   1.153   4.129 -0.3362 -0.2529 -0.3184
22257SOL    HW168639   8.919   1.158   4.213 -1.1425 -1.6554 -0.6381
22257SOL    HW268640   9.055   1.133   4.153 -0.7829 -1.7693  0.2082
22258SOL     OW68641   5.981   4.021   6.403  0.2135  0.4001  0.3713
22258SOL    HW168642   5.981   4.000   6.310 -2.6964  1.2886  0.0517
22258SOL    HW268643   5.930   3.951   6.443  1.0126  0.2930  1.2219
22259SOL     OW68644   4.971   3.864   1.144  0.0257 -0.4903 -0.0922
22259SOL    HW168645   4.973   3.853   1.239  0.9424  2.1860  0.3037
22259SOL    HW268646   4.884   3.900   1.126  0.1257 -0.2635 -0.1324
22260SOL     OW68647   3.929   8.753   1.151  0.1020 -0.7970 -0.0343
22260SOL    HW168648   3.927   8.769   1.245 -0.3916  1.0597 -0.3177
22260SOL    HW268649   3.837   8.757   1.124  0.3556  0.2573 -0.8063
22261SOL     OW68650   0.286   3.558   7.512 -0.3008  0.5361 -0.6104
22261SOL    HW168651   0.336   3.611   7.449 -1.3313  0.6283 -1.3639
22261SOL    HW268652   0.287   3.470   7.475  0.4847  0.2291  0.0967
22262SOL     OW68653   3.462   3.970   8.931 -0.3811  0.5465  0.7002
22262SOL    HW168654   3.527   3.994   8.997 -1.7079  0.3108  2.1402
22262SOL    HW268655   3.395   3.923   8.979 -0.2804 -1.7357 -1.2326
22263SOL     OW68656   6.712   7.133   0.044 -0.2373  0.5307 -0.2409
22263SOL    HW168657   6.704   7.062   0.108  0.0239  0.1394 -0.6331
22263SOL    HW268658   6.772   7.196   0.085  0.4791 -0.0471 -0.3765
22264SOL     OW68659   7.081   1.882   7.192 -0.0341 -0.3102 -0.0186
22264SOL    HW168660   6.993   1.877   7.153  0.6455 -2.7995 -1.4476
22264SOL    HW268661   7.065   1.878   7.287 -1.4678  0.1578 -0.2069
22265SOL     OW68662   5.320   2.560   7.366 -0.2120  0.2138  0.0667
22265SOL    HW168663   5.292   2.518   7.447 -0.3806  0.9695  0.4131
22265SOL    HW268664   5.292   2.500   7.297 -0.6953 -0.1098  0.5338
22266SOL     OW68665   8.768   1.879   8.263  0.7208 -0.6558  0.6753
22266SOL    HW168666   8.707   1.807   8.248  1.6429 -1.6860  1.6598
22266SOL    HW268667   8.721   1.957   8.234 -1.7719 -1.1417  3.0262
22267SOL     OW68668   1.834   6.898   5.348  0.3469 -0.1109 -0.7416
22267SOL    HW168669   1.825   6.930   5.258 -2.5034  0.7316 -0.2491
22267SOL    HW268670   1.744   6.881   5.377  1.2161 -0.8676  1.7887
22268SOL     OW68671   8.743   4.893   6.426  0.3502  0.2508 -0.8158
22268SOL    HW168672   8.734   4.822   6.490 -0.6965 -0.9863 -2.2617
22268SOL    HW268673   8.755   4.972   6.479  0.4404 -0.8501  0.8681
22269SOL     OW68674   1.885   1.725   2.171  0.1628  0.2577 -0.4634
22269SOL    HW168675   1.929   1.718   2.086  0.8401  0.8080 -0.1697
22269SOL    HW268676   1.926   1.801   2.213 -1.0589  0.7736 -0.1631
22270SOL     OW68677   7.059   6.655   8.177  0.2962 -0.1313  0.4280
22270SOL    HW168678   7.146   6.691   8.194  0.5965 -0.2709 -0.7076
22270SOL    HW268679   7.072   6.598   8.101 -0.2528 -2.2532  1.8247
22271SOL     OW68680   1.595   1.348   5.275  0.4290 -0.3888  0.3212
22271SOL    HW168681   1.621   1.260   5.248 -1.3367 -0.4180 -1.5303
22271SOL    HW268682   1.508   1.337   5.314  0.0789  0.5557 -0.1587
22272SOL     OW68683   3.206   6.621   6.662 -0.2420  0.2612 -0.1531
22272SOL    HW168684   3.174   6.647   6.748 -0.4589  2.6236 -0.8861
22272SOL    HW268685   3.127   6.592   6.616 -0.8432  2.6674 -0.7672
22273SOL     OW68686   2.485   6.581   3.613  0.1568 -0.2920  0.0645
22273SOL    HW168687   2.417   6.518   3.590 -0.9021  0.0117  2.1469
22273SOL    HW268688   2.440   6.666   3.615  0.2878 -0.2129  2.4379
22274SOL     OW68689   7.805   3.186   0.883 -0.7218 -0.7940  0.4540
22274SOL    HW168690   7.737   3.235   0.930  0.6610  1.3360  0.3742
22274SOL    HW268691   7.773   3.179   0.793 -1.4397 -1.0751  0.7213
22275SOL     OW68692   3.315   0.695   4.557 -0.3309  0.1381 -0.4245
22275SOL    HW168693   3.256   0.771   4.551 -2.3459 -1.2845  0.3831
22275SOL    HW268694   3.257   0.619   4.555  1.6139 -1.4053 -0.9931
22276SOL     OW68695   8.864   7.599   5.210  0.1682 -0.3286  0.2308
22276SOL    HW168696   8.875   7.626   5.301 -0.4119 -0.5976  0.3825
22276SOL    HW268697   8.954   7.592   5.176  0.4246 -1.1349  1.0406
22277SOL     OW68698   5.875   4.953   3.868 -0.0473  0.1418 -0.0912
22277SOL    HW168699   5.923   4.872   3.881 -1.0969 -0.5238 -0.2053
22277SOL    HW268700   5.913   4.992   3.789 -0.9135 -1.3154 -1.2805
22278SOL     OW68701   3.457   1.947   2.372  0.6860  0.1925  0.4502
22278SOL    HW168702   3.429   1.875   2.315 -0.4024  0.3216  0.8105
22278SOL    HW268703   3.482   2.017   2.312 -0.9014  0.4996  0.1032
22279SOL     OW68704   4.335   5.732   7.737 -0.7658 -0.0970 -0.2925
22279SOL    HW168705   4.352   5.651   7.785 -0.4816  0.6206  0.8606
22279SOL    HW268706   4.263   5.773   7.785 -1.4446 -0.0259 -1.3386
22280SOL     OW68707   3.573   8.951   2.674  0.0009  0.2347  0.3569
22280SOL    HW168708   3.637   8.977   2.741  1.1592 -2.3404  0.3890
22280SOL    HW268709   3.488   8.974   2.712  0.7852  1.8564  1.2299
22281SOL     OW68710   7.678   3.837   2.718 -0.5342  0.3160 -0.2200
22281SOL    HW168711   7.620   3.772   2.678 -0.5622 -0.1579  0.5764
22281SOL    HW268712   7.644   3.921   2.686 -0.7951 -0.0323 -0.8716
22282SOL     OW68713   8.346   2.764   2.407 -0.5319  0.2999 -0.1461
22282SOL    HW168714   8.326   2.856   2.423  0.8019  0.9257 -1.7215
22282SOL    HW268715   8.439   2.764   2.381 -0.0776 -1.6884  1.2674
22283SOL     OW68716   6.711   7.942   2.859 -0.0231  0.0923  0.1579
22283SOL    HW168717   6.684   7.933   2.951  0.2443  0.5796  0.2873
22283SOL    HW268718   6.641   7.993   2.819 -1.2215 -1.9051 -0.4273
22284SOL     OW68719   0.827   8.809   7.523 -0.1091  0.4952 -0.5312
22284SOL    HW168720   0.763   8.827   7.453 -1.1278  1.9363  0.7002
22284SOL    HW268721   0.794   8.859   7.598  0.8103 -1.2305  1.0786
22285SOL     OW68722   3.089   3.258   7.290  0.2412 -0.5160  0.3597
22285SOL    HW168723   3.147   3.333   7.272  1.8600 -1.9703 -0.9493
22285SOL    HW268724   3.015   3.270   7.231 -0.4220  0.9288  1.4300
22286SOL     OW68725   6.403   7.139   8.594  0.1077 -0.2916  0.3549
22286SOL    HW168726   6.450   7.084   8.656 -0.8529 -0.0784  1.3038
22286SOL    HW268727   6.413   7.228   8.628  0.7828  0.0148 -0.6020
22287SOL     OW68728   4.547   6.487   7.432 -0.0949 -0.2582 -0.6027
22287SOL    HW168729   4.615   6.552   7.447 -0.2630 -0.0912 -0.5612
22287SOL    HW268730   4.575   6.440   7.353  0.6586 -0.9595  0.0715
22288SOL     OW68731   2.352   1.878   4.091 -0.9754 -0.2297  0.8669
22288SOL    HW168732   2.320   1.798   4.050 -0.1061 -0.0474 -0.2300
22288SOL    HW268733   2.287   1.945   4.069 -0.6761 -0.2051  0.0260
22289SOL     OW68734   1.842   3.659   8.089  0.0314  0.2049 -0.0925
22289SOL    HW168735   1.915   3.645   8.029 -0.1734 -0.3565 -0.2113
22289SOL    HW268736   1.838   3.754   8.099  0.5565  0.2582 -0.3596
22290SOL     OW68737   5.309   1.115   5.078 -0.5685  0.2992 -0.0241
22290SOL    HW168738   5.311   1.067   4.995  0.1544  0.9091 -0.3752
22290SOL    HW268739   5.220   1.148   5.084 -1.0517 -1.0024  0.1836
22291SOL     OW68740   3.977   1.365   8.898  0.2487  0.7804  0.0782
22291SOL    HW168741   3.917   1.431   8.932  0.8080  0.8390  0.9754
22291SOL    HW268742   4.022   1.409   8.826 -0.3202  0.9423 -0.1842
22292SOL     OW68743   0.876   2.441   3.304  0.1157  0.9207  0.3442
22292SOL    HW168744   0.934   2.461   3.230 -0.0973  1.9217  0.4316
22292SOL    HW268745   0.883   2.517   3.361 -0.4133  0.5483  0.9182
22293SOL     OW68746   3.868   8.724   5.933 -0.4404  0.1549  0.6623
22293SOL    HW168747   3.841   8.751   6.021  1.1785  0.7414  1.0141
22293SOL    HW268748   3.943   8.667   5.948 -1.7430 -1.8911 -0.2482
22294SOL     OW68749   3.120   6.285   3.616 -0.0822  0.5668 -0.8758
22294SOL    HW168750   3.078   6.312   3.534 -2.1418  0.7022  0.1540
22294SOL    HW268751   3.082   6.343   3.682  0.4523 -0.4944  0.3955
22295SOL     OW68752   8.019   1.244   1.082  0.6414 -0.1511 -0.0720
22295SOL    HW168753   7.964   1.310   1.125  0.1775 -0.5086 -0.1082
22295SOL    HW268754   7.963   1.167   1.075  0.4369  0.1354 -2.0055
22296SOL     OW68755   2.978   0.771   1.975  0.0843  0.3459 -0.0455
22296SOL    HW168756   2.914   0.733   2.036 -0.0434  1.3615  0.4852
22296SOL    HW268757   3.063   0.740   2.007 -0.1529 -1.9046 -1.3963
22297SOL     OW68758   2.371   6.837   0.098  0.2401  0.0488 -0.4420
22297SOL    HW168759   2.293   6.837   0.042 -0.5351 -1.4928  0.5891
22297SOL    HW268760   2.436   6.786   0.048  0.4502  0.9077 -1.0755
22298SOL     OW68761   7.214   4.639   8.760  0.5595  0.7740 -0.0414
22298SOL    HW168762   7.247   4.660   8.847  1.1938 -2.1278  0.4977
22298SOL    HW268763   7.265   4.694   8.701  4.1506 -1.1326  1.0277
22299SOL     OW68764   2.472   2.500   6.274 -0.3785 -0.1680  0.3032
22299SOL    HW168765   2.435   2.450   6.201 -2.3528 -0.5337  1.4958
22299SOL    HW268766   2.410   2.571   6.288  0.2479  0.2007  1.2918
22300SOL     OW68767   4.199   1.421   8.714  0.4432 -0.4192 -0.3295
22300SOL    HW168768   4.224   1.502   8.669 -0.2389  0.4186  0.7554
22300SOL    HW268769   4.186   1.357   8.643 -1.6382  1.1311 -1.4554
22301SOL     OW68770   8.008   3.717   6.104 -0.5211  0.1678  0.1435
22301SOL    HW168771   8.055   3.692   6.184 -0.1498  0.1708 -0.0701
22301SOL    HW268772   7.984   3.809   6.119 -4.0954 -0.8975  1.9987
22302SOL     OW68773   5.637   2.896   3.655 -0.5055  0.1941 -0.0531
22302SOL    HW168774   5.629   2.844   3.576  0.9696 -0.3812  0.1500
22302SOL    HW268775   5.731   2.899   3.673 -0.8014  0.2049  1.7233
22303SOL     OW68776   7.496   0.425   3.221  0.2588 -0.3643  0.5220
22303SOL    HW168777   7.518   0.332   3.207 -0.2247 -0.3934 -0.1274
22303SOL    HW268778   7.554   0.453   3.291  0.7698 -1.0287  0.3820
22304SOL     OW68779   2.104   7.668   0.146  0.3042 -0.3038  0.2918
22304SOL    HW168780   2.098   7.665   0.242 -0.8716  0.6187  0.2611
22304SOL    HW268781   2.154   7.589   0.124  1.9006  0.2253  1.7469
22305SOL     OW68782   3.293   7.654   7.484  0.5339 -0.6882  0.2128
22305SOL    HW168783   3.282   7.718   7.414  1.5813  1.2183  1.7066
22305SOL    HW268784   3.277   7.570   7.442  1.0460  0.3786 -2.2887
22306SOL     OW68785   8.750   4.691   4.082  0.1610 -0.5557 -0.6296
22306SOL    HW168786   8.788   4.603   4.077 -1.3938 -1.4340  1.3127
22306SOL    HW268787   8.793   4.731   4.157  0.0914 -0.0654 -0.8499
22307SOL     OW68788   7.960   3.821   3.892 -0.3025 -1.0902 -0.1698
22307SOL    HW168789   8.007   3.883   3.948 -1.4934  0.6358 -0.9889
22307SOL    HW268790   7.999   3.736   3.913  0.5052 -0.2805  1.9545
22308SOL     OW68791   2.361   2.179   2.274 -0.2223  0.2628  0.0104
22308SOL    HW168792   2.273   2.180   2.237  0.1836 -0.0525 -0.9914
22308SOL    HW268793   2.392   2.269   2.265  1.0729 -0.3745 -3.4700
22309SOL     OW68794   7.970   5.246   2.024  0.1194 -0.5798 -0.1621
22309SOL    HW168795   7.938   5.203   1.945 -1.0533 -1.7383  0.9072
22309SOL    HW268796   8.000   5.174   2.080 -0.7102  0.0727  1.1552
22310SOL     OW68797   8.209   8.198   2.159 -0.3367  0.5530  0.0467
22310SOL    HW168798   8.235   8.280   2.200  1.1764  0.3417 -0.4257
22310SOL    HW268799   8.210   8.134   2.231  2.5396  0.1315 -0.2419
22311SOL     OW68800   6.769   8.266   7.676  0.9134  0.4637  0.4570
22311SOL    HW168801   6.832   8.338   7.666  0.9952  0.5946  1.7145
22311SOL    HW268802   6.719   8.290   7.754  0.0275 -0.1789  0.0931
22312SOL     OW68803   0.055   1.121   7.290 -0.0972 -0.4686 -0.2382
22312SOL    HW168804   0.129   1.177   7.267  0.8828 -1.8049 -0.4514
22312SOL    HW268805   0.089   1.032   7.286 -1.8765 -1.1744 -0.9143
22313SOL     OW68806   3.600   0.172   1.781  0.0006 -0.8231  0.0535
22313SOL    HW168807   3.635   0.199   1.696  0.7159 -0.0909  0.5569
22313SOL    HW268808   3.564   0.252   1.819 -0.3686 -1.1547  0.4127
22314SOL     OW68809   6.926   0.018   4.952 -0.7704 -0.1281 -0.0282
22314SOL    HW168810   6.985  -0.054   4.931 -0.6076 -0.3863  1.2269
22314SOL    HW268811   6.910   0.061   4.868  1.8691  0.4656 -0.3393
22315SOL     OW68812   0.384   7.037   6.437  0.6243  0.2426 -0.5787
22315SOL    HW168813   0.452   7.052   6.371  1.9615  0.7192  0.8337
22315SOL    HW268814   0.395   6.945   6.461  0.7902  0.3246 -0.3379
22316SOL     OW68815   4.532   1.352   2.810  0.0386 -1.0187  0.3929
22316SOL    HW168816   4.468   1.317   2.749  1.0439 -2.6542  0.2361
22316SOL    HW268817   4.479   1.394   2.879 -1.1282 -0.6977 -0.6626
22317SOL     OW68818   2.328   8.017   8.819 -0.0332 -0.2404 -0.2034
22317SOL    HW168819   2.415   8.028   8.781  0.7308 -0.9782  1.2523
22317SOL    HW268820   2.340   7.950   8.887 -1.5835  0.1640  0.5049
22318SOL     OW68821   2.669   3.285   5.650  0.0278  0.5366 -0.4460
22318SOL    HW168822   2.651   3.192   5.663 -0.7188  0.7559  0.0896
22318SOL    HW268823   2.648   3.300   5.558  0.3765  0.1349 -0.6001
22319SOL     OW68824   4.995   1.933   6.499 -0.1835 -0.4793  0.0411
22319SOL    HW168825   5.029   2.006   6.446 -1.2168  1.3331  1.7635
22319SOL    HW268826   4.904   1.924   6.472 -0.5837  0.1427  1.1355
22320SOL     OW68827   6.970   4.230   2.831 -0.1025  0.2603 -0.2099
22320SOL    HW168828   6.940   4.239   2.922  1.8252 -1.3830  0.6782
22320SOL    HW268829   7.064   4.250   2.835  0.1213 -0.3392 -1.7417
22321SOL     OW68830   2.443   8.908   7.376  0.2203  0.6940 -0.1859
22321SOL    HW168831   2.406   8.820   7.385  2.0004 -0.4712 -2.8671
22321SOL    HW268832   2.535   8.898   7.401  0.1410  2.1739  0.8313
22322SOL     OW68833   6.820   4.324   6.758 -0.3158 -0.2232  0.0115
22322SOL    HW168834   6.726   4.338   6.770 -0.2740 -0.4113  0.6370
22322SOL    HW268835   6.847   4.278   6.838  0.6165  1.2732  0.6112
22323SOL     OW68836   1.216   8.168   8.730 -0.2453 -0.3031 -0.7861
22323SOL    HW168837   1.188   8.249   8.773  1.0678 -1.1187  1.8129
22323SOL    HW268838   1.303   8.190   8.695 -0.3711 -0.2708 -1.0770
22324SOL     OW68839   0.572   6.287   6.146 -0.5326  0.4302  0.2662
22324SOL    HW168840   0.653   6.263   6.192  0.4559  1.4987 -0.8447
22324SOL    HW268841   0.577   6.239   6.063 -0.4207  1.4457 -0.3265
22325SOL     OW68842   8.136   7.027   5.663 -0.0779 -0.0211  0.4678
22325SOL    HW168843   8.187   7.107   5.672 -0.9871  0.7639 -1.0368
22325SOL    HW268844   8.201   6.959   5.645  0.5101  0.8022 -0.5974
22326SOL     OW68845   6.463   5.427   5.872  0.0684 -0.7975 -0.4282
22326SOL    HW168846   6.517   5.501   5.848  0.0425 -0.4333  0.5789
22326SOL    HW268847   6.374   5.454   5.850 -0.3619  0.7623  2.6506
22327SOL     OW68848   2.061   3.453   2.016 -0.3409 -0.1360  0.0914
22327SOL    HW168849   2.052   3.478   1.924  2.1773 -0.7770 -0.4015
22327SOL    HW268850   2.047   3.534   2.065  1.4755  0.9350 -1.0726
22328SOL     OW68851   6.635   2.140   6.341 -0.1567  0.0290  0.1149
22328SOL    HW168852   6.673   2.053   6.349 -1.0297 -0.2830  1.1882
22328SOL    HW268853   6.594   2.157   6.426 -1.7505  0.6330 -0.7115
22329SOL     OW68854   4.392   4.847   8.856  1.2158 -0.0315  0.3001
22329SOL    HW168855   4.423   4.895   8.933  0.9342  0.2728  0.2261
22329SOL    HW268856   4.380   4.757   8.888  0.2791  0.2706  0.8450
22330SOL     OW68857   2.648   3.011   5.607  0.6835  0.2605 -0.1781
22330SOL    HW168858   2.587   2.942   5.582  0.5184 -0.8852  2.9391
22330SOL    HW268859   2.735   2.974   5.589  0.5644  0.5782 -1.5111
22331SOL     OW68860   6.406   0.087   2.671  0.3775  0.2608 -0.5565
22331SOL    HW168861   6.441   0.002   2.643  0.2215  0.0520 -0.1188
22331SOL    HW268862   6.359   0.068   2.752  1.3024  0.9550  0.1648
22332SOL     OW68863   1.152   8.832   8.716  0.3620 -0.2693 -0.2532
22332SOL    HW168864   1.196   8.884   8.648  0.7010 -0.1881  0.0226
22332SOL    HW268865   1.059   8.848   8.702  0.4864  2.3978  1.3257
22333SOL     OW68866   2.515   5.360   3.899 -0.3393 -0.0547  0.1817
22333SOL    HW168867   2.579   5.380   3.831 -0.1141  0.8732  0.6483
22333SOL    HW268868   2.466   5.285   3.865 -0.6973  0.8126 -1.3212
22334SOL     OW68869   8.821   4.078   7.423  0.2521 -0.6612 -0.0643
22334SOL    HW168870   8.821   4.173   7.434 -0.5488 -0.6415 -0.1250
22334SOL    HW268871   8.779   4.065   7.338  1.2759 -1.0330 -0.5233
22335SOL     OW68872   7.234   1.318   6.845 -0.7947  0.1536 -0.0595
22335SOL    HW168873   7.294   1.393   6.842  0.1743 -0.5605  0.8429
22335SOL    HW268874   7.147   1.357   6.838 -0.2602  1.2445 -1.0644
22336SOL     OW68875   8.349   5.289   0.743 -0.1189  0.0823 -0.4772
22336SOL    HW168876   8.296   5.226   0.694 -0.4801  0.2825 -0.3505
22336SOL    HW268877   8.418   5.315   0.682  2.7399 -3.6515  0.7864
22337SOL     OW68878   1.224   3.220   7.461  0.1924 -0.6489  0.1187
22337SOL    HW168879   1.180   3.251   7.383  0.8898 -3.3226 -1.4674
22337SOL    HW268880   1.155   3.182   7.515  0.0209 -1.2404 -0.5030
22338SOL     OW68881   6.341   3.962   0.276 -0.2405 -0.3649 -0.1753
22338SOL    HW168882   6.329   3.960   0.371  0.7291  1.5338  0.0307
22338SOL    HW268883   6.272   4.020   0.244  0.3043  0.1248 -0.4651
22339SOL     OW68884   0.006   0.211   0.879 -0.3980 -0.5052  0.1530
22339SOL    HW168885   0.101   0.218   0.864 -0.5460  0.1724 -0.5112
22339SOL    HW268886  -0.002   0.210   0.975  0.2293  0.4549  0.2416
22340SOL     OW68887   5.040   0.018   6.300  0.4146 -0.3525 -0.2591
22340SOL    HW168888   5.032  -0.030   6.218  2.5052 -0.4305 -0.4752
22340SOL    HW268889   4.998   0.103   6.282  1.0090 -0.3004 -1.4699
22341SOL     OW68890   6.797   1.844   7.085 -0.4386 -0.3271  0.4811
22341SOL    HW168891   6.766   1.758   7.115 -1.3640  0.2326  1.1685
22341SOL    HW268892   6.745   1.907   7.134 -1.6469  0.6573 -1.9366
22342SOL     OW68893   8.331   6.801   7.409  0.1707 -0.0167  0.7255
22342SOL    HW168894   8.244   6.761   7.411  0.3004 -0.5720 -1.6189
22342SOL    HW268895   8.316   6.890   7.378  0.2671  0.5538  2.2630
22343SOL     OW68896   7.482   6.216   2.583  0.4371  0.3033 -0.3587
22343SOL    HW168897   7.459   6.201   2.491  0.2269  0.3936 -0.3234
22343SOL    HW268898   7.423   6.159   2.632  0.2745  0.5486 -0.2652
22344SOL     OW68899   7.044   3.135   1.281  0.2583 -0.3180 -0.3671
22344SOL    HW168900   7.029   3.061   1.223  0.2682  0.1957 -1.0339
22344SOL    HW268901   6.963   3.145   1.330  0.6133 -1.4258  0.5015
22345SOL     OW68902   5.233   0.192   6.774  0.5234  0.2112 -0.5201
22345SOL    HW168903   5.299   0.211   6.840 -0.1205  0.1249  0.1663
22345SOL    HW268904   5.208   0.277   6.738  0.1640  0.3550  0.0599
22346SOL     OW68905   1.965   5.924   6.197 -0.4437  0.0163  0.2001
22346SOL    HW168906   1.976   5.828   6.200 -1.6052 -0.1351  0.1152
22346SOL    HW268907   1.894   5.938   6.135 -1.0307  0.8617  1.0296
22347SOL     OW68908   2.101   7.641   8.403  0.4948  0.2156  0.2712
22347SOL    HW168909   2.187   7.605   8.381  1.1709  0.3605  2.4494
22347SOL    HW268910   2.120   7.722   8.451 -0.7334 -0.6140  2.3144
22348SOL     OW68911   6.468   8.596   3.643 -0.0160 -0.0179 -0.0040
22348SOL    HW168912   6.406   8.565   3.709 -0.5127 -2.0512 -1.3277
22348SOL    HW268913   6.414   8.624   3.570  0.5811  0.4500 -0.2783
22349SOL     OW68914   1.643   8.942   2.775  0.3941 -0.3933 -0.2122
22349SOL    HW168915   1.711   9.009   2.768 -1.2964  1.5161  0.7306
22349SOL    HW268916   1.581   8.963   2.705 -0.0626 -1.1085 -0.0403
22350SOL     OW68917   8.606   7.578   6.142 -0.2011  0.2076  0.2372
22350SOL    HW168918   8.648   7.537   6.067 -0.3455  0.0524  0.2404
22350SOL    HW268919   8.620   7.672   6.129 -1.4293  0.2877 -0.7259
22351SOL     OW68920   2.468   8.006   1.478  0.4785 -0.1235  0.1334
22351SOL    HW168921   2.424   7.961   1.406  1.0142 -1.8437  0.8389
22351SOL    HW268922   2.404   8.008   1.549  0.8422 -0.8336  0.4906
22352SOL     OW68923   6.234   0.940   0.245 -0.1497  0.0204 -0.5872
22352SOL    HW168924   6.288   0.957   0.322  0.6840 -0.4108 -1.0523
22352SOL    HW268925   6.147   0.920   0.279  0.6411 -2.0681  0.3905
22353SOL     OW68926   8.255   0.817   5.126  0.0471  0.6787  0.6987
22353SOL    HW168927   8.306   0.897   5.112 -0.1439  0.4288 -1.7084
22353SOL    HW268928   8.172   0.833   5.081  0.0939 -0.9437 -0.0292
22354SOL     OW68929   5.868   5.796   3.518 -0.3267  0.4789  0.2248
22354SOL    HW168930   5.902   5.732   3.581  0.9808 -0.1386 -1.0423
22354SOL    HW268931   5.784   5.759   3.490 -0.5877  0.4105  1.0737
22355SOL     OW68932   8.347   3.153   5.179  0.7844  0.2795  0.3483
22355SOL    HW168933   8.275   3.208   5.211  0.7980 -0.2379  1.3182
22355SOL    HW268934   8.374   3.194   5.097  0.2222  1.2144  0.6120
22356SOL     OW68935   2.042   6.969   6.085 -0.1441 -0.1958  0.5118
22356SOL    HW168936   2.061   6.891   6.032  0.3247  0.1186  0.2030
22356SOL    HW268937   1.948   6.967   6.099 -0.2155 -0.5060  0.0053
22357SOL     OW68938   5.661   3.984   3.627  0.2748 -0.2360  0.1105
22357SOL    HW168939   5.591   4.044   3.652  0.4682 -0.7707  2.0480
22357SOL    HW268940   5.740   4.021   3.668  0.6804 -0.9546 -0.0135
22358SOL     OW68941   3.976   3.017   0.829  0.6326 -0.1451  0.1532
22358SOL    HW168942   3.896   2.967   0.843  2.9014 -3.1217  4.9728
22358SOL    HW268943   4.020   2.971   0.757 -0.5798 -0.4500 -0.4174
22359SOL     OW68944   5.107   7.332   1.106  0.1117  0.0028 -0.6394
22359SOL    HW168945   5.178   7.325   1.170  1.5423  3.1864 -1.6556
22359SOL    HW268946   5.027   7.316   1.156  1.3735 -0.7840  1.2081
22360SOL     OW68947   5.629   8.741   3.649  0.0509 -0.0526 -0.2859
22360SOL    HW168948   5.682   8.821   3.646 -1.6948  1.1384 -2.4803
22360SOL    HW268949   5.675   8.680   3.590  0.8333 -0.3156  0.5819
22361SOL     OW68950   4.869   7.236   0.528  0.3667  0.0827  0.7462
22361SOL    HW168951   4.923   7.314   0.514 -1.7705  1.2889 -1.5070
22361SOL    HW268952   4.879   7.186   0.446  1.5846 -2.0149  2.0884
22362SOL     OW68953   2.161   4.778   8.058  0.1409 -0.1320  0.5277
22362SOL    HW168954   2.149   4.843   7.988 -0.9972  2.1769  2.6924
22362SOL    HW268955   2.249   4.797   8.091 -0.1917  0.3458  1.1587
22363SOL     OW68956   0.701   4.150   8.312 -0.1617 -0.8117  0.2506
22363SOL    HW168957   0.728   4.241   8.301 -0.3821 -0.8338 -0.5126
22363SOL    HW268958   0.636   4.153   8.383 -0.5180 -0.3020 -0.0871
22364SOL     OW68959   4.889   7.922   1.156  0.2438 -0.4823 -0.3842
22364SOL    HW168960   4.931   8.007   1.172 -0.7464 -0.3308  1.9083
22364SOL    HW268961   4.961   7.862   1.137  1.3562  0.1598  1.5330
22365SOL     OW68962   8.713   8.475   6.308 -0.2283 -0.4304 -0.0803
22365SOL    HW168963   8.653   8.500   6.378  0.4179 -0.3155  0.4447
22365SOL    HW268964   8.702   8.380   6.300 -0.1227 -0.4798  0.3499
22366SOL     OW68965   0.109   0.367   5.448 -0.1503  0.3780 -0.0653
22366SOL    HW168966   0.087   0.456   5.421  0.5605  0.2557 -1.1133
22366SOL    HW268967   0.142   0.325   5.369  0.2646 -0.5864  0.5906
22367SOL     OW68968   1.570   1.311   3.899  0.0031 -0.1271 -0.4121
22367SOL    HW168969   1.641   1.299   3.835  2.6713  0.2447  2.2444
22367SOL    HW268970   1.579   1.236   3.958  0.5800  1.7151  1.9922
22368SOL     OW68971   4.247   2.269   1.585  0.5910 -0.0681 -0.2316
22368SOL    HW168972   4.183   2.341   1.585  0.2962 -0.2665  1.5218
22368SOL    HW268973   4.324   2.305   1.543 -0.2306  0.6096 -1.2113
22369SOL     OW68974   7.851   6.804   7.284 -0.0522  0.0133  0.2071
22369SOL    HW168975   7.837   6.882   7.230 -0.6208  0.8046  1.4599
22369SOL    HW268976   7.909   6.748   7.231  0.1546  1.1638 -0.8158
22370SOL     OW68977   5.935   1.229   1.135  0.7849 -0.1056 -0.3816
22370SOL    HW168978   5.914   1.199   1.223 -1.0156  1.2119 -0.3109
22370SOL    HW268979   6.026   1.259   1.141  1.6711 -2.6831  0.2384
22371SOL     OW68980   4.879   3.033   6.337 -0.1209 -0.0847 -0.2146
22371SOL    HW168981   4.958   3.024   6.285  2.2820  1.5698  2.8371
22371SOL    HW268982   4.857   2.944   6.363  0.3468 -0.6190 -1.5803
22372SOL     OW68983   6.593   2.314   8.918 -0.3719  0.0692  0.8344
22372SOL    HW168984   6.522   2.353   8.968  0.2212  0.7778  1.1409
22372SOL    HW268985   6.663   2.380   8.919 -0.1657 -0.0981 -0.5033
22373SOL     OW68986   8.692   7.264   8.230  0.3790  0.4598 -0.7380
22373SOL    HW168987   8.654   7.188   8.273  1.8935  0.8944  1.5357
22373SOL    HW268988   8.743   7.228   8.157  2.3767 -0.9309  1.2529
22374SOL     OW68989   1.792   7.987   7.718  0.5041  0.4305  0.2101
22374SOL    HW168990   1.715   8.028   7.758  0.2611  0.6706 -0.4906
22374SOL    HW268991   1.865   8.013   7.775 -0.1368 -1.2751  1.9150
22375SOL     OW68992   8.958   8.036   4.589  0.3130  0.5630  0.3994
22375SOL    HW168993   8.865   8.024   4.611  0.2842  1.0505  0.5795
22375SOL    HW268994   8.957   8.080   4.504  0.4290 -1.6388 -0.7863
22376SOL     OW68995   0.265   8.364   5.755  0.2348 -0.4167 -0.2827
22376SOL    HW168996   0.335   8.428   5.748 -0.0311 -0.2281 -1.5168
22376SOL    HW268997   0.249   8.336   5.665 -1.4064 -0.2910 -0.0673
22377SOL     OW68998   7.429   4.134   8.657 -0.0859 -0.1036  0.6033
22377SOL    HW168999   7.383   4.217   8.671 -0.1942 -0.4614  2.6311
22377SOL    HW269000   7.438   4.096   8.745  0.3911 -2.0217 -0.2241
22378SOL     OW69001   4.594   2.629   8.743 -0.0585  0.4241 -0.2550
22378SOL    HW169002   4.526   2.590   8.688  0.7721 -0.8994 -0.3946
22378SOL    HW269003   4.654   2.670   8.681 -0.7190  1.6212 -0.1297
22379SOL     OW69004   6.004   3.201   5.954  0.0812  0.0244 -0.2706
22379SOL    HW169005   6.072   3.170   6.013  0.4465 -1.1205 -1.2537
22379SOL    HW269006   5.925   3.204   6.007  0.5895 -0.0569  0.5028
22380SOL     OW69007   8.821   3.590   4.930  0.0434  0.2124  0.3348
22380SOL    HW169008   8.914   3.596   4.907 -0.2545  3.6323 -0.5741
22380SOL    HW269009   8.801   3.674   4.972 -3.0009  0.3076 -1.0169
22381SOL     OW69010   4.212   4.034   0.630 -0.8910 -0.4629 -0.0710
22381SOL    HW169011   4.153   4.077   0.568 -1.4642 -1.5251 -0.2901
22381SOL    HW269012   4.193   4.077   0.714  0.2123  1.2996 -0.6647
22382SOL     OW69013   2.984   7.796   4.810 -0.0674 -0.6221  0.2744
22382SOL    HW169014   2.923   7.724   4.824 -0.8384  0.1285  0.8841
22382SOL    HW269015   3.038   7.798   4.889  0.8638 -1.3689 -0.3193
22383SOL     OW69016   1.190   6.464   2.796 -0.0792 -0.1568  0.4738
22383SOL    HW169017   1.098   6.440   2.810 -0.6585  1.4134 -0.3611
22383SOL    HW269018   1.191   6.502   2.708  0.9954  1.5311  1.1739
22384SOL     OW69019   3.303   7.100   2.653  0.2381 -0.3147 -0.3547
22384SOL    HW169020   3.371   7.033   2.644  0.3631 -0.0481 -1.5874
22384SOL    HW269021   3.276   7.119   2.564 -0.0942  0.9730 -0.0076
22385SOL     OW69022   1.997   3.745   6.338 -0.3873 -0.2992  0.0126
22385SOL    HW169023   1.909   3.721   6.307 -0.1961 -0.0180 -0.7697
22385SOL    HW269024   2.018   3.677   6.402 -0.3769 -1.5258 -1.2431
22386SOL     OW69025   4.787   1.193   1.670 -0.1130  0.1415  0.5563
22386SOL    HW169026   4.841   1.115   1.655  0.1243  0.0372  1.8487
22386SOL    HW269027   4.824   1.259   1.612 -0.6060 -0.8220 -0.9111
22387SOL     OW69028   5.884   1.799   2.278  0.2825  0.5246 -0.2462
22387SOL    HW169029   5.792   1.798   2.305 -0.8980 -1.1636 -3.7514
22387SOL    HW269030   5.889   1.871   2.215  2.0232  2.0244  1.4705
22388SOL     OW69031   2.027   1.145   1.638  0.1219 -0.3040  0.5591
22388SOL    HW169032   2.114   1.185   1.630 -0.3523  0.4625 -1.1117
22388SOL    HW269033   2.017   1.130   1.732  1.3451  1.2221  0.9832
22389SOL     OW69034   8.888   6.313   2.566  0.1262 -0.1715 -0.5131
22389SOL    HW169035   8.883   6.408   2.575  0.4349 -0.1030 -1.0273
22389SOL    HW269036   8.797   6.284   2.566  0.0460 -0.0318  1.1125
22390SOL     OW69037   2.763   3.836   1.025  0.2918 -0.0129 -0.0628
22390SOL    HW169038   2.805   3.788   1.096  0.4499 -0.1244 -0.2342
22390SOL    HW269039   2.708   3.772   0.981  0.9849 -0.1933 -0.6842
22391SOL     OW69040   3.483   3.349   3.223 -0.2668  0.1784 -0.2441
22391SOL    HW169041   3.517   3.394   3.300  1.3397  0.4024 -1.0423
22391SOL    HW269042   3.476   3.418   3.157  1.9030 -0.6204 -1.3796
22392SOL     OW69043   1.613   0.632   1.317  0.3724 -0.3668  0.0682
22392SOL    HW169044   1.554   0.617   1.391  0.6475 -1.3929  0.0847
22392SOL    HW269045   1.571   0.588   1.243  1.3042 -1.4933  0.1751
22393SOL     OW69046   5.887   1.081   0.828  0.0497  0.6488 -0.0792
22393SOL    HW169047   5.849   1.140   0.893  0.1262 -0.2960  0.8483
22393SOL    HW269048   5.814   1.060   0.770 -0.3058  0.6075  0.3727
22394SOL     OW69049   5.851   4.638   7.089 -0.3450 -0.0186  0.3503
22394SOL    HW169050   5.937   4.618   7.051 -0.9128 -0.1259 -0.9262
22394SOL    HW269051   5.840   4.573   7.158 -0.5364 -1.7745 -1.2588
22395SOL     OW69052   2.003   2.844   0.861 -0.3621 -0.1531  0.4215
22395SOL    HW169053   2.032   2.756   0.881 -0.8099 -0.5453 -0.5956
22395SOL    HW269054   1.930   2.860   0.921  1.2909  0.5134  2.3741
22396SOL     OW69055   8.086   3.657   2.226  0.1754 -0.7083 -0.9070
22396SOL    HW169056   8.144   3.691   2.294  0.7609 -1.3189 -1.0843
22396SOL    HW269057   8.129   3.576   2.197 -0.1732 -0.5538 -1.8661
22397SOL     OW69058   6.038   8.716   6.097 -0.3202  0.2345 -0.1698
22397SOL    HW169059   6.003   8.705   6.186  1.1865 -0.8949  0.3359
22397SOL    HW269060   6.023   8.808   6.076  0.1683  0.7838  1.6694
22398SOL     OW69061   8.050   5.372   3.098 -0.1398 -0.0694 -0.5301
22398SOL    HW169062   8.065   5.306   3.166 -0.1691  0.1775 -0.2810
22398SOL    HW269063   8.110   5.444   3.120  0.4181 -0.3149 -1.2156
22399SOL     OW69064   3.647   5.657   4.266 -0.4255 -0.5051  0.2579
22399SOL    HW169065   3.708   5.730   4.271  0.4398 -1.1685 -0.2644
22399SOL    HW269066   3.703   5.579   4.267 -1.3756 -1.2129  1.8905
22400SOL     OW69067   0.201   2.793   6.749  0.0626  0.0837 -1.0416
22400SOL    HW169068   0.289   2.822   6.723 -0.1138  1.0922 -0.6002
22400SOL    HW269069   0.158   2.874   6.779 -1.0742 -0.3679 -1.4048
22401SOL     OW69070   5.305   2.879   0.286 -0.6573 -0.0735  0.4213
22401SOL    HW169071   5.336   2.939   0.354  1.7123 -0.3875 -0.2766
22401SOL    HW269072   5.348   2.796   0.306 -1.7755 -0.8131 -0.1534
22402SOL     OW69073   1.527   1.559   3.167 -0.6731 -0.4151  0.4229
22402SOL    HW169074   1.609   1.558   3.118 -0.5344  2.4553  0.3924
22402SOL    HW269075   1.459   1.564   3.099 -0.7833 -1.1981  0.4713
22403SOL     OW69076   7.034   1.014   8.015 -0.0769 -0.1658 -0.1098
22403SOL    HW169077   7.072   1.093   7.976 -0.9051 -0.7886 -2.3482
22403SOL    HW269078   6.946   1.041   8.043  0.3299  0.1559  0.8824
22404SOL     OW69079   8.542   2.262   3.546 -0.4607 -0.1064  0.9428
22404SOL    HW169080   8.597   2.184   3.550 -0.2333  0.0160  0.3022
22404SOL    HW269081   8.556   2.297   3.458 -0.6778  0.5678  1.1661
22405SOL     OW69082   7.169   4.974   0.864 -0.0286 -0.0967  0.6154
22405SOL    HW169083   7.253   4.935   0.836 -0.3289 -1.3128  1.3310
22405SOL    HW269084   7.108   4.900   0.864 -1.0216  0.7120  0.4598
22406SOL     OW69085   8.348   5.375   2.766  0.2176 -0.0167  0.0324
22406SOL    HW169086   8.267   5.352   2.812 -0.3557 -0.5045 -1.1643
22406SOL    HW269087   8.381   5.292   2.732  0.9184  0.2566  0.0229
22407SOL     OW69088   7.388   8.328   7.142  0.3443  0.5478  0.5467
22407SOL    HW169089   7.386   8.356   7.051 -1.0386  2.4269  1.0733
22407SOL    HW269090   7.457   8.261   7.146 -0.6834 -0.8065 -2.1638
22408SOL     OW69091   2.253   1.810   1.662 -0.1010  0.6564 -0.2701
22408SOL    HW169092   2.187   1.817   1.593 -2.9252 -2.9494  1.7364
22408SOL    HW269093   2.225   1.872   1.729 -0.7084  0.0549  0.0345
22409SOL     OW69094   6.919   4.897   2.442 -0.5424 -0.4502  0.4585
22409SOL    HW169095   6.961   4.960   2.383  0.2847  0.0900  1.5874
22409SOL    HW269096   6.835   4.938   2.463 -0.8545 -0.6567 -0.3343
22410SOL     OW69097   1.225   0.963   1.630  0.3872  0.0153  0.1369
22410SOL    HW169098   1.317   0.940   1.616 -0.3289 -1.8472 -2.1437
22410SOL    HW269099   1.212   1.039   1.573  0.4944  0.2431  0.4149
22411SOL     OW69100   0.980   1.569   8.353 -0.1367 -0.5808 -0.1107
22411SOL    HW169101   0.949   1.550   8.442  0.4173 -1.6302 -0.1240
22411SOL    HW269102   0.945   1.656   8.333 -0.4558 -0.4289  1.0482
22412SOL     OW69103   2.018   7.427   4.695 -0.0607  0.7777 -0.1207
22412SOL    HW169104   2.053   7.345   4.659 -0.1653  0.8539 -0.4045
22412SOL    HW269105   1.989   7.404   4.783 -0.3208  0.4505 -0.2895
22413SOL     OW69106   0.286   7.145   3.529 -0.1406  0.1733 -1.3946
22413SOL    HW169107   0.309   7.054   3.511 -4.0176 -1.0076 -1.1815
22413SOL    HW269108   0.249   7.178   3.447  2.8818  2.3236 -2.0695
22414SOL     OW69109   4.002   5.610   7.176  0.0979  0.0007 -0.6680
22414SOL    HW169110   4.038   5.533   7.221  0.6823 -0.2788 -1.5950
22414SOL    HW269111   3.957   5.573   7.100 -1.6519  0.3920  0.1332
22415SOL     OW69112   3.566   8.718   5.937  0.4091  0.7946  0.2550
22415SOL    HW169113   3.646   8.735   5.888  0.3924  1.2388  0.3812
22415SOL    HW269114   3.510   8.794   5.920  0.5589  1.1508  1.2758
22416SOL     OW69115   6.325   8.047   8.202  0.2494 -0.1194  0.4455
22416SOL    HW169116   6.408   8.094   8.203 -0.0664  0.6127 -1.9981
22416SOL    HW269117   6.346   7.963   8.161 -0.3856  0.5625 -1.3756
22417SOL     OW69118   6.244   1.215   4.960  0.3640  1.2217 -0.0196
22417SOL    HW169119   6.277   1.139   4.913  0.0281  1.5288 -0.7704
22417SOL    HW269120   6.286   1.210   5.046  0.9989  0.6552 -0.3511
22418SOL     OW69121   8.031   4.334   1.424  0.1013  0.3847 -0.6183
22418SOL    HW169122   8.060   4.416   1.384 -0.2221  1.2816  0.8940
22418SOL    HW269123   7.961   4.360   1.484  1.3088 -0.6834  1.3723
22419SOL     OW69124   5.779   5.860   2.692  0.0320  0.1663  0.0477
22419SOL    HW169125   5.836   5.787   2.714  1.2364  0.6572 -1.3055
22419SOL    HW269126   5.790   5.922   2.764  1.3943  0.3383 -0.2859
22420SOL     OW69127   3.057   6.403   1.878 -0.4563 -0.0932 -0.3195
22420SOL    HW169128   3.011   6.456   1.943  1.0442  0.0392  0.6858
22420SOL    HW269129   3.041   6.312   1.905 -0.5215 -0.0678 -0.2731
22421SOL     OW69130   0.146   8.221   6.230  0.6103 -0.4365  0.5049
22421SOL    HW169131   0.136   8.177   6.314 -0.2641 -1.6738 -0.2302
22421SOL    HW269132   0.229   8.268   6.238  1.9918 -2.8195  1.0769
22422SOL     OW69133   7.771   4.778   4.277 -0.1122  0.4947  0.8959
22422SOL    HW169134   7.747   4.696   4.234 -0.2750  0.7606  0.4650
22422SOL    HW269135   7.790   4.754   4.367  1.4957 -0.3034  0.3872
22423SOL     OW69136   2.643   3.996   7.763 -1.0663 -0.0145 -0.0366
22423SOL    HW169137   2.598   3.949   7.693 -0.3939 -1.3605  0.4028
22423SOL    HW269138   2.678   4.074   7.721 -0.3756 -0.9646 -1.2963
22424SOL     OW69139   4.236   4.443   0.402 -0.1156  0.2316 -0.4791
22424SOL    HW169140   4.232   4.492   0.320  0.5462 -1.2398 -1.4228
22424SOL    HW269141   4.183   4.365   0.386 -0.0705 -0.0184  0.5340
22425SOL     OW69142   2.191   6.307   3.668 -0.1362 -0.4525 -0.0920
22425SOL    HW169143   2.177   6.376   3.604 -1.5266 -1.7326 -1.2407
22425SOL    HW269144   2.165   6.347   3.752 -2.4973 -0.0109 -0.9530
22426SOL     OW69145   3.550   5.221   1.923 -0.0592 -0.1129 -0.2954
22426SOL    HW169146   3.632   5.178   1.946 -0.2146  0.0108  0.5296
22426SOL    HW269147   3.510   5.242   2.007  0.3094  2.2565 -0.6516
22427SOL     OW69148   3.525   5.288   3.424 -0.1733 -0.2910  0.1050
22427SOL    HW169149   3.565   5.373   3.408  0.6114 -0.5452  0.6322
22427SOL    HW269150   3.517   5.248   3.337 -1.4826  0.7018 -0.2649
22428SOL     OW69151   5.228   3.114   4.751 -0.1219 -0.0597  0.5246
22428SOL    HW169152   5.297   3.144   4.810 -1.5190 -0.3271  2.3782
22428SOL    HW269153   5.192   3.036   4.793  0.8390 -2.1858 -2.2362
22429SOL     OW69154   0.536   8.621   1.492 -0.7972  0.0034  0.4024
22429SOL    HW169155   0.584   8.630   1.409 -0.2413  1.1591  0.8281
22429SOL    HW269156   0.600   8.646   1.559 -1.1857 -1.0832  1.2077
22430SOL     OW69157   3.496   7.334   7.818 -0.2961 -0.3405  0.4365
22430SOL    HW169158   3.438   7.400   7.855  1.9328  1.6228  0.6751
22430SOL    HW269159   3.476   7.333   7.724 -1.8396 -0.9818  0.7403
22431SOL     OW69160   4.000   8.833   2.039 -0.4888  0.0316 -0.3160
22431SOL    HW169161   4.001   8.810   2.132 -1.4246 -3.3460 -1.0082
22431SOL    HW269162   4.088   8.867   2.022 -0.3874  1.0318  1.8138
22432SOL     OW69163   6.957   1.664   6.829 -0.4701  0.2648 -0.1369
22432SOL    HW169164   6.890   1.701   6.773 -1.0218  1.4841  1.2543
22432SOL    HW269165   6.996   1.739   6.874  2.7804 -0.2229 -1.8302
22433SOL     OW69166   2.814   1.177   8.036 -0.4480 -0.2284  0.5601
22433SOL    HW169167   2.850   1.104   8.087  0.4674  0.5000  0.9924
22433SOL    HW269168   2.843   1.161   7.947 -2.9702 -2.1103 -0.0642
22434SOL     OW69169   2.613   2.511   8.035  0.2271  0.3828  0.2779
22434SOL    HW169170   2.683   2.477   8.091 -0.3304  0.5372  1.0784
22434SOL    HW269171   2.655   2.525   7.950  0.8426 -0.8529  0.3500
22435SOL     OW69172   2.817   3.911   7.389 -0.4246 -0.4714  0.1510
22435SOL    HW169173   2.893   3.962   7.417 -0.3236  1.5007 -3.1749
22435SOL    HW269174   2.754   3.920   7.460  0.9281  1.3530  1.1997
22436SOL     OW69175   2.846   5.698   6.423  0.2709 -0.4836 -0.3588
22436SOL    HW169176   2.889   5.661   6.501 -1.2301 -1.5081  0.0420
22436SOL    HW269177   2.838   5.624   6.363 -2.0575 -0.7109  0.1246
22437SOL     OW69178   4.912   6.275   3.100 -0.5412  0.7423 -0.3468
22437SOL    HW169179   4.937   6.208   3.036 -1.4025  0.5186 -0.4627
22437SOL    HW269180   4.992   6.325   3.116 -0.0602  0.1112 -0.7773
22438SOL     OW69181   4.676   8.876   6.900  0.2050 -0.3087 -0.3728
22438SOL    HW169182   4.620   8.832   6.836 -0.2513 -3.2753  1.8602
22438SOL    HW269183   4.764   8.848   6.879  0.3907  0.9013 -1.2838
22439SOL     OW69184   5.876   0.273   0.447 -0.8344 -0.4479 -0.1401
22439SOL    HW169185   5.914   0.339   0.389  0.0783  1.1696  2.1998
22439SOL    HW269186   5.782   0.295   0.449 -0.4503  1.2425  1.1142
22440SOL     OW69187   6.148   5.705   2.666  0.5217 -0.5178  0.0355
22440SOL    HW169188   6.109   5.738   2.585  2.7525  1.8188 -0.2159
22440SOL    HW269189   6.075   5.699   2.727 -0.6999  0.8379 -1.2173
22441SOL     OW69190   3.088   2.075   4.352 -0.2974 -0.1661  0.5268
22441SOL    HW169191   3.055   2.004   4.407 -3.9550  0.4335 -0.6333
22441SOL    HW269192   3.181   2.056   4.342 -0.8040 -3.9687  1.4590
22442SOL     OW69193   5.477   2.568   0.991 -0.3097  0.7016 -0.4728
22442SOL    HW169194   5.515   2.552   1.077 -0.1155  0.2038 -0.6420
22442SOL    HW269195   5.552   2.590   0.936 -0.0992 -1.2309 -1.0314
22443SOL     OW69196   0.578   2.440   1.607  0.3169 -0.1051  0.0708
22443SOL    HW169197   0.640   2.463   1.676  0.3282  0.9838 -0.2788
22443SOL    HW269198   0.567   2.345   1.615  2.8356 -0.5288 -0.5197
22444SOL     OW69199   3.716   4.353   0.046  0.3284 -0.6010 -0.4753
22444SOL    HW169200   3.793   4.410   0.047  0.3074 -0.5761  0.2764
22444SOL    HW269201   3.656   4.395  -0.015  0.2225  0.2988  0.2484
22445SOL     OW69202   3.849   5.891   4.235  0.3323  0.6506  0.0223
22445SOL    HW169203   3.927   5.846   4.203  1.0758  1.8823  0.0535
22445SOL    HW269204   3.859   5.981   4.205  0.1402  1.4061  2.0718
22446SOL     OW69205   2.668   7.235   6.935 -0.2364  0.1348 -0.7112
22446SOL    HW169206   2.575   7.220   6.955 -0.1423  1.3560  0.8629
22446SOL    HW269207   2.668   7.310   6.876 -0.2271  1.4665  0.8885
22447SOL     OW69208   6.657   4.574   8.612  0.0116  0.0182 -0.9783
22447SOL    HW169209   6.695   4.528   8.537  0.3844  1.2157 -1.5491
22447SOL    HW269210   6.564   4.577   8.593  0.0997  0.2861 -1.3983
22448SOL     OW69211   4.393   2.763   1.375  0.2077  0.1892 -0.5919
22448SOL    HW169212   4.426   2.811   1.451 -0.2836 -0.1528 -0.1504
22448SOL    HW269213   4.298   2.777   1.378 -0.3057 -2.7817  1.0082
22449SOL     OW69214   0.560   5.124   0.885 -0.0793  0.1499  0.0516
22449SOL    HW169215   0.574   5.031   0.903 -2.3464 -0.4772 -0.9985
22449SOL    HW269216   0.646   5.165   0.897  0.9915 -2.0935  0.4274
22450SOL     OW69217   2.393   5.708   5.392 -0.1151 -0.7711  0.4572
22450SOL    HW169218   2.306   5.692   5.354 -0.1133  1.4818 -0.6730
22450SOL    HW269219   2.379   5.780   5.454  1.0304  0.1221 -0.2897
22451SOL     OW69220   2.952   5.808   7.336 -0.6315 -0.0619  0.2719
22451SOL    HW169221   2.944   5.870   7.263  0.5274  0.2085  0.3551
22451SOL    HW269222   3.041   5.775   7.330 -0.5615 -0.1468  1.4884
22452SOL     OW69223   0.326   5.970   5.061 -0.0538  0.5410 -0.0795
22452SOL    HW169224   0.277   5.947   4.982 -0.8055 -2.8453  1.1808
22452SOL    HW269225   0.413   5.996   5.029 -0.9832  1.3569 -2.0788
22453SOL     OW69226   2.804   2.008   5.476 -0.1223  0.2302  0.0765
22453SOL    HW169227   2.885   1.958   5.487 -0.3554 -0.2326 -0.2593
22453SOL    HW269228   2.801   2.029   5.383 -1.3092 -1.3950 -0.2975
22454SOL     OW69229   0.098   6.355   2.995 -0.0618 -0.1326 -0.0058
22454SOL    HW169230   0.010   6.329   3.022  0.1305 -1.4575 -0.5367
22454SOL    HW269231   0.140   6.272   2.971  0.9524  0.6018 -0.8316
22455SOL     OW69232   5.939   0.635   4.189 -0.3889  0.6685  0.0764
22455SOL    HW169233   5.935   0.711   4.246 -0.9931  2.2994 -2.0355
22455SOL    HW269234   5.898   0.565   4.240 -0.4489  1.8974  1.8116
22456SOL     OW69235   2.050   7.930   8.442 -0.2246 -0.0325 -0.2641
22456SOL    HW169236   2.081   7.994   8.506 -0.7229  0.9133 -0.9436
22456SOL    HW269237   1.988   7.875   8.490  0.0018  0.1609  0.2536
22457SOL     OW69238   1.095   3.117   5.606  0.1175 -0.5813 -0.1240
22457SOL    HW169239   1.077   3.151   5.519 -3.1858 -1.9897 -0.1064
22457SOL    HW269240   1.023   3.147   5.660  1.1767 -1.1957  1.7423
22458SOL     OW69241   2.882   2.308   4.920 -0.0588 -0.0339  0.1649
22458SOL    HW169242   2.976   2.321   4.927  0.2388 -0.6974 -1.7799
22458SOL    HW269243   2.846   2.395   4.907  0.4239  0.1252 -0.1301
22459SOL     OW69244   2.071   8.864   8.658  0.1399 -0.2732  0.6251
22459SOL    HW169245   2.160   8.832   8.673 -0.2114 -1.0180  1.1841
22459SOL    HW269246   2.050   8.911   8.739 -0.1327 -0.4739  0.6711
22460SOL     OW69247   6.388   5.788   0.998 -0.3133 -0.4168 -0.4139
22460SOL    HW169248   6.340   5.865   0.965 -1.3916 -0.6497  0.5706
22460SOL    HW269249   6.479   5.805   0.973 -0.8552  0.0691 -2.2857
22461SOL     OW69250   0.750   7.526   7.209 -0.1622 -0.5157 -0.5392
22461SOL    HW169251   0.731   7.604   7.157 -0.9656 -1.3714 -1.5765
22461SOL    HW269252   0.763   7.457   7.144 -1.2230 -1.6255  0.3938
22462SOL     OW69253   2.056   6.745   5.947  0.5706  0.3363  0.2166
22462SOL    HW169254   2.019   6.740   5.860  0.1996 -0.8222  0.4339
22462SOL    HW269255   2.124   6.678   5.949  0.4074  0.1766  0.8925
22463SOL     OW69256   5.492   1.697   5.039  0.1737 -0.2392  0.7573
22463SOL    HW169257   5.492   1.629   4.972  0.5968 -0.2115  0.7225
22463SOL    HW269258   5.580   1.692   5.078 -0.3913 -0.9620  2.0269
22464SOL     OW69259   5.215   3.166   6.475 -0.5833 -0.1072 -0.1229
22464SOL    HW169260   5.183   3.087   6.518  0.0110  0.1063  0.7436
22464SOL    HW269261   5.198   3.236   6.539  2.0412 -0.0515  0.6126
22465SOL     OW69262   2.685   4.840   6.507  0.1781  0.8834  0.0243
22465SOL    HW169263   2.633   4.857   6.586 -0.0291  1.4147 -0.2245
22465SOL    HW269264   2.773   4.869   6.529  0.7282 -1.2681  0.9291
22466SOL     OW69265   6.844   2.491   4.017 -0.3700 -0.1650 -0.1132
22466SOL    HW169266   6.783   2.565   4.014  0.4346  0.4855 -1.0049
22466SOL    HW269267   6.914   2.515   3.957  1.0613 -0.6349  1.2863
22467SOL     OW69268   5.760   7.987   2.113 -0.2083  0.3570 -0.5813
22467SOL    HW169269   5.743   8.081   2.110  1.8141  0.7492 -1.1487
22467SOL    HW269270   5.838   7.978   2.168 -1.9400 -1.2863  1.8266
22468SOL     OW69271   2.375   6.915   4.266  0.4441 -0.3908 -0.1255
22468SOL    HW169272   2.303   6.940   4.209  1.5444  2.8925 -0.2751
22468SOL    HW269273   2.443   6.882   4.207 -0.1718 -1.6802 -0.1537
22469SOL     OW69274   7.072   6.382   0.785 -0.3800  0.5077  0.4006
22469SOL    HW169275   7.035   6.444   0.722  0.3590 -0.1355 -0.6866
22469SOL    HW269276   7.136   6.433   0.835  1.1072  0.3773 -1.2912
22470SOL     OW69277   8.719   2.811   4.278 -0.3267 -0.5237 -0.4978
22470SOL    HW169278   8.637   2.763   4.293 -0.6294  0.2777  0.4889
22470SOL    HW269279   8.692   2.902   4.269  0.2082 -0.5323 -2.7127
22471SOL     OW69280   3.537   1.933   3.491 -0.1955  0.3665  0.1772
22471SOL    HW169281   3.611   1.893   3.445 -1.4190  0.3037 -1.8414
22471SOL    HW269282   3.561   2.026   3.497  0.9537  0.0251  1.4787
22472SOL     OW69283   7.827   1.003   4.595  0.1015 -0.3791  0.5389
22472SOL    HW169284   7.824   0.950   4.516  0.9334 -0.0851  0.2957
22472SOL    HW269285   7.781   0.951   4.661  1.0426 -1.4798  0.3543
22473SOL     OW69286   3.796   6.784   5.405 -0.0486  0.0226 -0.0455
22473SOL    HW169287   3.863   6.788   5.473 -0.0100 -0.2070 -0.0692
22473SOL    HW269288   3.715   6.767   5.453 -0.1830  0.8508  0.0375
22474SOL     OW69289   5.841   2.781   1.002 -0.4533 -0.3010 -0.0874
22474SOL    HW169290   5.874   2.692   0.988  2.0594  0.5695 -0.2211
22474SOL    HW269291   5.842   2.821   0.915 -1.2185 -0.0104  0.0298
22475SOL     OW69292   5.568   8.927   4.010  0.3273 -0.3294 -0.5221
22475SOL    HW169293   5.535   8.973   4.088  0.5567 -0.4747 -0.3350
22475SOL    HW269294   5.523   8.843   4.010  0.9174 -0.6594 -0.0855
22476SOL     OW69295   6.575   2.103   2.120  0.2525 -0.1263  0.0756
22476SOL    HW169296   6.503   2.044   2.140  0.5063 -1.1364 -1.7282
22476SOL    HW269297   6.568   2.117   2.025  2.3189 -0.1422 -0.1188
22477SOL     OW69298   4.090   6.361   7.730 -0.2974  0.4548 -0.2321
22477SOL    HW169299   4.052   6.314   7.804 -0.1180 -0.6024 -0.7999
22477SOL    HW269300   4.160   6.414   7.769  1.2270 -1.6881  0.1164
22478SOL     OW69301   1.636   5.932   8.872  0.0543  0.1451 -0.1980
22478SOL    HW169302   1.654   5.841   8.895  0.6454  0.2840 -0.1156
22478SOL    HW269303   1.618   5.974   8.956  1.2839  0.4401 -0.0638
22479SOL     OW69304   4.498   6.874   1.375 -0.4655 -0.0048  0.2267
22479SOL    HW169305   4.554   6.807   1.414 -0.7541 -0.9510 -0.9321
22479SOL    HW269306   4.495   6.944   1.441  2.5971  0.3959  0.0919
22480SOL     OW69307   8.342   2.604   3.773  0.5845  0.2692 -0.4865
22480SOL    HW169308   8.249   2.582   3.773  0.9590 -1.5779  1.1758
22480SOL    HW269309   8.376   2.563   3.852  2.8691  0.7214 -1.1738
22481SOL     OW69310   6.392   4.797   8.142  0.3252  0.2230  0.2057
22481SOL    HW169311   6.318   4.743   8.113  1.2918 -0.7500 -0.5350
22481SOL    HW269312   6.364   4.887   8.124  0.1776 -0.2426 -2.2269
22482SOL     OW69313   6.734   5.339   8.639  0.2785 -0.3294  0.5413
22482SOL    HW169314   6.704   5.248   8.645  1.8720 -0.8032  2.7432
22482SOL    HW269315   6.654   5.390   8.623 -0.9411 -1.9627  1.1682
22483SOL     OW69316   7.287   1.888   5.329 -0.0057  0.0875 -0.1579
22483SOL    HW169317   7.374   1.926   5.336 -0.1665  0.4149  0.1256
22483SOL    HW269318   7.302   1.797   5.302  0.4571 -0.0637  0.5912
22484SOL     OW69319   3.536   5.819   8.770  0.3039 -0.1633 -0.4527
22484SOL    HW169320   3.490   5.828   8.687 -0.2508 -1.2950 -0.2942
22484SOL    HW269321   3.467   5.801   8.834  0.8282 -0.3850  0.0623
22485SOL     OW69322   2.638   1.287   3.772  0.4409  0.2827  0.1178
22485SOL    HW169323   2.720   1.306   3.727  0.4543  2.9722  1.1084
22485SOL    HW269324   2.610   1.203   3.736  2.5581  0.2959 -1.7701
22486SOL     OW69325   8.405   4.550   3.425 -0.1237 -0.3552 -0.0189
22486SOL    HW169326   8.408   4.589   3.513  2.4742  1.1176 -0.6497
22486SOL    HW269327   8.485   4.581   3.383 -1.7593 -0.2353 -3.2825
22487SOL     OW69328   6.974   3.682   0.757 -0.2093  0.6705  0.0157
22487SOL    HW169329   7.068   3.688   0.742 -0.1418  0.9198  0.5165
22487SOL    HW269330   6.964   3.608   0.817 -0.4432 -0.0870 -0.9250
22488SOL     OW69331   2.319   0.584   7.059 -0.2546  0.6491  0.4203
22488SOL    HW169332   2.377   0.659   7.044 -0.3175  0.8122  1.0104
22488SOL    HW269333   2.287   0.595   7.148  1.7117 -1.3863  1.4927
22489SOL     OW69334   6.170   1.018   3.579 -0.1603 -0.0224 -0.2293
22489SOL    HW169335   6.134   0.930   3.590  0.1624 -0.0900  0.3550
22489SOL    HW269336   6.221   1.032   3.659 -1.4093  1.2789  0.3840
22490SOL     OW69337   0.985   8.149   4.576  0.4159  0.2968  0.2623
22490SOL    HW169338   1.066   8.187   4.541  0.0650  0.3011 -0.5733
22490SOL    HW269339   1.006   8.056   4.588  0.7764  0.4429  0.7669
22491SOL     OW69340   7.502   4.629   7.920  0.7838 -0.2680  0.2462
22491SOL    HW169341   7.582   4.601   7.965  3.1940  1.4817 -2.5868
22491SOL    HW269342   7.516   4.605   7.828 -1.7547  0.5889 -0.4553
22492SOL     OW69343   6.585   8.244   4.897  0.0337  0.5408 -0.7070
22492SOL    HW169344   6.616   8.333   4.910  0.5410  0.3743 -0.7603
22492SOL    HW269345   6.627   8.194   4.967  1.9960 -0.1771 -2.3161
22493SOL     OW69346   8.294   2.269   4.343 -1.0860 -0.1818  0.3080
22493SOL    HW169347   8.284   2.264   4.438 -1.8863  1.1493  0.3171
22493SOL    HW269348   8.375   2.222   4.325 -1.0504 -0.6663  1.6205
22494SOL     OW69349   0.160   2.118   8.581  0.2087  0.0206 -0.6737
22494SOL    HW169350   0.105   2.090   8.507 -0.6154  0.5791 -0.2873
22494SOL    HW269351   0.099   2.126   8.654  1.0908 -0.9067  0.1818
22495SOL     OW69352   8.346   1.236   7.441 -0.7528  0.0010 -0.9048
22495SOL    HW169353   8.301   1.195   7.514 -2.3210  1.4104 -0.9972
22495SOL    HW269354   8.282   1.234   7.369 -0.3840  1.2809 -1.3094
22496SOL     OW69355   5.359   1.763   8.799  0.3849  0.0792 -0.2677
22496SOL    HW169356   5.314   1.847   8.791 -0.5217 -0.3411  0.3539
22496SOL    HW269357   5.292   1.702   8.826  0.9871 -0.9161 -0.9535
22497SOL     OW69358   6.196   8.420   7.757 -0.1338  0.5763  0.1831
22497SOL    HW169359   6.163   8.476   7.827 -2.3054  0.7181 -0.8733
22497SOL    HW269360   6.257   8.360   7.801 -0.3476  1.5751  1.9228
22498SOL     OW69361   6.427   2.044   2.820  0.2206 -0.5469 -0.2878
22498SOL    HW169362   6.467   2.043   2.907  0.2346  3.2640 -0.0708
22498SOL    HW269363   6.344   2.091   2.832 -0.1417 -0.6161 -2.1865
22499SOL     OW69364   8.236   3.467   8.522 -0.1199 -0.7904 -0.1968
22499SOL    HW169365   8.188   3.474   8.439  0.0570  1.2424 -0.1815
22499SOL    HW269366   8.182   3.409   8.576 -0.4766 -1.7752 -1.5539
22500SOL     OW69367   3.891   6.096   7.528  0.0530 -0.0383 -0.3959
22500SOL    HW169368   3.953   6.030   7.558 -0.5431 -0.4765 -0.1001
22500SOL    HW269369   3.901   6.168   7.591 -1.0537 -0.8755  0.7927
22501SOL     OW69370   6.448   6.271   6.469  0.2760 -0.2270  0.6260
22501SOL    HW169371   6.499   6.334   6.520 -0.5666  0.2669  0.8968
22501SOL    HW269372   6.399   6.325   6.406 -1.2552 -0.4713  1.5438
22502SOL     OW69373   8.857   2.390   3.692  0.6574  0.2847  0.3509
22502SOL    HW169374   8.899   2.468   3.726 -0.9026  1.1120  0.4793
22502SOL    HW269375   8.853   2.330   3.767 -0.2346  1.0098  0.9037
22503SOL     OW69376   0.614   0.663   7.312 -0.2850  0.2024 -0.2305
22503SOL    HW169377   0.585   0.589   7.257 -1.0377  0.0735  0.3253
22503SOL    HW269378   0.549   0.668   7.382  0.2047  0.8956  0.1889
22504SOL     OW69379   0.934   6.045   3.789  0.1489 -0.5065 -0.4117
22504SOL    HW169380   0.865   6.010   3.733  1.6345 -1.4562 -1.7284
22504SOL    HW269381   0.931   5.991   3.868  0.2538 -1.4529 -1.0385
22505SOL     OW69382   3.738   3.371   8.096  0.3156 -0.1612 -0.2735
22505SOL    HW169383   3.799   3.336   8.032  1.2863  1.5089 -0.3053
22505SOL    HW269384   3.652   3.342   8.065  0.8180  0.0881 -1.9793
22506SOL     OW69385   0.356   0.220   4.716 -0.9388 -0.5218 -0.3587
22506SOL    HW169386   0.303   0.146   4.685  0.8600 -2.1650  0.3187
22506SOL    HW269387   0.445   0.185   4.722 -0.1004  1.5958  0.4149
22507SOL     OW69388   1.313   3.666   4.036 -0.8624 -0.1493 -0.1155
22507SOL    HW169389   1.372   3.606   4.082 -0.3678  0.5233  0.1656
22507SOL    HW269390   1.354   3.752   4.049 -1.1429  0.1514 -1.1468
22508SOL     OW69391   2.655   1.504   2.304 -0.0603  0.0647 -0.4619
22508SOL    HW169392   2.574   1.553   2.318  0.2103  0.3170  0.2428
22508SOL    HW269393   2.627   1.427   2.253 -0.2668  1.5898 -2.7892
22509SOL     OW69394   5.989   4.729   2.227 -0.2354  0.3714  0.1952
22509SOL    HW169395   6.004   4.679   2.307 -1.4086  0.8777  0.7519
22509SOL    HW269396   5.959   4.664   2.163  0.8292 -0.0559  0.0905
22510SOL     OW69397   4.376   7.518   0.132 -0.4234 -0.0110 -0.7477
22510SOL    HW169398   4.438   7.462   0.179  0.5517 -0.1710 -2.1495
22510SOL    HW269399   4.353   7.586   0.195 -0.4671 -1.1247  0.4927
22511SOL     OW69400   7.228   6.010   4.871  0.1518 -0.1642  0.5183
22511SOL    HW169401   7.240   5.945   4.801 -1.2309 -1.1813  1.1994
22511SOL    HW269402   7.151   6.060   4.844  1.9316  2.1710 -0.6699
22512SOL     OW69403   3.137   6.297   7.480 -0.4311 -0.2211  0.3852
22512SOL    HW169404   3.066   6.300   7.416  1.0344 -1.2146 -1.3741
22512SOL    HW269405   3.092   6.294   7.565 -2.4862 -0.8593 -0.6521
22513SOL     OW69406   6.952   0.058   6.610 -0.0664  0.0286  0.0157
22513SOL    HW169407   6.957   0.054   6.514 -1.6418  0.0328 -0.0972
22513SOL    HW269408   6.892   0.130   6.628 -1.5903 -1.3730  0.9046
22514SOL     OW69409   4.464   1.704   2.992  0.3292  0.3240  0.7818
22514SOL    HW169410   4.465   1.690   2.897 -2.9610  2.0265  0.3518
22514SOL    HW269411   4.426   1.623   3.027 -0.7221  0.6160  0.3549
22515SOL     OW69412   5.888   5.004   4.762 -0.4945  0.1065  0.2119
22515SOL    HW169413   5.798   4.973   4.760 -1.2208  2.0692  0.4448
22515SOL    HW269414   5.937   4.938   4.713 -2.1338 -0.7341 -0.3696
22516SOL     OW69415   8.960   0.400   5.120 -0.0925  0.2715  0.0477
22516SOL    HW169416   8.961   0.304   5.111  0.8019  0.2611  0.1492
22516SOL    HW269417   8.879   0.419   5.167 -0.4612 -0.4060 -0.2965
22517SOL     OW69418   2.436   4.222   8.060  0.0712 -0.1717 -0.0486
22517SOL    HW169419   2.450   4.229   8.155  0.7596 -1.2948 -0.0430
22517SOL    HW269420   2.341   4.226   8.049 -0.0079  0.0675  0.6771
22518SOL     OW69421   4.961   4.393   8.719  0.0816  0.1663 -0.3581
22518SOL    HW169422   4.920   4.475   8.746  0.9636  1.2575 -2.1122
22518SOL    HW269423   5.048   4.419   8.689  1.1316 -1.7171  0.8468
22519SOL     OW69424   0.088   6.523   4.775 -0.0223  0.2733 -0.3715
22519SOL    HW169425   0.053   6.460   4.712 -0.1132  0.2312 -0.2808
22519SOL    HW269426   0.137   6.469   4.837 -0.3231  0.2565 -0.1400
22520SOL     OW69427   6.558   5.136   3.517 -0.0539  0.1828  0.7263
22520SOL    HW169428   6.483   5.122   3.459 -1.3140  1.9929  1.8066
22520SOL    HW269429   6.541   5.082   3.593 -1.1229  1.7619  1.6571
22521SOL     OW69430   7.918   2.263   7.804  0.2556 -0.2318 -0.3959
22521SOL    HW169431   7.900   2.335   7.743 -0.6709 -0.5830 -0.5529
22521SOL    HW269432   7.920   2.304   7.890  0.8756  0.1546 -0.5815
22522SOL     OW69433   0.860   8.725   5.745 -0.3385 -0.3058  0.0073
22522SOL    HW169434   0.923   8.659   5.716  2.0260  2.2448 -1.1463
22522SOL    HW269435   0.810   8.682   5.814  2.5384 -2.6062  0.8835
22523SOL     OW69436   4.127   7.314   8.549 -0.2596 -0.3841 -0.3332
22523SOL    HW169437   4.149   7.400   8.513  1.6362 -0.4469  0.5491
22523SOL    HW269438   4.114   7.330   8.642  1.8279 -1.2539  0.1650
22524SOL     OW69439   6.060   4.201   6.935  0.6146  0.0195 -0.6927
22524SOL    HW169440   6.118   4.275   6.915  1.0286 -0.1999 -0.3070
22524SOL    HW269441   6.106   4.125   6.900 -0.0633 -0.0004 -1.5846
22525SOL     OW69442   6.004   8.082   2.514 -0.3428  0.4674 -0.1346
22525SOL    HW169443   5.911   8.068   2.499 -0.4676  0.6415  0.4479
22525SOL    HW269444   6.009   8.118   2.603  0.3062  0.1140 -0.0167
22526SOL     OW69445   2.150   6.764   8.973  0.3174 -0.7211  0.7430
22526SOL    HW169446   2.159   6.686   8.918 -0.4984  0.9329 -1.9393
22526SOL    HW269447   2.105   6.828   8.917 -0.0142  1.3431  3.1716
22527SOL     OW69448   6.361   6.498   5.121  0.7178  0.0655 -0.0416
22527SOL    HW169449   6.422   6.467   5.189 -0.7850 -1.4310  0.6873
22527SOL    HW269450   6.293   6.432   5.118 -0.1685  0.9908 -1.8345
22528SOL     OW69451   4.810   1.663   8.404 -0.0029 -0.3564  0.4325
22528SOL    HW169452   4.721   1.646   8.436  0.0478  0.5653  1.0963
22528SOL    HW269453   4.843   1.577   8.378 -1.7496 -0.5020 -1.5553
22529SOL     OW69454   8.091   3.095   4.240  0.0411  0.6511 -0.0503
22529SOL    HW169455   8.018   3.033   4.233  0.9590 -0.4843  0.0279
22529SOL    HW269456   8.134   3.072   4.322  0.4328  1.3629 -0.0473
22530SOL     OW69457   8.845   6.300   1.715 -0.4467 -0.5537  0.5110
22530SOL    HW169458   8.916   6.342   1.764 -0.4188 -1.0320  0.8882
22530SOL    HW269459   8.890   6.244   1.652 -0.4834  0.0788 -0.0894
22531SOL     OW69460   6.831   0.934   0.574 -0.1011 -0.7768  0.5011
22531SOL    HW169461   6.742   0.926   0.540 -0.1113  0.6995  0.0984
22531SOL    HW269462   6.821   0.946   0.668 -0.3651 -0.1103  0.3912
22532SOL     OW69463   5.729   5.914   8.409  0.2534 -0.4477 -0.2754
22532SOL    HW169464   5.640   5.884   8.394 -0.0847  0.0040  0.7615
22532SOL    HW269465   5.778   5.835   8.433 -0.5225 -0.3205  1.9710
22533SOL     OW69466   1.641   5.491   3.150  0.8946  0.2178 -0.0820
22533SOL    HW169467   1.698   5.559   3.116  0.0823  1.4172  0.8905
22533SOL    HW269468   1.557   5.533   3.163  0.1865 -1.1383 -0.0620
22534SOL     OW69469   0.546   7.496   8.550 -0.4830  0.3208  0.2473
22534SOL    HW169470   0.454   7.523   8.555 -0.6950 -0.3882  0.2483
22534SOL    HW269471   0.571   7.481   8.641 -1.0567 -1.7189  0.1127
22535SOL     OW69472   6.404   5.890   7.971 -0.2012  0.4040 -0.0343
22535SOL    HW169473   6.394   5.809   7.920  1.7471 -0.1541  0.4057
22535SOL    HW269474   6.464   5.944   7.920 -0.4723  1.0443  0.3118
22536SOL     OW69475   6.187   7.483   7.014  0.3663  0.1967  0.0536
22536SOL    HW169476   6.148   7.565   7.045  1.1150  0.2332  0.9616
22536SOL    HW269477   6.248   7.458   7.084 -1.9914 -2.7152  1.2593
22537SOL     OW69478   1.242   2.761   0.098  0.0209 -0.3048  0.2049
22537SOL    HW169479   1.286   2.696   0.044 -0.7648 -2.6387  2.2048
22537SOL    HW269480   1.149   2.738   0.093 -0.3799  1.1494  0.3760
22538SOL     OW69481   8.053   0.897   0.139 -0.1761  0.5417  0.3711
22538SOL    HW169482   7.999   0.951   0.081  2.2244 -0.5002 -3.1508
22538SOL    HW269483   8.139   0.938   0.137  1.0255 -1.8294 -0.1986
22539SOL     OW69484   8.326   1.742   7.544 -0.1033 -0.0279  0.0043
22539SOL    HW169485   8.420   1.752   7.526 -0.1190 -1.2499 -0.9242
22539SOL    HW269486   8.320   1.657   7.588 -0.8926 -0.4875 -0.9789
22540SOL     OW69487   4.001   5.872   7.261  0.3758  0.0638 -0.5356
22540SOL    HW169488   3.983   5.790   7.214  1.2861 -0.0876 -0.6488
22540SOL    HW269489   4.091   5.861   7.292  0.3241  0.8193 -0.1201
22541SOL     OW69490   1.700   3.986   4.724 -0.1966 -0.0187  0.1938
22541SOL    HW169491   1.688   4.045   4.799  1.2106 -0.8255  1.1068
22541SOL    HW269492   1.793   3.990   4.705 -0.0682 -1.8240  0.2095
22542SOL     OW69493   4.828   1.098   8.796  0.0858  0.7570  0.4504
22542SOL    HW169494   4.898   1.134   8.851  0.1916  0.4555  0.5177
22542SOL    HW269495   4.838   1.003   8.804  0.0221  0.7103  0.0093
22543SOL     OW69496   1.171   4.618   8.298  0.4276  0.3153  0.0481
22543SOL    HW169497   1.146   4.539   8.251  0.8310 -0.2343  0.7425
22543SOL    HW269498   1.148   4.600   8.389  2.6850  0.0379  0.6165
22544SOL     OW69499   2.299   0.347   8.985  0.4075 -0.0452 -0.2916
22544SOL    HW169500   2.239   0.409   9.026  0.5605  0.7162 -1.1766
22544SOL    HW269501   2.294   0.268   9.039  0.3767  0.8107  0.9835
22545SOL     OW69502   3.384   5.919   2.154 -0.4645  0.3571  0.3143
22545SOL    HW169503   3.470   5.943   2.120 -1.6961  0.4262 -3.1359
22545SOL    HW269504   3.395   5.829   2.185  0.8967  0.4490  0.1633
22546SOL     OW69505   4.557   7.620   8.234  0.5325 -0.3258 -0.2228
22546SOL    HW169506   4.644   7.662   8.236  0.1549  0.4691 -0.0235
22546SOL    HW269507   4.575   7.530   8.208  1.4833 -0.3381  0.4094
22547SOL     OW69508   7.397   0.754   3.571 -0.1506  0.0989 -0.2405
22547SOL    HW169509   7.468   0.751   3.507 -1.0822 -0.6196 -1.2811
22547SOL    HW269510   7.417   0.830   3.626  1.9347 -0.6342  0.1272
22548SOL     OW69511   6.560   5.471   5.541  0.5945 -0.1196  0.2019
22548SOL    HW169512   6.522   5.383   5.543 -1.3603  0.6762  1.5155
22548SOL    HW269513   6.528   5.513   5.621  0.7100  2.0652 -0.8101
22549SOL     OW69514   3.116   0.795   7.520 -0.4338  0.2179 -0.6388
22549SOL    HW169515   3.042   0.760   7.570  0.4437  0.4103  0.8515
22549SOL    HW269516   3.149   0.720   7.470  0.3706 -0.7508  1.2107
22550SOL     OW69517   3.243   7.058   1.581  0.5191 -0.3746  0.0982
22550SOL    HW169518   3.251   7.142   1.626  2.6332  0.1723 -1.1629
22550SOL    HW269519   3.270   6.993   1.646  0.5649  0.0800  0.5421
22551SOL     OW69520   0.331   2.980   6.083  0.3578 -0.2402 -0.2255
22551SOL    HW169521   0.412   2.954   6.040  0.9208  0.6411  0.2700
22551SOL    HW269522   0.356   2.997   6.174 -0.7397 -1.7633  0.4239
22552SOL     OW69523   2.407   5.676   8.636 -0.2202  0.3330 -0.7751
22552SOL    HW169524   2.467   5.630   8.576  1.3793  2.7622 -1.2023
22552SOL    HW269525   2.329   5.692   8.584 -0.9164 -1.9456 -0.5520
22553SOL     OW69526   1.930   5.543   3.629  0.0618  0.4049  0.2377
22553SOL    HW169527   1.890   5.610   3.574 -0.7060 -0.1495  0.1076
22553SOL    HW269528   2.023   5.563   3.627  0.0290  0.5084 -1.1037
22554SOL     OW69529   0.464   3.864   2.765  0.1696  0.0514  0.3442
22554SOL    HW169530   0.397   3.929   2.743  0.2275 -0.0775 -0.2430
22554SOL    HW269531   0.489   3.827   2.680  2.3864  1.4800  0.2950
22555SOL     OW69532   8.842   2.228   5.577  0.0005  0.2283  0.0575
22555SOL    HW169533   8.844   2.222   5.673 -0.5325  3.2087  0.3601
22555SOL    HW269534   8.756   2.265   5.557  0.3490  0.2621 -1.5185
22556SOL     OW69535   8.177   4.622   6.639 -0.2322  0.3700 -0.1946
22556SOL    HW169536   8.253   4.592   6.589  0.0089 -0.2681  0.5525
22556SOL    HW269537   8.204   4.617   6.730 -1.3367 -0.3569  0.1168
22557SOL     OW69538   0.307   7.403   4.591  0.1236  0.0218 -0.1390
22557SOL    HW169539   0.402   7.391   4.587  0.2516 -0.2986  2.1416
22557SOL    HW269540   0.291   7.488   4.550  1.6828  1.0775  1.3072
22558SOL     OW69541   8.753   4.537   4.359 -0.0150 -0.4460 -0.3431
22558SOL    HW169542   8.673   4.587   4.344  0.6540  0.4475 -1.0321
22558SOL    HW269543   8.773   4.500   4.273  0.2058 -0.8352 -0.1248
22559SOL     OW69544   4.891   8.462   8.910  0.1029 -0.0249  0.3457
22559SOL    HW169545   4.894   8.408   8.989  0.0722 -1.3711 -0.5360
22559SOL    HW269546   4.902   8.400   8.838 -1.3453  0.9546 -0.7839
22560SOL     OW69547   2.362   6.791   2.862 -0.2961  0.1044 -0.2196
22560SOL    HW169548   2.320   6.875   2.878 -0.9824 -0.1976 -0.3971
22560SOL    HW269549   2.385   6.793   2.769 -0.4218  0.0477 -0.2518
22561SOL     OW69550   7.387   1.780   0.628  0.0216 -0.1702 -0.0342
22561SOL    HW169551   7.477   1.804   0.652  0.3771 -0.9535 -0.5419
22561SOL    HW269552   7.398   1.716   0.557 -0.9471  0.0537 -0.3956
22562SOL     OW69553   6.282   1.158   5.247 -0.0326 -0.2191  0.0237
22562SOL    HW169554   6.358   1.130   5.298 -0.2651 -1.0355 -0.0694
22562SOL    HW269555   6.213   1.097   5.272  0.2945 -1.8374 -2.5640
22563SOL     OW69556   1.910   1.725   3.023 -0.5071 -0.4187 -0.1782
22563SOL    HW169557   1.922   1.761   3.111 -1.2335  0.6164 -0.4911
22563SOL    HW269558   1.995   1.738   2.981 -0.4919  0.1335  0.0090
22564SOL     OW69559   5.155   6.452   7.263  0.1162 -0.0371  0.2376
22564SOL    HW169560   5.175   6.485   7.351  2.4981  1.2875 -0.6960
22564SOL    HW269561   5.231   6.398   7.240  0.5508  1.2722 -1.7151
22565SOL     OW69562   6.999   8.521   5.011 -0.1284 -0.3002  0.0294
22565SOL    HW169563   7.067   8.525   5.078 -0.5872  0.1394  0.4839
22565SOL    HW269564   7.032   8.459   4.946  1.4542  1.1325 -0.5993
22566SOL     OW69565   4.025   8.616   6.409 -0.2254  0.0598  0.3772
22566SOL    HW169566   4.018   8.656   6.496 -2.0312  0.7845 -0.0459
22566SOL    HW269567   3.941   8.574   6.395  1.0163 -2.5151  0.0734
22567SOL     OW69568   7.199   0.083   5.514  0.1423  0.5931  0.0873
22567SOL    HW169569   7.156   0.163   5.544 -0.1124  0.6703 -0.4697
22567SOL    HW269570   7.130   0.017   5.514  0.1790  0.5532 -0.1641
22568SOL     OW69571   8.172   2.544   4.807 -0.0661  0.0452 -0.7169
22568SOL    HW169572   8.137   2.631   4.788 -1.0764 -0.0582  0.5387
22568SOL    HW269573   8.098   2.485   4.789  0.6079 -0.5613 -1.5489
22569SOL     OW69574   5.256   1.469   4.714 -0.1475  0.1065 -0.2072
22569SOL    HW169575   5.192   1.470   4.642 -0.7999 -0.1679  0.3527
22569SOL    HW269576   5.234   1.545   4.767  0.6912  0.6304 -0.5883
22570SOL     OW69577   0.863   0.088   1.883 -0.0750 -0.3658 -0.0770
22570SOL    HW169578   0.867   0.179   1.913 -0.6079 -0.0867 -0.8171
22570SOL    HW269579   0.879   0.093   1.789 -1.5217 -0.8669 -0.3742
22571SOL     OW69580   2.684   7.931   0.279 -0.0110  0.0797  0.0114
22571SOL    HW169581   2.764   7.885   0.305  1.2259  0.6857 -2.4322
22571SOL    HW269582   2.668   7.904   0.189 -3.0004 -0.5164  0.6016
22572SOL     OW69583   2.731   6.820   0.124 -0.4653  0.2799  0.4043
22572SOL    HW169584   2.732   6.915   0.129  0.4139  0.2331  1.4758
22572SOL    HW269585   2.688   6.792   0.204  1.2678 -0.2409  1.2165
22573SOL     OW69586   6.812   3.058   1.418 -0.3062 -0.4900 -0.1972
22573SOL    HW169587   6.728   3.037   1.378 -0.6008  1.4726 -0.7111
22573SOL    HW269588   6.789   3.094   1.504  0.0924 -1.0095  0.1341
22574SOL     OW69589   7.366   3.187   3.277 -0.2475 -0.1934 -0.4470
22574SOL    HW169590   7.332   3.146   3.357  1.9938 -1.9300 -0.2641
22574SOL    HW269591   7.460   3.168   3.280  0.0050  0.3040 -3.1603
22575SOL     OW69592   7.497   4.493   2.900  0.0329  0.0849  0.3159
22575SOL    HW169593   7.552   4.439   2.957 -2.1925 -0.5563  2.0302
22575SOL    HW269594   7.546   4.501   2.819  1.3223 -2.9176  0.6694
22576SOL     OW69595   7.342   4.224   2.597  0.2771 -0.2290 -0.3340
22576SOL    HW169596   7.317   4.315   2.586 -1.4701 -0.2817  2.3471
22576SOL    HW269597   7.261   4.175   2.579  1.5542 -1.4927 -3.3249
22577SOL     OW69598   5.450   4.833   3.390  0.5079  0.1376  0.5020
22577SOL    HW169599   5.423   4.762   3.332  1.5174 -0.1667  0.3766
22577SOL    HW269600   5.490   4.788   3.465  1.0511  0.5638  0.4718
22578SOL     OW69601   7.883   7.346   3.552 -0.3611  0.3474  0.1330
22578SOL    HW169602   7.846   7.276   3.498 -1.1675  2.8243 -2.7364
22578SOL    HW269603   7.970   7.315   3.576 -1.4924 -2.5437  0.9344
22579SOL     OW69604   8.732   1.385   5.949 -0.4453  0.5874 -0.1658
22579SOL    HW169605   8.780   1.466   5.968 -0.6699  0.9339 -1.0149
22579SOL    HW269606   8.735   1.335   6.031 -2.3439  2.4699  1.1671
22580SOL     OW69607   4.507   8.803   4.107 -0.6798  0.9036  0.2838
22580SOL    HW169608   4.518   8.826   4.015 -0.3353 -0.0302  0.0873
22580SOL    HW269609   4.430   8.852   4.135 -0.3673  1.7517 -0.3056
22581SOL     OW69610   3.676   4.305   4.096  0.1180 -0.2763 -0.5542
22581SOL    HW169611   3.601   4.251   4.121  1.8778 -2.7970 -0.3452
22581SOL    HW269612   3.674   4.305   4.000 -0.3617  0.0087 -0.5485
22582SOL     OW69613   2.166   7.215   4.552  0.1219 -0.1014 -0.2901
22582SOL    HW169614   2.169   7.135   4.605  0.1020 -1.3767 -2.1569
22582SOL    HW269615   2.253   7.255   4.563  0.5642 -1.0363 -0.3268
22583SOL     OW69616   4.788   8.301   0.114 -0.1705  0.2456  0.0308
22583SOL    HW169617   4.720   8.315   0.180  0.0215 -0.0723  0.2949
22583SOL    HW269618   4.784   8.207   0.095  1.0258 -0.0066  0.9494
22584SOL     OW69619   3.663   5.214   8.434 -0.1802  0.2083 -0.1399
22584SOL    HW169620   3.599   5.271   8.477 -2.4581 -1.0847 -1.5998
22584SOL    HW269621   3.707   5.270   8.371 -0.4507  0.9530  0.3154
22585SOL     OW69622   3.217   8.430   6.959 -0.1383 -0.3857  0.1066
22585SOL    HW169623   3.292   8.421   6.900 -1.2424 -1.0913 -1.2447
22585SOL    HW269624   3.158   8.491   6.914 -0.4164  0.1359  1.1385
22586SOL     OW69625   3.002   7.328   0.160 -1.0022  0.3830 -0.1411
22586SOL    HW169626   2.923   7.334   0.214 -0.3949 -0.7569  0.9641
22586SOL    HW269627   3.040   7.243   0.185  0.9242  1.2081 -0.1226
22587SOL     OW69628   4.835   8.216   4.309  0.1989 -0.4445 -0.0155
22587SOL    HW169629   4.892   8.282   4.348 -1.3685  1.9899 -1.5528
22587SOL    HW269630   4.888   8.174   4.242  0.7191  0.5606 -0.2505
22588SOL     OW69631   3.788   6.349   0.986 -0.1740 -0.7981 -0.5482
22588SOL    HW169632   3.782   6.437   0.949 -0.6740  0.5542  2.4302
22588SOL    HW269633   3.716   6.345   1.050  0.9661 -2.6689  0.7108
22589SOL     OW69634   0.634   3.707   8.223  0.2097  0.7984  0.0707
22589SOL    HW169635   0.585   3.783   8.190 -3.0482 -1.8963 -1.9756
22589SOL    HW269636   0.631   3.716   8.318 -0.5171  2.9337 -0.0943
22590SOL     OW69637   7.181   7.150   0.412 -0.2461  0.1337  0.0507
22590SOL    HW169638   7.227   7.212   0.355  1.0230 -0.1225  0.7496
22590SOL    HW269639   7.200   7.181   0.501  1.6157 -2.0042  0.4791
22591SOL     OW69640   2.433   8.224   5.169  0.2900  0.5663 -0.1623
22591SOL    HW169641   2.477   8.300   5.208  0.4923  0.2498  0.2320
22591SOL    HW269642   2.393   8.179   5.243 -0.8210  0.9230 -0.5345
22592SOL     OW69643   2.953   1.027   7.513 -0.4368  0.2417  0.5387
22592SOL    HW169644   2.992   1.114   7.502  0.9143 -0.2631  1.0840
22592SOL    HW269645   3.028   0.968   7.513 -1.1493 -0.7133  2.2804
22593SOL     OW69646   2.648   5.831   0.556  0.2224 -0.0076  0.8921
22593SOL    HW169647   2.651   5.813   0.650 -0.3564 -0.1980  0.8754
22593SOL    HW269648   2.737   5.860   0.535  0.4104 -0.1559  1.4576
22594SOL     OW69649   7.631   1.766   0.880 -0.1976  0.3463  0.3874
22594SOL    HW169650   7.695   1.824   0.838 -0.5284 -0.8379 -1.9366
22594SOL    HW269651   7.549   1.815   0.878  0.1829  1.0633  1.4980
22595SOL     OW69652   4.274   0.223   3.579 -0.5716  0.1595 -0.0395
22595SOL    HW169653   4.354   0.173   3.594 -0.9726 -0.0992  1.4023
22595SOL    HW269654   4.233   0.180   3.505 -0.3279 -0.9323  0.4343
22596SOL     OW69655   4.448   8.078   2.809 -0.1406  0.0543 -0.5343
22596SOL    HW169656   4.382   8.012   2.830 -0.9726  1.4276  1.4715
22596SOL    HW269657   4.530   8.042   2.842 -0.3574 -0.4929 -0.5850
22597SOL     OW69658   4.910   4.670   0.107 -0.3297  0.5000  0.2147
22597SOL    HW169659   4.921   4.680   0.202 -1.6629 -1.1469  0.6014
22597SOL    HW269660   4.996   4.646   0.075 -0.4188 -1.7277  1.4750
22598SOL     OW69661   3.603   4.981   5.719  0.5856  0.1019  0.0091
22598SOL    HW169662   3.608   5.062   5.770  1.2855  1.2276 -1.7605
22598SOL    HW269663   3.691   4.944   5.723  0.7949  0.4835 -0.7838
22599SOL     OW69664   4.978   0.186   5.653 -0.2554  0.0962 -0.2776
22599SOL    HW169665   4.900   0.199   5.707 -0.1952 -1.6643  0.2860
22599SOL    HW269666   4.951   0.125   5.585  1.2449 -2.8820  1.5775
22600SOL     OW69667   8.947   6.958   8.902  0.4858  0.1918 -0.0987
22600SOL    HW169668   8.917   7.008   8.977 -1.3834 -1.8180  0.6264
22600SOL    HW269669   8.890   6.986   8.830  0.0031 -0.2536  0.1005
22601SOL     OW69670   1.932   3.927   1.553  0.0875 -0.4821 -0.4206
22601SOL    HW169671   1.979   3.854   1.592  2.4986  0.6815 -0.9330
22601SOL    HW269672   1.960   3.927   1.461 -2.2977 -0.7267 -1.2077
22602SOL     OW69673   0.565   4.782   0.184 -0.5985 -0.2208  0.4058
22602SOL    HW169674   0.603   4.815   0.103 -2.0646  1.3591  0.2923
22602SOL    HW269675   0.638   4.777   0.245  0.2383  0.1612 -0.5432
22603SOL     OW69676   4.634   3.336   5.216  0.7115  0.2664  0.3869
22603SOL    HW169677   4.714   3.346   5.267  0.4123  1.5128  0.6483
22603SOL    HW269678   4.642   3.400   5.145  0.7631 -0.8879 -0.6943
22604SOL     OW69679   3.957   4.071   5.739  0.8763 -0.1736  0.4985
22604SOL    HW169680   4.026   4.098   5.799  1.7900 -1.6628  0.1840
22604SOL    HW269681   3.975   3.978   5.723 -1.4371 -0.7111  0.7184
22605SOL     OW69682   5.456   4.657   3.141  0.2822 -0.3542 -0.0918
22605SOL    HW169683   5.369   4.663   3.180  0.5498  0.2535  0.4353
22605SOL    HW269684   5.441   4.654   3.047 -0.3305 -0.8246  0.0174
22606SOL     OW69685   2.887   1.650   4.254  0.3068 -0.9288 -0.1118
22606SOL    HW169686   2.921   1.728   4.298 -0.5785 -1.0052  0.7506
22606SOL    HW269687   2.817   1.684   4.198  1.5408 -0.8075 -1.6585
22607SOL     OW69688   7.354   0.470   3.997  0.0345 -0.2581  0.8962
22607SOL    HW169689   7.329   0.541   3.939 -1.1959  0.5339  2.3184
22607SOL    HW269690   7.278   0.413   4.001  0.2729 -0.5575  1.3354
22608SOL     OW69691   7.814   1.654   5.710 -0.1510 -0.3201 -0.2721
22608SOL    HW169692   7.831   1.736   5.664  3.3019  0.1771  1.4701
22608SOL    HW269693   7.825   1.586   5.644  1.5506  0.4911 -0.8771
22609SOL     OW69694   0.663   4.975   4.045 -0.1482  0.1847  0.0033
22609SOL    HW169695   0.666   5.031   3.967  0.0108 -0.7814 -0.6960
22609SOL    HW269696   0.627   4.892   4.014 -1.4905  0.2572  1.2679
22610SOL     OW69697   3.636   8.070   5.973  0.2192  0.3360  0.1250
22610SOL    HW169698   3.557   8.020   5.950  0.7475 -0.3917 -0.1534
22610SOL    HW269699   3.608   8.161   5.971 -0.6566  0.0809  0.1869
22611SOL     OW69700   4.149   0.763   4.658 -0.1428  0.4270  0.0427
22611SOL    HW169701   4.094   0.732   4.586  2.1868 -1.7589 -0.9541
22611SOL    HW269702   4.226   0.799   4.615 -0.0658  2.0843  1.4408
22612SOL     OW69703   3.944   1.637   3.804  0.4633  0.1750 -0.6930
22612SOL    HW169704   3.951   1.620   3.710  2.4571 -0.9476 -0.4053
22612SOL    HW269705   4.024   1.600   3.841 -0.9729 -0.8055  1.6591
22613SOL     OW69706   6.889   8.812   7.167  0.1104  0.1018  0.1899
22613SOL    HW169707   6.835   8.853   7.099  1.2771  1.2343 -0.0970
22613SOL    HW269708   6.971   8.791   7.122  0.0315 -1.3613  0.6824
22614SOL     OW69709   4.576   6.088   3.591 -0.2092 -0.2059 -0.0511
22614SOL    HW169710   4.545   6.074   3.502 -0.7927 -2.2354  0.4100
22614SOL    HW269711   4.657   6.039   3.596 -0.0675  0.0771  0.4817
22615SOL     OW69712   3.406   5.113   4.243  0.2087  0.1422 -0.2392
22615SOL    HW169713   3.446   5.197   4.220 -0.9013  0.5716 -0.6928
22615SOL    HW269714   3.421   5.058   4.166  2.1850 -0.5764  0.6044
22616SOL     OW69715   0.539   1.415   7.115  0.5872  0.3954  0.3032
22616SOL    HW169716   0.599   1.405   7.189 -0.6863  1.4779  1.5408
22616SOL    HW269717   0.490   1.495   7.135 -2.0418 -1.0051 -0.0731
22617SOL     OW69718   3.406   7.098   8.296 -0.2467 -0.3285 -0.2817
22617SOL    HW169719   3.451   7.015   8.311 -1.2904 -1.0978 -1.2691
22617SOL    HW269720   3.470   7.151   8.248  1.0263  0.0943  1.7327
22618SOL     OW69721   8.781   2.036   4.676  0.4572  0.0135 -0.2944
22618SOL    HW169722   8.723   2.049   4.750 -0.3651 -1.6654 -0.5948
22618SOL    HW269723   8.855   1.986   4.712  1.0524  0.9044 -0.2233
22619SOL     OW69724   3.398   4.701   1.638 -0.3559 -0.1060  0.2365
22619SOL    HW169725   3.443   4.698   1.554 -1.9299  0.4566 -0.6630
22619SOL    HW269726   3.450   4.761   1.691  0.9315 -0.8447 -0.1355
22620SOL     OW69727   5.845   3.120   3.984 -0.0791  0.5038 -0.2243
22620SOL    HW169728   5.935   3.142   3.959 -0.5786  0.3061 -2.4113
22620SOL    HW269729   5.815   3.196   4.034  0.5224  1.6935 -1.5977
22621SOL     OW69730   3.411   7.408   4.040 -0.0026  0.0988  0.0662
22621SOL    HW169731   3.319   7.389   4.058  0.2763 -0.8882  0.5094
22621SOL    HW269732   3.411   7.499   4.011 -1.5196 -0.6978 -2.9079
22622SOL     OW69733   6.306   2.875   6.531  0.0943 -0.2850 -0.2010
22622SOL    HW169734   6.337   2.791   6.563 -2.4958 -1.3461 -0.2551
22622SOL    HW269735   6.223   2.889   6.575  0.4081  2.2544 -0.2576
22623SOL     OW69736   3.945   1.013   7.948 -0.5202 -0.0133 -0.5395
22623SOL    HW169737   3.997   1.054   8.017  0.9453 -1.3019 -0.8171
22623SOL    HW269738   3.863   0.989   7.990 -0.6779  1.5330  0.0737
22624SOL     OW69739   5.861   2.928   1.255 -0.4654 -0.2276 -0.0200
22624SOL    HW169740   5.847   2.897   1.165 -1.5907 -1.5331  0.5672
22624SOL    HW269741   5.904   2.855   1.299  1.8879  1.1227  0.0485
22625SOL     OW69742   6.958   6.113   2.238 -0.0006  0.2392  0.4881
22625SOL    HW169743   6.901   6.072   2.172  1.0265  0.4775 -0.5850
22625SOL    HW269744   6.899   6.162   2.294 -0.9379 -0.2145 -0.0788
22626SOL     OW69745   6.035   1.480   3.408  0.5077 -0.9428 -0.1449
22626SOL    HW169746   5.999   1.537   3.341 -2.6873 -1.1589  1.2123
22626SOL    HW269747   6.010   1.392   3.380 -2.5795 -0.9309  2.0565
22627SOL     OW69748   5.093   6.343   4.906 -0.1217 -0.1043 -0.4832
22627SOL    HW169749   5.000   6.353   4.883 -0.0538  0.4493 -0.5207
22627SOL    HW269750   5.093   6.333   5.001 -0.2129 -0.0292 -0.4753
22628SOL     OW69751   2.641   8.711   1.249  0.0540  0.0621  0.1145
22628SOL    HW169752   2.686   8.627   1.245  0.3852  0.2693 -0.8967
22628SOL    HW269753   2.558   8.696   1.204  0.2201  0.3282 -0.2918
22629SOL     OW69754   8.517   5.875   4.410  0.4560 -0.2945 -0.1481
22629SOL    HW169755   8.438   5.873   4.465  1.1071 -2.0183  0.8156
22629SOL    HW269756   8.574   5.940   4.451  0.3258 -0.4882  0.3492
22630SOL     OW69757   7.561   1.015   5.148 -0.6535  0.1547  0.1305
22630SOL    HW169758   7.583   1.015   5.055 -0.9750 -0.7263  0.0412
22630SOL    HW269759   7.541   1.106   5.168 -1.9900  0.1638 -1.0146
22631SOL     OW69760   6.470   0.451   5.514  0.2861 -0.2168  0.5197
22631SOL    HW169761   6.471   0.370   5.564  0.2936 -0.5739 -0.0456
22631SOL    HW269762   6.551   0.496   5.538  0.2078 -0.3035  0.9498
22632SOL     OW69763   4.978   1.181   2.390  0.4285 -0.9063 -0.3315
22632SOL    HW169764   4.977   1.201   2.484  0.4349  0.6626 -0.6389
22632SOL    HW269765   4.889   1.150   2.372 -0.5176  1.5902 -0.3244
22633SOL     OW69766   3.473   1.394   8.077  0.7482 -0.6099 -0.6639
22633SOL    HW169767   3.438   1.308   8.052  0.0472 -0.1434 -1.3237
22633SOL    HW269768   3.457   1.449   8.000  1.1028  0.1403 -0.2035
22634SOL     OW69769   6.244   5.572   5.762  0.0500 -0.2657  0.2859
22634SOL    HW169770   6.173   5.609   5.815  0.5548  0.3885  0.5267
22634SOL    HW269771   6.225   5.600   5.673  0.2662  0.3364  0.4244
22635SOL     OW69772   3.659   7.260   0.321  0.1028  0.0784 -0.2429
22635SOL    HW169773   3.714   7.218   0.256  1.5332 -1.0129  1.5718
22635SOL    HW269774   3.570   7.233   0.298  0.5696 -0.3342 -1.6714
22636SOL     OW69775   1.619   5.401   8.670  0.2305 -0.3887  0.5503
22636SOL    HW169776   1.528   5.428   8.655  0.8101  0.2260 -2.5523
22636SOL    HW269777   1.668   5.483   8.672  0.8422 -0.7548  1.5665
22637SOL     OW69778   1.692   6.317   4.990 -0.0038 -0.0839 -0.3165
22637SOL    HW169779   1.704   6.328   5.084  1.7699  0.0985 -0.5363
22637SOL    HW269780   1.730   6.231   4.971  2.2032  1.0087 -1.2399
22638SOL     OW69781   8.705   8.659   1.038  0.0321 -0.2936 -0.5485
22638SOL    HW169782   8.772   8.722   1.065 -0.8250  0.0038  1.0231
22638SOL    HW269783   8.754   8.580   1.015  1.0476  0.6037 -1.5398
22639SOL     OW69784   3.923   3.944   6.989 -0.4142 -0.6473 -0.4921
22639SOL    HW169785   3.919   4.034   6.957  0.3943  0.2409  1.7209
22639SOL    HW269786   3.862   3.943   7.062  0.1666 -1.6798 -0.0096
22640SOL     OW69787   7.950   6.812   2.850  0.0709 -0.3276 -0.1750
22640SOL    HW169788   7.940   6.775   2.938  0.9391 -0.8492 -0.2777
22640SOL    HW269789   7.886   6.764   2.797 -0.3040 -0.1655  0.1269
22641SOL     OW69790   8.038   0.745   7.915  0.2753  0.0448 -0.0245
22641SOL    HW169791   8.066   0.835   7.900  1.1282 -0.5032 -2.1254
22641SOL    HW269792   8.119   0.694   7.917 -0.2393 -1.2331 -3.6411
22642SOL     OW69793   1.258   7.283   6.823  0.4646  0.7233  0.0192
22642SOL    HW169794   1.336   7.337   6.813 -0.5539  2.3039  0.3597
22642SOL    HW269795   1.265   7.218   6.753  1.7882  1.1852 -0.3130
22643SOL     OW69796   4.315   1.221   1.953  0.1836 -0.3384 -0.0774
22643SOL    HW169797   4.375   1.290   1.981 -1.2500 -0.0257  2.4957
22643SOL    HW269798   4.232   1.266   1.937 -0.0718 -1.1202 -1.0424
22644SOL     OW69799   7.695   3.710   3.869  0.4900  0.3074 -0.0054
22644SOL    HW169800   7.785   3.729   3.896  0.0833  1.5984  0.5160
22644SOL    HW269801   7.689   3.746   3.781  0.0770  1.5598  0.5155
22645SOL     OW69802   8.652   8.938   5.822  0.1286  0.0209 -0.2499
22645SOL    HW169803   8.665   8.954   5.915  1.5231  1.8892 -0.7036
22645SOL    HW269804   8.562   8.907   5.815 -0.1156  0.1854  1.6764
22646SOL     OW69805   8.858   2.773   2.100  0.0850  0.4212  0.6501
22646SOL    HW169806   8.891   2.697   2.052  0.0244  0.3573  0.7094
22646SOL    HW269807   8.935   2.808   2.145 -0.1639 -0.4682  1.7956
22647SOL     OW69808   0.426   4.766   8.528  0.6020 -0.1731  0.1054
22647SOL    HW169809   0.383   4.839   8.484 -1.7900 -0.4034  1.8804
22647SOL    HW269810   0.397   4.689   8.480  3.0407 -0.0839 -1.7012
22648SOL     OW69811   3.605   7.242   8.165 -0.1964 -0.0041 -0.2082
22648SOL    HW169812   3.630   7.319   8.114 -1.2780  0.4176 -0.1362
22648SOL    HW269813   3.660   7.171   8.132  0.2588  0.6279 -0.8167
22649SOL     OW69814   1.139   5.388   6.902 -0.1434 -0.6303  0.0922
22649SOL    HW169815   1.079   5.457   6.874  0.0369 -0.8062 -0.7358
22649SOL    HW269816   1.197   5.374   6.828  0.4898 -0.9484  0.6335
22650SOL     OW69817   2.779   5.074   5.415  0.6819 -0.0533  0.3457
22650SOL    HW169818   2.701   5.024   5.393 -0.8969  1.7537  1.5521
22650SOL    HW269819   2.832   5.073   5.335  0.3718 -2.8959  0.0844
22651SOL     OW69820   6.014   0.854   0.331  0.0031  0.1378 -0.3567
22651SOL    HW169821   5.949   0.902   0.279 -0.0549 -0.1344 -0.5343
22651SOL    HW269822   5.989   0.762   0.322  0.5880  0.0050 -0.6708
22652SOL     OW69823   7.792   3.281   8.873 -0.0093 -0.2866  0.0010
22652SOL    HW169824   7.699   3.275   8.852 -0.1463 -1.2152  0.8072
22652SOL    HW269825   7.818   3.191   8.893  0.8929  0.0599  0.4559
22653SOL     OW69826   7.286   4.842   5.144  0.4273  0.2459 -0.0126
22653SOL    HW169827   7.301   4.924   5.192 -0.9746  0.5110  0.0236
22653SOL    HW269828   7.212   4.801   5.190  1.6304 -1.4775  0.4833
22654SOL     OW69829   3.878   3.424   8.990  0.0223  0.2683  0.4430
22654SOL    HW169830   3.827   3.505   8.984  0.7190  0.8740  2.0813
22654SOL    HW269831   3.925   3.432   9.073  2.6303 -0.3555 -0.8695
22655SOL     OW69832   5.534   6.360   5.552 -0.1073  0.3905  0.3871
22655SOL    HW169833   5.443   6.330   5.553 -0.3561  1.1173  0.1224
22655SOL    HW269834   5.532   6.439   5.498  0.6401  0.5457  0.5852
22656SOL     OW69835   8.410   4.567   6.402  0.0338 -0.7734 -0.0287
22656SOL    HW169836   8.414   4.663   6.398 -0.6411 -0.7797 -1.2303
22656SOL    HW269837   8.491   4.542   6.447 -0.1786  0.3955  1.0421
22657SOL     OW69838   4.067   5.430   8.250  0.3510  0.0429  0.5338
22657SOL    HW169839   3.995   5.380   8.288  1.4617 -1.2060  1.1117
22657SOL    HW269840   4.084   5.388   8.165  0.0746  0.6567  0.1694
22658SOL     OW69841   2.990   0.381   2.903 -0.2356 -0.5340  0.0938
22658SOL    HW169842   3.017   0.297   2.867 -0.8976 -1.4378  1.5848
22658SOL    HW269843   3.062   0.407   2.960  0.5845  0.6329 -1.4251
22659SOL     OW69844   0.471   3.745   8.935 -0.2939 -0.2335  0.0751
22659SOL    HW169845   0.404   3.722   9.000 -0.8766 -2.5745 -1.2190
22659SOL    HW269846   0.432   3.720   8.851  1.6499 -0.2879 -0.8613
22660SOL     OW69847   3.593   4.005   5.399 -0.4871 -0.0211  0.0465
22660SOL    HW169848   3.517   4.042   5.443 -1.1783 -0.9580 -0.3263
22660SOL    HW269849   3.624   4.075   5.341 -1.7535 -0.0040 -0.6327
22661SOL     OW69850   1.509   8.586   0.805  0.4054 -0.5781  0.1547
22661SOL    HW169851   1.552   8.636   0.874 -0.1498 -0.1501  0.1974
22661SOL    HW269852   1.416   8.594   0.824  0.3206 -2.0996  0.4822
22662SOL     OW69853   1.191   8.389   4.778  0.1738  0.0820 -0.1333
22662SOL    HW169854   1.180   8.407   4.685  0.0579  3.0082  0.3365
22662SOL    HW269855   1.116   8.431   4.820  0.9253  0.0038  1.3760
22663SOL     OW69856   1.551   1.862   0.841 -0.0988  0.5739 -0.0415
22663SOL    HW169857   1.636   1.889   0.876 -0.0990  0.1666  0.2865
22663SOL    HW269858   1.534   1.777   0.883 -0.6766  0.6614 -0.0895
22664SOL     OW69859   6.634   5.108   5.773 -0.4884 -0.0743 -0.1334
22664SOL    HW169860   6.647   5.152   5.857 -1.8788 -1.1820  0.7111
22664SOL    HW269861   6.693   5.033   5.775  0.6176  0.7561 -0.8348
22665SOL     OW69862   1.448   2.135   0.286  0.0376  0.5341  0.0642
22665SOL    HW169863   1.458   2.230   0.298  0.2949  0.2784  2.3317
22665SOL    HW269864   1.538   2.104   0.271  0.1003  0.5094  0.4965
22666SOL     OW69865   7.806   7.837   7.906  0.7078  0.2712 -0.4868
22666SOL    HW169866   7.839   7.766   7.962  0.6904  0.5399 -0.1305
22666SOL    HW269867   7.885   7.879   7.872  0.8185  1.7002  1.3498
22667SOL     OW69868   0.883   3.204   1.751  0.0688 -0.6402  0.5519
22667SOL    HW169869   0.794   3.226   1.779 -0.3047 -1.8738  0.4156
22667SOL    HW269870   0.874   3.116   1.713  1.5020 -1.1416  1.3287
22668SOL     OW69871   3.110   7.489   4.512  0.9529  0.2660  0.6427
22668SOL    HW169872   3.053   7.430   4.561  1.4235 -0.2173  0.6185
22668SOL    HW269873   3.199   7.467   4.541  1.3122 -0.5288 -0.9127
22669SOL     OW69874   5.628   2.785   5.652 -0.7849 -0.0922  0.1665
22669SOL    HW169875   5.560   2.840   5.614 -0.7080 -1.1426 -1.5911
22669SOL    HW269876   5.632   2.812   5.744  0.4683  4.0761 -0.8921
22670SOL     OW69877   7.880   5.789   5.582 -0.2441  0.2740 -0.0559
22670SOL    HW169878   7.838   5.848   5.644 -0.4600  0.7185 -0.6152
22670SOL    HW269879   7.808   5.736   5.547 -0.0868 -0.1540  0.2610
22671SOL     OW69880   1.955   1.497   4.000 -0.1027  0.0196 -0.5764
22671SOL    HW169881   1.875   1.539   4.030 -0.1021  0.9522 -1.8068
22671SOL    HW269882   1.929   1.407   3.981 -0.4534 -0.1501  0.6375
22672SOL     OW69883   4.522   4.520   8.454 -0.1581 -0.0764 -0.0249
22672SOL    HW169884   4.428   4.503   8.461 -0.3006  0.5464 -0.3558
22672SOL    HW269885   4.539   4.522   8.359  0.1918 -0.2212  0.0349
22673SOL     OW69886   7.469   3.206   2.424  0.0160  0.3696  0.2170
22673SOL    HW169887   7.383   3.234   2.457  0.0890  0.5668  0.2390
22673SOL    HW269888   7.508   3.159   2.498  0.7064  1.9022  0.8617
22674SOL     OW69889   7.101   5.300   3.520 -0.1706 -0.0486  0.4559
22674SOL    HW169890   7.141   5.380   3.487 -0.4881  0.0488  0.3005
22674SOL    HW269891   7.156   5.275   3.595  1.2595 -0.9063 -0.8198
22675SOL     OW69892   0.284   4.955   7.973 -0.1492 -0.6009 -0.8365
22675SOL    HW169893   0.363   4.987   7.931  0.5186 -0.9005  0.1434
22675SOL    HW269894   0.225   5.030   7.974  0.7453  0.1101 -0.1252
22676SOL     OW69895   8.415   3.162   3.292 -0.2296  0.6227  0.6955
22676SOL    HW169896   8.349   3.145   3.359  1.8754  0.6013  2.8979
22676SOL    HW269897   8.366   3.161   3.209 -2.7980 -0.2252  2.1128
22677SOL     OW69898   0.503   7.253   6.640 -0.1255  0.1537  0.0070
22677SOL    HW169899   0.496   7.348   6.637 -3.5634  0.0421 -0.0758
22677SOL    HW269900   0.474   7.225   6.553  1.7149 -1.0254 -0.2949
22678SOL     OW69901   7.554   5.397   4.744 -0.4400 -0.3075  0.2612
22678SOL    HW169902   7.578   5.342   4.669  0.6114  0.3632  0.0902
22678SOL    HW269903   7.463   5.374   4.762  0.1298 -2.5352  0.5850
22679SOL     OW69904   6.573   6.710   4.421 -0.5013  0.8095 -0.2095
22679SOL    HW169905   6.627   6.789   4.418  0.3979  0.1891 -0.6279
22679SOL    HW269906   6.631   6.643   4.457 -1.6293  0.6179  1.3476
22680SOL     OW69907   7.164   3.672   5.176  0.4459 -0.3700 -0.0340
22680SOL    HW169908   7.198   3.761   5.180  0.8460 -0.4281 -1.5412
22680SOL    HW269909   7.072   3.682   5.152  0.1738 -0.3380  0.9670
22681SOL     OW69910   8.643   3.318   3.728  0.3935  0.3135 -0.1450
22681SOL    HW169911   8.736   3.315   3.752  0.5780 -2.1253 -0.8564
22681SOL    HW269912   8.609   3.233   3.755 -1.0350  0.2022 -2.0741
22682SOL     OW69913   3.641   6.338   0.170  0.3533  0.4047  0.3344
22682SOL    HW169914   3.722   6.297   0.199  0.1881  1.0097  1.7634
22682SOL    HW269915   3.656   6.359   0.078  1.0328 -1.3424  0.0160
22683SOL     OW69916   0.522   6.772   4.061 -0.3467 -0.1097 -0.0038
22683SOL    HW169917   0.466   6.838   4.103 -1.7904  0.2731 -2.3476
22683SOL    HW269918   0.462   6.707   4.027  0.6433 -0.0155 -2.0797
22684SOL     OW69919   6.754   5.372   8.327 -0.1570  0.2765  0.0389
22684SOL    HW169920   6.816   5.402   8.393  0.8142  0.9799 -1.1569
22684SOL    HW269921   6.689   5.442   8.319 -0.6405 -0.0888  0.6844
22685SOL     OW69922   6.446   0.027   1.182  0.1889  0.5950 -0.4773
22685SOL    HW169923   6.389  -0.036   1.227  0.8000 -0.5065 -1.1838
22685SOL    HW269924   6.391   0.063   1.112  0.2954 -0.3698 -1.0787
22686SOL     OW69925   3.805   5.336   7.795  0.0491 -0.4168 -0.0256
22686SOL    HW169926   3.726   5.282   7.794  0.7253 -1.5641 -3.1468
22686SOL    HW269927   3.776   5.422   7.766 -0.3041 -0.3019  0.6347
22687SOL     OW69928   5.159   8.984   7.184  0.3036 -0.4949 -0.6643
22687SOL    HW169929   5.187   8.951   7.269 -1.1015  0.6915  0.3066
22687SOL    HW269930   5.064   8.977   7.185  0.2180  0.1218 -1.8936
22688SOL     OW69931   0.598   7.007   5.847  0.0733  0.0005  0.3989
22688SOL    HW169932   0.681   7.038   5.812  0.0644 -0.0637  0.3215
22688SOL    HW269933   0.584   6.923   5.804 -0.4618  0.4102 -0.2428
22689SOL     OW69934   2.935   8.135   5.618 -0.4383  0.4595  0.2315
22689SOL    HW169935   2.974   8.220   5.640 -2.1972  0.9489  1.7979
22689SOL    HW269936   3.007   8.073   5.623  0.4253  1.5037  1.6880
22690SOL     OW69937   2.999   8.384   3.547 -0.2006 -0.2448 -0.2787
22690SOL    HW169938   2.992   8.398   3.453  0.4124  1.2300 -0.1373
22690SOL    HW269939   3.092   8.363   3.561  0.1807  1.5539  0.1830
22691SOL     OW69940   4.924   0.489   1.967 -0.4875  0.0101  0.3662
22691SOL    HW169941   4.877   0.465   1.887 -0.5091 -1.6163  0.8342
22691SOL    HW269942   4.860   0.536   2.019 -0.0037  2.6467 -1.2244
22692SOL     OW69943   6.561   4.695   0.288  0.0791 -0.4628  0.1379
22692SOL    HW169944   6.578   4.650   0.205 -3.1704 -0.2535 -0.7634
22692SOL    HW269945   6.469   4.678   0.307 -0.3920  2.8352  1.5687
22693SOL     OW69946   0.314   3.314   7.076  0.2423  0.1293 -0.2676
22693SOL    HW169947   0.225   3.339   7.103  0.7351  0.5538  1.0016
22693SOL    HW269948   0.347   3.390   7.029  0.6401  0.7579  0.9846
22694SOL     OW69949   2.480   1.116   1.438  0.1036 -0.0785  0.0781
22694SOL    HW169950   2.534   1.185   1.475 -0.5800  1.2255 -1.2284
22694SOL    HW269951   2.503   1.116   1.345 -0.5956 -0.9624 -0.1060
22695SOL     OW69952   2.010   0.634   7.876 -0.1973  0.4838 -0.2452
22695SOL    HW169953   1.962   0.581   7.812 -0.8257  0.5406  0.1705
22695SOL    HW269954   1.991   0.593   7.961 -0.1037  0.9401  0.0010
22696SOL     OW69955   2.018   1.768   8.884  0.1028 -0.4386 -0.1525
22696SOL    HW169956   2.006   1.674   8.895  0.5161 -0.4867 -0.0885
22696SOL    HW269957   1.946   1.795   8.827  0.3481 -0.9115 -0.7018
22697SOL     OW69958   4.560   1.790   5.341  0.0344 -0.0758  0.0107
22697SOL    HW169959   4.494   1.766   5.276  0.5729 -0.4866 -0.3973
22697SOL    HW269960   4.519   1.768   5.425 -0.5612  0.2073 -0.1958
22698SOL     OW69961   5.026   5.957   7.226  0.4447 -0.1230 -0.0179
22698SOL    HW169962   5.099   5.926   7.172  0.0104 -0.2153 -0.5645
22698SOL    HW269963   4.986   6.027   7.174 -0.2942 -0.5641 -0.0602
22699SOL     OW69964   3.415   0.222   7.462 -0.1770  0.0243  0.1398
22699SOL    HW169965   3.417   0.194   7.554  1.0151  1.5825  0.6263
22699SOL    HW269966   3.505   0.213   7.432 -0.6526 -0.9484 -1.0596
22700SOL     OW69967   6.324   8.648   3.367 -0.2653  0.4327 -0.9050
22700SOL    HW169968   6.246   8.615   3.323  0.0525 -3.2837  0.9513
22700SOL    HW269969   6.397   8.608   3.320  0.4648  1.7800 -0.9881
22701SOL     OW69970   3.009   7.336   7.105  0.2303 -0.0580 -0.0253
22701SOL    HW169971   2.969   7.401   7.163  0.3467  0.2098 -0.2466
22701SOL    HW269972   3.086   7.305   7.154  0.0666 -0.1703  0.1619
22702SOL     OW69973   3.228   4.493   1.299  0.0790  0.3615  0.1954
22702SOL    HW169974   3.169   4.539   1.239  1.2014  0.5164 -0.8308
22702SOL    HW269975   3.309   4.483   1.249  0.0007 -2.4844  0.4384
22703SOL     OW69976   3.792   7.125   0.122  0.1348  0.4835 -0.7583
22703SOL    HW169977   3.722   7.109   0.058 -0.2721  1.6316 -0.6308
22703SOL    HW269978   3.864   7.069   0.094 -0.3863  0.2505 -1.6612
22704SOL     OW69979   0.206   6.638   4.572  0.4952 -0.0086  0.0867
22704SOL    HW169980   0.166   6.589   4.644 -2.9873 -0.1180 -1.7254
22704SOL    HW269981   0.197   6.730   4.599 -2.2307  0.0456 -0.7298
22705SOL     OW69982   5.608   2.546   7.096 -0.3217 -0.6661  0.4530
22705SOL    HW169983   5.690   2.520   7.139 -1.5059 -1.2616  2.5196
22705SOL    HW269984   5.588   2.631   7.135 -1.7598 -1.5151  1.6548
22706SOL     OW69985   8.311   0.149   6.209  0.0575  0.2580  0.3470
22706SOL    HW169986   8.266   0.227   6.178 -2.1585  0.7119  3.9985
22706SOL    HW269987   8.254   0.076   6.183  0.6177  0.1213 -0.5418
22707SOL     OW69988   2.133   1.666   0.645  0.4736  0.4824  0.0724
22707SOL    HW169989   2.137   1.571   0.648 -1.0342  0.3449 -1.0892
22707SOL    HW269990   2.146   1.694   0.736 -1.1124 -0.9476  0.7844
22708SOL     OW69991   3.091   6.115   1.858 -0.0540 -0.4882  0.1703
22708SOL    HW169992   3.019   6.054   1.874 -0.9508  0.3919 -0.3867
22708SOL    HW269993   3.169   6.059   1.850 -0.6133 -1.4275  1.1014
22709SOL     OW69994   0.812   1.840   1.211 -0.0949 -0.0950  0.5155
22709SOL    HW169995   0.830   1.921   1.259  0.7382 -0.8293  1.4967
22709SOL    HW269996   0.757   1.789   1.271  0.1564 -0.6256  0.3020
22710SOL     OW69997   1.181   1.205   5.756 -0.1189 -0.1791  0.5402
22710SOL    HW169998   1.145   1.167   5.675 -0.4337  1.7300 -0.2734
22710SOL    HW269999   1.275   1.213   5.739 -0.5122  2.7688 -0.8445
22711SOL     OW70000   1.377   8.524   0.056  0.1541 -0.1198  0.2015
22711SOL    HW170001   1.316   8.591   0.027 -0.6982 -1.2617 -0.7432
22711SOL    HW270002   1.453   8.533  -0.002  0.0418  0.0229  0.0770
22712SOL     OW70003   8.238   5.401   5.993 -0.1683 -0.2005  0.1993
22712SOL    HW170004   8.302   5.388   6.064 -0.5469 -0.5093  0.4861
22712SOL    HW270005   8.172   5.458   6.031 -0.9075 -1.1894  0.4404
22713SOL     OW70006   3.986   4.369   1.295  0.0356  0.1391  0.2437
22713SOL    HW170007   3.911   4.426   1.311  0.2465  0.7471 -0.8213
22713SOL    HW270008   4.008   4.333   1.381 -1.3797  0.0641  0.5985
22714SOL     OW70009   2.104   7.125   2.051 -0.1183  0.9380 -0.1666
22714SOL    HW170010   2.077   7.179   1.977  0.1410  0.8914 -0.2945
22714SOL    HW270011   2.189   7.160   2.076 -0.2090  0.9606  0.1173
22715SOL     OW70012   5.271   5.152   4.143 -0.2195  0.2792  0.1210
22715SOL    HW170013   5.296   5.068   4.183 -0.5896 -0.2978 -0.8059
22715SOL    HW270014   5.175   5.154   4.151 -0.2545  0.3796 -0.2888
22716SOL     OW70015   2.761   7.693   0.781  0.0675 -0.1421 -0.3398
22716SOL    HW170016   2.764   7.787   0.763 -1.6818 -0.1826 -1.0537
22716SOL    HW270017   2.833   7.657   0.730  1.0305  0.8463  0.2789
22717SOL     OW70018   0.554   1.950   4.752  0.0423  0.5754 -0.2875
22717SOL    HW170019   0.500   2.021   4.784  0.1376  1.9983 -3.0455
22717SOL    HW270020   0.492   1.883   4.722 -0.0961  0.6411 -0.1474
22718SOL     OW70021   5.261   1.051   0.170 -0.1699 -0.1451 -0.2343
22718SOL    HW170022   5.278   1.093   0.254 -1.0227  0.3935 -0.3166
22718SOL    HW270023   5.343   1.006   0.149 -0.3812 -1.4855  1.5598
22719SOL     OW70024   8.693   2.104   0.794  0.2340 -0.2153  0.1536
22719SOL    HW170025   8.740   2.069   0.718  0.9802 -0.1492  0.5684
22719SOL    HW270026   8.634   2.170   0.758 -1.1234 -1.8052 -0.6372
22720SOL     OW70027   5.770   0.320   8.719 -0.1032 -0.9129  0.0229
22720SOL    HW170028   5.744   0.232   8.691 -1.2098 -1.1335  1.6015
22720SOL    HW270029   5.783   0.312   8.813 -0.9743  0.7784  0.3184
22721SOL     OW70030   3.407   4.800   0.287  0.2699  0.1396  0.3128
22721SOL    HW170031   3.448   4.734   0.231  0.0340 -1.5966  2.0763
22721SOL    HW270032   3.480   4.853   0.319  0.6154 -0.0719 -0.1144
22722SOL     OW70033   7.980   6.853   1.514 -0.1507  0.0305  0.1413
22722SOL    HW170034   7.923   6.846   1.438  0.8597 -0.1857 -0.6290
22722SOL    HW270035   7.935   6.803   1.582 -0.9846  0.0625 -0.3698
22723SOL     OW70036   1.530   7.108   6.884  0.4589  0.4567 -0.0749
22723SOL    HW170037   1.506   7.016   6.894  0.0602  0.5388 -0.2364
22723SOL    HW270038   1.541   7.140   6.974  0.0889  0.3785  0.0002
22724SOL     OW70039   2.100   8.823   8.394  0.2394  0.1021 -0.0026
22724SOL    HW170040   2.094   8.728   8.384  1.3166 -0.0664  0.8019
22724SOL    HW270041   2.097   8.837   8.489 -0.4540  0.9205 -0.1331
22725SOL     OW70042   0.997   1.049   8.013  0.3156  0.8089  0.3582
22725SOL    HW170043   1.073   0.995   8.037  0.2714 -0.2133 -1.6008
22725SOL    HW270044   1.025   1.139   8.032  0.4442  0.2251  3.5898
22726SOL     OW70045   7.627   8.217   7.187 -0.6363  0.0597  0.4208
22726SOL    HW170046   7.646   8.141   7.242 -3.5918  0.1676  1.7620
22726SOL    HW270047   7.712   8.241   7.150  0.6562 -2.9313  1.1477
22727SOL     OW70048   7.554   2.700   2.970 -0.7893  0.6365 -0.0652
22727SOL    HW170049   7.459   2.700   2.974 -0.7681  1.8214  2.1616
22727SOL    HW270050   7.582   2.668   3.057  0.7975  2.2213  0.0687
22728SOL     OW70051   5.204   4.387   8.924 -0.2038 -0.0157 -0.5742
22728SOL    HW170052   5.178   4.471   8.962 -1.8941 -0.8516  0.2092
22728SOL    HW270053   5.235   4.409   8.836 -1.9449  1.2780 -0.9042
22729SOL     OW70054   4.072   4.519   8.287 -0.2821  0.0745  0.6463
22729SOL    HW170055   4.097   4.598   8.334 -1.1734 -0.1227  1.4882
22729SOL    HW270056   4.013   4.549   8.218 -0.3015  0.1829  0.7112
22730SOL     OW70057   3.809   0.622   8.368 -0.4087 -0.3702  0.1176
22730SOL    HW170058   3.862   0.688   8.323  1.7098 -1.4798  0.8233
22730SOL    HW270059   3.740   0.672   8.411 -1.0722  0.9643 -2.2952
22731SOL     OW70060   4.998   0.129   0.527  0.3530  0.5532  0.8159
22731SOL    HW170061   4.981   0.157   0.617  2.7874 -0.0591  1.5531
22731SOL    HW270062   4.979   0.035   0.528  0.8523  0.4486  0.8478
22732SOL     OW70063   6.354   1.744   8.741  0.0674  0.5397  0.5015
22732SOL    HW170064   6.280   1.765   8.797  0.5422  0.7194  1.0760
22732SOL    HW270065   6.343   1.799   8.664  0.0916  1.2429  0.9906
22733SOL     OW70066   7.174   8.933   6.937  0.4119  0.2467 -0.4433
22733SOL    HW170067   7.098   8.990   6.947 -1.8947 -2.7279  0.4993
22733SOL    HW270068   7.171   8.905   6.846  1.9671  2.0174 -1.1078
22734SOL     OW70069   5.860   8.424   5.831 -0.1542  0.5798  0.1601
22734SOL    HW170070   5.840   8.330   5.836  1.2289  0.0020 -2.8426
22734SOL    HW270071   5.774   8.467   5.834 -0.8692 -0.8225  0.7822
22735SOL     OW70072   3.098   5.246   8.273  0.0934  0.0916  0.1831
22735SOL    HW170073   3.165   5.311   8.251  0.9029 -0.5130  0.8116
22735SOL    HW270074   3.116   5.173   8.214 -1.0935  0.5799 -0.8396
22736SOL     OW70075   8.425   6.576   2.427 -0.2183  0.1290  0.0188
22736SOL    HW170076   8.474   6.564   2.508  0.0628 -0.4685 -0.2284
22736SOL    HW270077   8.335   6.591   2.455  0.0808  1.1347  0.4733
22737SOL     OW70078   8.901   8.226   5.259 -0.1978 -0.5118 -0.2184
22737SOL    HW170079   8.856   8.310   5.270  1.7770  0.8319 -1.7452
22737SOL    HW270080   8.832   8.166   5.231 -1.7634  0.4243  1.3684
22738SOL     OW70081   3.646   8.508   4.815 -0.5313  0.0294 -0.0228
22738SOL    HW170082   3.587   8.505   4.740 -0.8989  0.8967  0.2221
22738SOL    HW270083   3.706   8.580   4.795  1.5238 -1.8640 -1.0419
22739SOL     OW70084   0.670   1.163   6.230  0.1267 -0.3549 -0.1869
22739SOL    HW170085   0.660   1.081   6.279  0.7693  0.6879  1.8217
22739SOL    HW270086   0.585   1.177   6.189 -0.4127 -1.3748  0.5405
22740SOL     OW70087   4.828   5.848   5.322 -0.4417 -0.2910  0.2351
22740SOL    HW170088   4.747   5.861   5.371  0.8978 -0.0537  2.5338
22740SOL    HW270089   4.884   5.922   5.346  1.3644 -1.7191  0.7438
22741SOL     OW70090   4.156   1.399   2.326  0.0918  0.0324  0.1608
22741SOL    HW170091   4.086   1.463   2.325  1.1111  1.1874 -0.5459
22741SOL    HW270092   4.113   1.315   2.311 -1.1610  0.6739  0.1056
22742SOL     OW70093   5.488   3.108   1.962 -0.4390  0.4096  0.0816
22742SOL    HW170094   5.511   3.092   2.053 -1.1826  0.2257  0.2406
22742SOL    HW270095   5.548   3.177   1.934 -0.4281  0.6997  0.7993
22743SOL     OW70096   6.132   4.503   4.417  0.3426  0.0812  0.2029
22743SOL    HW170097   6.207   4.557   4.390  0.8619 -1.6146 -2.1100
22743SOL    HW270098   6.171   4.425   4.456  0.1602 -2.1318 -3.4808
22744SOL     OW70099   5.668   7.612   0.337 -0.1263 -0.2575  0.5322
22744SOL    HW170100   5.633   7.681   0.393  0.8253  0.0792  0.7233
22744SOL    HW270101   5.609   7.538   0.352 -1.7712  0.7700 -0.4168
22745SOL     OW70102   6.178   3.156   7.291  0.2440  0.4391  0.0261
22745SOL    HW170103   6.192   3.168   7.385 -2.8488 -1.8086  0.9540
22745SOL    HW270104   6.237   3.085   7.267  3.0055  2.7281 -0.5140
22746SOL     OW70105   3.695   4.620   1.647  0.3491 -0.1934 -0.8256
22746SOL    HW170106   3.738   4.675   1.713 -2.6104  2.7582 -1.1140
22746SOL    HW270107   3.639   4.561   1.697 -0.6570  0.9226 -0.6084
22747SOL     OW70108   6.605   6.463   0.496 -0.2390  0.0392 -0.5623
22747SOL    HW170109   6.650   6.545   0.478  0.5307 -0.4597 -0.9474
22747SOL    HW270110   6.606   6.456   0.592  2.0186 -0.7723 -0.5890
22748SOL     OW70111   1.001   5.761   0.872  0.7745 -0.5606  0.3232
22748SOL    HW170112   0.985   5.708   0.950 -2.9514 -0.6357 -0.3351
22748SOL    HW270113   0.951   5.841   0.887  2.2840  0.6551 -0.8472
22749SOL     OW70114   0.556   7.335   1.918  0.0481 -0.1844 -0.4921
22749SOL    HW170115   0.628   7.348   1.980  1.3908  0.5075 -2.1145
22749SOL    HW270116   0.488   7.396   1.946  0.7153  0.2693  0.1606
22750SOL     OW70117   7.710   5.486   8.387 -0.0066  0.3316 -0.4219
22750SOL    HW170118   7.616   5.468   8.385  0.1975 -1.0256  0.9091
22750SOL    HW270119   7.740   5.470   8.297 -1.0183  0.7512 -0.8483
22751SOL     OW70120   3.774   5.940   3.439 -0.2702 -0.4885  0.0338
22751SOL    HW170121   3.846   5.880   3.419  0.0224 -0.0188 -0.3655
22751SOL    HW270122   3.737   5.908   3.521  0.4657 -0.6744  0.2975
22752SOL     OW70123   1.870   0.866   0.871 -0.0960 -0.4848  0.0534
22752SOL    HW170124   1.787   0.880   0.826 -0.5468 -2.1860  0.2616
22752SOL    HW270125   1.862   0.778   0.908  2.2142 -1.1217 -0.8114
22753SOL     OW70126   8.031   8.451   3.937 -0.0828  0.0851 -0.1781
22753SOL    HW170127   7.987   8.371   3.912 -1.5646  0.1468  1.9517
22753SOL    HW270128   8.069   8.431   4.023  0.7726  1.2213 -0.2696
22754SOL     OW70129   1.196   8.727   6.300  0.2308 -0.6057 -0.5587
22754SOL    HW170130   1.154   8.813   6.307  0.3105 -0.2058 -3.6606
22754SOL    HW270131   1.201   8.710   6.206  1.0966 -3.6100 -0.0818
22755SOL     OW70132   7.102   4.380   0.113  0.3276 -0.1186 -0.2197
22755SOL    HW170133   7.020   4.367   0.161 -0.9265  2.6860 -1.3699
22755SOL    HW270134   7.153   4.438   0.169  1.4233 -1.5580  0.3184
22756SOL     OW70135   4.933   0.148   8.753  0.2911 -0.3948 -0.1792
22756SOL    HW170136   4.917   0.141   8.658  1.6240 -0.1767 -0.4344
22756SOL    HW270137   5.011   0.095   8.768  1.5095  1.4432  0.3735
22757SOL     OW70138   6.351   3.885   8.743  0.0020  0.3378  0.3912
22757SOL    HW170139   6.433   3.842   8.766 -0.4942 -0.4796  0.7007
22757SOL    HW270140   6.301   3.887   8.825 -0.7476 -0.2514 -0.0332
22758SOL     OW70141   8.743   2.598   1.157  0.2944 -0.3609  0.3703
22758SOL    HW170142   8.739   2.567   1.248  4.1690  0.2385  0.9065
22758SOL    HW270143   8.771   2.521   1.108 -0.3113 -0.2865 -0.1057
22759SOL     OW70144   1.931   3.773   7.787  0.1123 -0.1026  0.1685
22759SOL    HW170145   1.986   3.850   7.792  1.1025 -0.5631 -2.2245
22759SOL    HW270146   1.992   3.699   7.792 -0.5298 -0.6735 -0.2454
22760SOL     OW70147   5.306   5.880   8.983 -0.3669  0.5899 -0.2727
22760SOL    HW170148   5.341   5.806   8.933 -0.5760 -0.2266  0.7432
22760SOL    HW270149   5.228   5.845   9.025 -0.0894  1.1820  0.7784
22761SOL     OW70150   6.009   4.192   8.985 -0.0048  0.1670 -0.4827
22761SOL    HW170151   6.083   4.229   8.937 -0.8987  3.0412  0.1625
22761SOL    HW270152   5.934   4.205   8.927 -0.6229  1.0200  0.4684
22762SOL     OW70153   4.999   4.090   5.754  0.0560  0.4437 -0.0401
22762SOL    HW170154   5.037   4.015   5.800 -0.9446 -1.1648 -1.6769
22762SOL    HW270155   5.017   4.073   5.661  0.1292  2.4545 -0.4429
22763SOL     OW70156   2.189   3.750   5.081 -0.4580 -0.2555  0.2976
22763SOL    HW170157   2.266   3.785   5.037 -0.6454 -1.2072 -0.8433
22763SOL    HW270158   2.222   3.714   5.163  0.3694 -0.9368 -0.3210
22764SOL     OW70159   2.743   1.779   7.435 -0.2358 -0.2985 -0.7372
22764SOL    HW170160   2.761   1.844   7.502 -2.6949  1.1964 -1.4001
22764SOL    HW270161   2.734   1.696   7.482 -0.6143  0.4861  0.5954
22765SOL     OW70162   0.594   5.863   4.433  0.4497  0.4271  0.2438
22765SOL    HW170163   0.619   5.781   4.390 -0.2585 -0.0891  0.7837
22765SOL    HW270164   0.502   5.874   4.411  0.2733  0.5402  1.0122
22766SOL     OW70165   6.368   7.257   6.110  0.0650  0.5236  0.4692
22766SOL    HW170166   6.356   7.251   6.016  0.6852  0.7156  0.3760
22766SOL    HW270167   6.279   7.265   6.145 -0.5784 -3.4961  0.2080
22767SOL     OW70168   0.914   5.643   3.632 -0.0169  0.7412 -0.8520
22767SOL    HW170169   0.940   5.700   3.704  0.4763  0.6834 -0.9806
22767SOL    HW270170   0.833   5.601   3.663  0.9025 -0.3102  0.2391
22768SOL     OW70171   5.279   5.178   1.066 -0.4858  0.0008 -0.7036
22768SOL    HW170172   5.254   5.132   0.985 -1.5901  0.4968 -0.6579
22768SOL    HW270173   5.225   5.256   1.067  0.8753  0.9778 -0.4167
22769SOL     OW70174   4.453   2.185   4.561 -0.1782  0.5750 -0.1146
22769SOL    HW170175   4.484   2.202   4.650  1.0548  0.4129 -0.5001
22769SOL    HW270176   4.442   2.090   4.557  0.7261  0.4759 -0.4277
22770SOL     OW70177   4.983   7.142   2.645 -0.3171  0.0966 -0.0355
22770SOL    HW170178   4.983   7.051   2.675 -2.8341 -0.5814 -1.7821
22770SOL    HW270179   5.071   7.156   2.610  0.2259 -1.5282  0.5751
22771SOL     OW70180   2.850   5.461   4.518  0.0307 -0.0425  0.0568
22771SOL    HW170181   2.856   5.502   4.605  0.2939  1.5154 -0.6536
22771SOL    HW270182   2.938   5.466   4.483 -0.4297  1.1482 -1.0367
22772SOL     OW70183   1.629   6.327   0.533  0.5121 -0.5392 -0.1193
22772SOL    HW170184   1.564   6.376   0.583  0.5909 -0.9298  0.3751
22772SOL    HW270185   1.681   6.282   0.600  0.5930 -1.0956 -0.5501
22773SOL     OW70186   4.538   5.111   6.094  0.4732  0.0387  0.4723
22773SOL    HW170187   4.559   5.068   6.011 -1.7088  1.6780 -1.0439
22773SOL    HW270188   4.488   5.046   6.144 -1.2243  0.1198 -1.0198
22774SOL     OW70189   2.157   4.222   6.775  0.3674 -0.0429 -0.6932
22774SOL    HW170190   2.088   4.159   6.799  0.1531  0.9476  1.4878
22774SOL    HW270191   2.206   4.177   6.706 -1.7667 -1.2329 -1.5697
22775SOL     OW70192   2.991   6.946   5.018 -0.7664  0.5293  0.6262
22775SOL    HW170193   3.038   6.869   4.986 -0.1161  0.0789  2.5701
22775SOL    HW270194   2.918   6.911   5.069 -1.0446  1.2138  0.7187
22776SOL     OW70195   6.152   1.480   7.734 -0.1396  0.2052  0.5741
22776SOL    HW170196   6.156   1.538   7.810 -0.5085  1.3516 -0.2539
22776SOL    HW270197   6.076   1.511   7.684  0.8980  0.4016 -0.9653
22777SOL     OW70198   5.464   3.776   4.696 -0.0224 -0.0759  0.6335
22777SOL    HW170199   5.512   3.815   4.622  0.2678  0.1558  0.9396
22777SOL    HW270200   5.533   3.738   4.750 -0.3049 -1.0122  0.3412
22778SOL     OW70201   4.644   6.993   0.001 -0.4506  0.3765  0.1334
22778SOL    HW170202   4.576   7.060  -0.012 -0.1427  1.0032  1.6383
22778SOL    HW270203   4.720   7.041   0.034  0.5785 -0.3937 -1.0084
22779SOL     OW70204   7.699   0.837   7.882 -0.1498  0.2578 -0.1505
22779SOL    HW170205   7.606   0.859   7.885 -0.3494 -0.5492 -0.2480
22779SOL    HW270206   7.738   0.883   7.957 -0.4793  1.2369 -0.5673
22780SOL     OW70207   0.188   6.598   3.348 -0.1176  0.2644 -0.3804
22780SOL    HW170208   0.197   6.516   3.398  1.2557  0.5356 -0.1400
22780SOL    HW270209   0.216   6.575   3.260 -0.8754  0.2041 -0.6118
22781SOL     OW70210   8.321   7.992   5.105 -0.1796 -0.2286  0.0969
22781SOL    HW170211   8.336   7.934   5.031 -1.7427  0.6075 -0.9329
22781SOL    HW270212   8.376   7.957   5.175  0.5022 -1.6836 -1.1190
22782SOL     OW70213   5.668   4.097   6.615 -0.2409  0.2669  0.1291
22782SOL    HW170214   5.649   4.010   6.650  0.5142 -0.6234 -1.5331
22782SOL    HW270215   5.629   4.158   6.678 -2.9154 -1.2971  0.1499
22783SOL     OW70216   7.958   2.121   4.598  0.0064 -0.1228 -0.0780
22783SOL    HW170217   7.878   2.091   4.642 -0.2633  0.1571 -0.3770
22783SOL    HW270218   8.016   2.046   4.602 -0.5699 -0.6141 -0.5804
22784SOL     OW70219   0.116   5.068   7.013  0.2541 -0.4309 -0.0890
22784SOL    HW170220   0.149   5.152   7.044 -2.9841  0.7343  0.6082
22784SOL    HW270221   0.112   5.014   7.092 -0.8454 -0.0381  0.1446
22785SOL     OW70222   5.619   6.808   8.345 -0.1479  0.7145  0.1757
22785SOL    HW170223   5.613   6.893   8.301 -0.3092 -0.3850 -2.1266
22785SOL    HW270224   5.619   6.744   8.273 -1.3806 -1.3126  1.8520
22786SOL     OW70225   0.874   7.139   5.308  0.0241 -0.5515  0.7802
22786SOL    HW170226   0.787   7.134   5.269  0.9060  1.9458 -1.7635
22786SOL    HW270227   0.865   7.205   5.377  0.1742  0.7068 -0.3825
22787SOL     OW70228   4.195   3.168   0.097 -0.8488  1.0847 -0.3460
22787SOL    HW170229   4.260   3.219   0.146  0.4619 -0.3938 -0.4664
22787SOL    HW270230   4.235   3.082   0.088 -2.1662  0.5908 -1.8330
22788SOL     OW70231   5.671   2.248   4.954  0.0229 -0.3436  0.0244
22788SOL    HW170232   5.741   2.297   4.997  2.5476 -2.7010 -1.0661
22788SOL    HW270233   5.639   2.188   5.021  0.6499 -0.7685 -0.0428
22789SOL     OW70234   6.441   3.520   8.492  0.3287 -0.2027  0.2927
22789SOL    HW170235   6.517   3.476   8.455 -1.3563 -2.3201 -0.8857
22789SOL    HW270236   6.440   3.492   8.583  1.0103 -0.0640  0.3520
22790SOL     OW70237   5.981   8.439   3.998 -0.2182  0.4031 -0.0786
22790SOL    HW170238   6.008   8.474   3.913  0.0786 -0.2456 -0.2506
22790SOL    HW270239   5.955   8.517   4.048 -1.4251  0.7063 -1.1154
22791SOL     OW70240   7.821   4.992   7.669  0.1273  0.3974 -0.6044
22791SOL    HW170241   7.749   5.053   7.658  1.1855  1.5425 -1.4061
22791SOL    HW270242   7.899   5.042   7.647  1.0078 -1.3573 -1.7018
22792SOL     OW70243   0.425   6.316   2.314 -0.1014 -0.2869 -0.1626
22792SOL    HW170244   0.463   6.403   2.319 -0.2897  0.0209 -2.7352
22792SOL    HW270245   0.331   6.331   2.301 -0.5101 -0.9690  1.6180
22793SOL     OW70246   0.796   1.728   0.000  0.6600 -0.1808  0.5515
22793SOL    HW170247   0.730   1.661  -0.018  0.4272  0.4886 -1.2376
22793SOL    HW270248   0.763   1.774   0.078  0.2696 -1.3990  1.1321
22794SOL     OW70249   0.928   7.628   5.865  0.3694 -0.8360 -0.3184
22794SOL    HW170250   0.951   7.664   5.780  2.8194 -2.5658 -0.4903
22794SOL    HW270251   0.844   7.583   5.850 -1.4874  2.3926 -0.6598
22795SOL     OW70252   0.955   7.096   1.218 -0.3590 -0.0392  0.2757
22795SOL    HW170253   1.020   7.124   1.282  0.4026 -0.1392 -0.4450
22795SOL    HW270254   0.945   7.170   1.159 -1.9013  0.4911  1.1163
22796SOL     OW70255   2.517   2.804   3.984 -0.4207  0.7953 -1.0043
22796SOL    HW170256   2.553   2.781   3.898 -1.1970  0.5160 -1.2663
22796SOL    HW270257   2.574   2.874   4.016  0.6401  0.0325 -1.1802
22797SOL     OW70258   3.523   3.379   6.910  0.6498  0.4483 -0.6131
22797SOL    HW170259   3.432   3.384   6.880  0.6402  0.8231 -0.5286
22797SOL    HW270260   3.566   3.319   6.848 -0.3797 -2.3063  1.1486
22798SOL     OW70261   7.870   8.180   7.855  0.2285  0.0321 -0.0831
22798SOL    HW170262   7.779   8.150   7.859 -0.0351  0.3443 -2.2637
22798SOL    HW270263   7.877   8.222   7.769  1.5780  2.9618  1.3316
22799SOL     OW70264   7.844   2.850   0.403 -0.3930  0.1567  0.1020
22799SOL    HW170265   7.789   2.861   0.481  0.6313  1.5866  0.6547
22799SOL    HW270266   7.917   2.909   0.417  0.5015 -0.5664 -1.3506
22800SOL     OW70267   7.093   6.543   4.542 -0.1878  0.0117  0.4856
22800SOL    HW170268   7.052   6.468   4.500 -0.6008  0.4608  0.0631
22800SOL    HW270269   7.020   6.597   4.571  0.0874 -0.4029  2.0135
22801SOL     OW70270   4.560   2.093   2.466  0.1223  0.2279  0.5894
22801SOL    HW170271   4.631   2.156   2.461  0.1368  0.2122  0.5995
22801SOL    HW270272   4.541   2.072   2.375  0.8142 -0.5421  0.6107
22802SOL     OW70273   0.390   3.870   2.356  0.5503 -0.1763 -0.1773
22802SOL    HW170274   0.345   3.789   2.379  1.0136 -0.3265  0.2154
22802SOL    HW270275   0.320   3.931   2.335  0.1192 -0.2514  0.9331
22803SOL     OW70276   8.190   0.639   0.075  0.5502  0.4399 -0.5552
22803SOL    HW170277   8.126   0.692   0.028  0.9667  1.6343  0.1962
22803SOL    HW270278   8.138   0.592   0.140  0.2692  0.3871 -0.8137
22804SOL     OW70279   2.915   4.203   5.947 -0.8947 -0.1011 -0.0784
22804SOL    HW170280   2.902   4.291   5.911 -0.6814  0.5283  1.3294
22804SOL    HW270281   2.853   4.197   6.020 -0.2791 -0.7769  0.4028
22805SOL     OW70282   8.072   6.521   1.257 -0.4106  0.0711 -0.1592
22805SOL    HW170283   8.158   6.543   1.220 -1.2558  0.5683 -1.9762
22805SOL    HW270284   8.038   6.453   1.198 -1.4621  0.2375  0.2377
22806SOL     OW70285   4.038   8.668   2.721  0.6898 -0.1724 -0.7816
22806SOL    HW170286   4.054   8.607   2.649  0.2623 -0.4294 -0.6628
22806SOL    HW270287   4.114   8.726   2.720 -0.7686  1.9334 -3.5396
22807SOL     OW70288   2.327   4.846   6.816 -0.3118  0.5876  0.6873
22807SOL    HW170289   2.415   4.879   6.799  1.1048 -1.8939  2.5963
22807SOL    HW270290   2.324   4.761   6.774 -1.8059  0.6149  0.6870
22808SOL     OW70291   4.486   6.365   8.433  0.2413  0.3367  0.2523
22808SOL    HW170292   4.415   6.415   8.393  0.7506 -0.0508 -1.1936
22808SOL    HW270293   4.441   6.297   8.484 -0.4263  0.7725  0.2621
22809SOL     OW70294   5.358   3.987   8.824  0.0995  0.4131 -0.8336
22809SOL    HW170295   5.407   3.916   8.865  1.4722  1.9085  0.2259
22809SOL    HW270296   5.361   3.967   8.731  0.7601 -0.7335 -0.5881
22810SOL     OW70297   1.151   6.196   2.594  0.1971 -0.0587 -0.0069
22810SOL    HW170298   1.064   6.165   2.571  1.2815 -2.3308 -1.4481
22810SOL    HW270299   1.143   6.291   2.597 -2.1937 -0.1858 -0.6841
22811SOL     OW70300   5.695   1.093   2.438  0.1998  0.4062 -0.2014
22811SOL    HW170301   5.756   1.027   2.406 -0.3062 -0.9838  1.5238
22811SOL    HW270302   5.654   1.129   2.359  0.6731 -1.1682 -1.1967
22812SOL     OW70303   8.065   1.486   7.126 -0.7633 -0.1935  0.1200
22812SOL    HW170304   8.027   1.411   7.173  0.4810  0.5833  2.4808
22812SOL    HW270305   8.007   1.498   7.051 -0.6745 -3.9001 -0.7489
22813SOL     OW70306   7.710   2.549   8.390  0.0878  0.3167  0.1382
22813SOL    HW170307   7.673   2.482   8.448  0.4315  0.3755  0.4265
22813SOL    HW270308   7.688   2.632   8.432  2.0531  0.3173  1.2422
22814SOL     OW70309   2.504   4.295   6.456 -0.4107 -0.2226 -0.0338
22814SOL    HW170310   2.532   4.214   6.415 -1.1754 -0.1285 -0.7750
22814SOL    HW270311   2.408   4.288   6.460 -0.3860 -0.1390  1.5642
22815SOL     OW70312   6.266   3.284   5.274 -0.5603  0.1450  0.0653
22815SOL    HW170313   6.302   3.238   5.198  1.8739  2.3051 -0.2325
22815SOL    HW270314   6.208   3.350   5.236 -0.0101  0.6617  0.1025
22816SOL     OW70315   4.400   4.728   6.910 -0.0318 -0.6742 -0.0309
22816SOL    HW170316   4.439   4.763   6.991 -2.4813  0.3071  0.8084
22816SOL    HW270317   4.405   4.633   6.920  2.7087 -0.6506 -0.3175
22817SOL     OW70318   0.312   6.982   3.271 -0.1045 -0.1979  0.0785
22817SOL    HW170319   0.284   7.058   3.220 -0.3614  0.2937  0.9380
22817SOL    HW270320   0.375   6.937   3.214  0.0417  0.6506 -0.4494
22818SOL     OW70321   1.131   6.805   7.629  0.4734  0.4879 -0.1451
22818SOL    HW170322   1.181   6.752   7.690 -2.4527  0.1017  2.1328
22818SOL    HW270323   1.084   6.741   7.574  0.4091  0.7871 -0.4467
22819SOL     OW70324   5.103   3.426   6.875  0.4995  0.5026 -0.1833
22819SOL    HW170325   5.150   3.435   6.958  0.1962  1.4970 -0.1093
22819SOL    HW270326   5.079   3.516   6.851  1.7400  0.3953 -2.0204
22820SOL     OW70327   0.721   2.577   6.291 -0.4587  0.0705 -0.0198
22820SOL    HW170328   0.631   2.544   6.300 -0.9946  1.3321 -0.4846
22820SOL    HW270329   0.737   2.625   6.373 -0.8079  1.1919 -0.5985
22821SOL     OW70330   8.379   6.879   2.431 -0.9357 -0.1313  0.5200
22821SOL    HW170331   8.455   6.821   2.436 -2.5088 -2.2848  4.8883
22821SOL    HW270332   8.381   6.929   2.513 -3.1606  1.2194 -0.1501
22822SOL     OW70333   5.873   4.908   0.491  0.0966  0.0018 -0.0117
22822SOL    HW170334   5.866   4.820   0.455 -2.5976 -0.2268  0.8456
22822SOL    HW270335   5.888   4.895   0.585 -0.8212  0.3955  0.2074
22823SOL     OW70336   6.763   5.626   3.850 -0.3728  0.3227 -0.2590
22823SOL    HW170337   6.853   5.642   3.821 -0.4825 -1.4544 -1.7804
22823SOL    HW270338   6.740   5.542   3.811 -2.3974  0.3001  0.8569
22824SOL     OW70339   8.483   1.112   0.779 -0.2042  0.5415  0.3801
22824SOL    HW170340   8.472   1.202   0.747 -1.3780  1.0674  2.1241
22824SOL    HW270341   8.432   1.059   0.719 -0.1561  1.1353 -0.2002
22825SOL     OW70342   3.360   1.267   1.735  0.4003  0.0521  0.0467
22825SOL    HW170343   3.393   1.247   1.823 -2.8157  0.1256  1.4193
22825SOL    HW270344   3.307   1.192   1.712  2.4382 -0.6928 -2.6661
22826SOL     OW70345   6.601   0.842   8.418 -0.6083  0.2406 -0.3315
22826SOL    HW170346   6.626   0.789   8.342  0.0975  0.0006  0.0606
22826SOL    HW270347   6.648   0.924   8.408  0.0490 -0.0601  0.2022
22827SOL     OW70348   5.554   6.519   7.347 -0.4593  0.5041 -0.4649
22827SOL    HW170349   5.644   6.541   7.371 -0.5242  1.2160 -0.8620
22827SOL    HW270350   5.558   6.495   7.255 -0.7696  1.1199 -0.6440
22828SOL     OW70351   5.767   5.157   8.092 -0.2195 -0.8668 -0.6159
22828SOL    HW170352   5.691   5.173   8.035 -0.7607  1.2001  0.5707
22828SOL    HW270353   5.729   5.124   8.173  0.0416  0.7363  0.1976
22829SOL     OW70354   0.217   3.777   3.013 -0.1859  0.3657 -0.2058
22829SOL    HW170355   0.220   3.713   3.085  1.9104  1.9808  1.2580
22829SOL    HW270356   0.125   3.802   3.008 -0.9541 -2.1246 -0.3221
22830SOL     OW70357   4.010   7.038   8.589  0.2984 -0.4357 -0.0031
22830SOL    HW170358   4.012   7.108   8.655 -0.5873 -0.6340  0.2499
22830SOL    HW270359   3.937   6.982   8.616  0.7597 -1.2551 -0.4131
22831SOL     OW70360   1.863   8.466   8.016  0.0357 -0.3288  0.5763
22831SOL    HW170361   1.940   8.509   7.980  0.6726  0.6111  2.8508
22831SOL    HW270362   1.811   8.440   7.940  1.3896  1.2446 -0.9620
22832SOL     OW70363   8.953   6.441   1.301 -0.0270  0.1312 -0.1304
22832SOL    HW170364   9.015   6.373   1.328  0.7197  0.1657 -1.6336
22832SOL    HW270365   8.902   6.401   1.231 -0.4000  0.7268 -0.2092
22833SOL     OW70366   2.940   2.898   8.126  0.2021  0.4128  0.1042
22833SOL    HW170367   2.950   2.822   8.069  0.1188  1.4827 -1.3951
22833SOL    HW270368   2.991   2.876   8.205 -0.3371 -1.4250 -0.0183
22834SOL     OW70369   6.460   0.815   8.983 -0.3562 -0.1598  0.4845
22834SOL    HW170370   6.388   0.752   8.982 -1.8842  1.4713  0.6512
22834SOL    HW270371   6.451   0.860   9.067  0.1557  0.8193  0.0307
22835SOL     OW70372   3.405   3.970   6.892 -0.5165 -0.2261 -0.4834
22835SOL    HW170373   3.459   3.971   6.813  0.7898 -1.0494  0.3518
22835SOL    HW270374   3.377   3.879   6.901  1.1159 -0.6508  1.0810
22836SOL     OW70375   8.518   3.390   7.620  0.0232  0.0487  0.6687
22836SOL    HW170376   8.587   3.434   7.572  0.9857 -1.3708  0.6942
22836SOL    HW270377   8.460   3.461   7.648  1.8842  1.3875  1.3633
22837SOL     OW70378   0.299   8.780   8.708  0.7846  0.3320 -0.8204
22837SOL    HW170379   0.334   8.731   8.782  1.7302 -0.0493 -1.5042
22837SOL    HW270380   0.342   8.865   8.712  0.1521  0.6397 -0.4143
22838SOL     OW70381   4.648   5.300   5.827  0.0721  0.3059  0.0076
22838SOL    HW170382   4.661   5.352   5.748 -0.0487 -0.7510 -0.7396
22838SOL    HW270383   4.586   5.231   5.799 -1.4619  1.0085  1.5205
22839SOL     OW70384   7.775   0.953   5.550  0.4564 -0.3570  0.2589
22839SOL    HW170385   7.867   0.979   5.550  0.7574 -1.1399 -2.0879
22839SOL    HW270386   7.767   0.896   5.473 -2.3281  0.9025 -0.4890
22840SOL     OW70387   2.072   3.940   2.664 -0.3875  0.0804 -0.0724
22840SOL    HW170388   1.984   3.902   2.659 -0.0769 -1.0142  1.7829
22840SOL    HW270389   2.116   3.911   2.585 -1.3766 -0.2078 -0.5285
22841SOL     OW70390   6.555   3.197   5.768  0.1244 -0.0060 -0.3021
22841SOL    HW170391   6.459   3.199   5.766  0.1156  0.6778  0.2366
22841SOL    HW270392   6.578   3.114   5.728 -0.6694  0.2416 -1.3359
22842SOL     OW70393   8.000   2.778   0.673  0.0585 -0.0158  0.2840
22842SOL    HW170394   8.084   2.761   0.716 -0.3089  1.2005  1.5623
22842SOL    HW270395   8.012   2.863   0.630 -1.0051  1.0275  1.9315
22843SOL     OW70396   4.832   4.788   2.085 -0.2755 -0.3660  0.0221
22843SOL    HW170397   4.918   4.790   2.128 -0.1291 -1.5854 -0.1758
22843SOL    HW270398   4.782   4.723   2.135 -0.7094 -0.4586 -0.5207
22844SOL     OW70399   7.090   3.270   6.247  0.1699  0.2185  0.2073
22844SOL    HW170400   7.011   3.277   6.300  0.4237 -0.4448  0.6793
22844SOL    HW270401   7.113   3.177   6.248  0.9196  0.3899  0.0279
22845SOL     OW70402   4.524   8.814   3.083  0.1466 -0.3204  0.1319
22845SOL    HW170403   4.574   8.838   3.005  2.0978  0.9038  1.6767
22845SOL    HW270404   4.506   8.897   3.127 -0.3551 -1.0412  1.3435
22846SOL     OW70405   2.913   0.446   8.563 -0.4833  0.0782 -0.0296
22846SOL    HW170406   2.819   0.431   8.565 -0.6166  0.9105  1.3189
22846SOL    HW270407   2.948   0.394   8.636  0.0270  0.2666 -0.1318
22847SOL     OW70408   6.564   2.454   0.306  0.5731  0.4004  0.0784
22847SOL    HW170409   6.645   2.457   0.357  1.5750 -0.1673 -1.4153
22847SOL    HW270410   6.552   2.361   0.286  0.1016  0.5900 -0.5653
22848SOL     OW70411   7.853   6.614   5.256  0.2378 -0.0606 -0.0114
22848SOL    HW170412   7.945   6.630   5.235  0.3389 -0.3304  0.2153
22848SOL    HW270413   7.855   6.543   5.320 -0.1292 -0.0716 -0.0083
22849SOL     OW70414   1.703   3.400   1.558  0.2975 -0.1736  0.6658
22849SOL    HW170415   1.775   3.337   1.565  0.1555 -0.1723  2.4598
22849SOL    HW270416   1.636   3.366   1.616 -1.4167 -0.4386 -1.3465
22850SOL     OW70417   6.788   4.713   2.878  0.1550 -0.2777  0.4495
22850SOL    HW170418   6.837   4.660   2.816  0.2979 -0.5687  0.8119
22850SOL    HW270419   6.801   4.803   2.848  0.9590 -0.3470  0.5830
22851SOL     OW70420   5.653   7.978   3.923  0.3495 -0.1217 -0.0940
22851SOL    HW170421   5.658   8.061   3.970  1.0624 -0.7808  1.0337
22851SOL    HW270422   5.574   7.935   3.956  0.7825 -0.5281  0.4404
22852SOL     OW70423   6.569   1.656   5.410 -0.1861 -0.1438  0.3725
22852SOL    HW170424   6.585   1.720   5.479  2.8055  1.1192 -1.3119
22852SOL    HW270425   6.581   1.571   5.453  0.4851  0.5646  1.6613
22853SOL     OW70426   5.676   0.865   0.862  0.1067 -0.2775 -0.1204
22853SOL    HW170427   5.682   0.931   0.793  1.9354  0.1845  0.4227
22853SOL    HW270428   5.743   0.891   0.926 -0.5701 -1.4904  1.1276
22854SOL     OW70429   3.020   3.483   5.964  0.7000 -0.1019 -0.7960
22854SOL    HW170430   3.057   3.412   6.017 -1.4696 -0.3561  0.4784
22854SOL    HW270431   2.996   3.551   6.027 -1.7967 -0.3433 -1.3865
22855SOL     OW70432   3.539   1.206   6.809 -0.3413 -0.6639 -0.2379
22855SOL    HW170433   3.605   1.150   6.849  0.3736  0.4919  0.2329
22855SOL    HW270434   3.529   1.170   6.720  0.1441 -1.4868  0.0241
22856SOL     OW70435   6.159   6.817   7.054 -0.3669 -0.3295 -0.1594
22856SOL    HW170436   6.206   6.850   6.977 -0.2895  0.0057  0.0308
22856SOL    HW270437   6.185   6.876   7.125 -2.2428  0.7959 -0.3435
22857SOL     OW70438   5.354   6.927   3.735 -0.1734  0.0346 -0.3242
22857SOL    HW170439   5.401   6.880   3.803 -1.5261 -0.0860  0.5719
22857SOL    HW270440   5.262   6.909   3.752 -0.6423  1.5063 -1.0773
22858SOL     OW70441   3.608   0.888   7.414 -0.5009 -0.5564 -0.5008
22858SOL    HW170442   3.586   0.795   7.409  1.1450 -0.9858 -0.4770
22858SOL    HW270443   3.536   0.927   7.462 -0.3666 -2.1631  1.1406
22859SOL     OW70444   1.576   1.248   5.603  0.1551  0.0867 -0.1591
22859SOL    HW170445   1.550   1.333   5.569  2.2103  0.4259 -1.0622
22859SOL    HW270446   1.527   1.239   5.685 -2.3031  0.7902 -1.4462
22860SOL     OW70447   2.588   3.510   5.752  0.0685  0.5828 -0.1907
22860SOL    HW170448   2.567   3.568   5.679  1.9182  0.9988 -0.4401
22860SOL    HW270449   2.613   3.428   5.710 -0.6156  0.2206  0.0828
22861SOL     OW70450   5.801   3.915   7.213 -0.2177 -1.1471 -0.3967
22861SOL    HW170451   5.717   3.911   7.258  1.0019  2.2149  2.6463
22861SOL    HW270452   5.846   3.835   7.237 -1.7115 -1.9834 -0.2999
22862SOL     OW70453   1.764   2.554   0.745 -0.0107  0.0211  0.2458
22862SOL    HW170454   1.846   2.598   0.767  0.7927 -1.3235  0.0237
22862SOL    HW270455   1.698   2.600   0.796  0.8508  1.2234  0.3159
22863SOL     OW70456   0.277   5.638   7.974 -0.3115 -0.6960  0.1963
22863SOL    HW170457   0.205   5.700   7.964 -1.1497 -1.3483  1.7859
22863SOL    HW270458   0.325   5.668   8.050  0.2497 -1.0843  0.0017
22864SOL     OW70459   7.956   8.493   8.997 -0.2248 -0.0927 -0.6742
22864SOL    HW170460   7.998   8.437   8.932  1.1886 -1.1686  1.0617
22864SOL    HW270461   8.026   8.548   9.030 -0.9908  0.6640 -0.2648
22865SOL     OW70462   6.545   3.389   5.013  0.0337 -0.4958  0.4152
22865SOL    HW170463   6.580   3.327   5.077  1.5811 -1.0366 -0.8869
22865SOL    HW270464   6.576   3.474   5.042  0.2833 -0.6732  0.6708
22866SOL     OW70465   3.669   6.758   5.718 -0.1086  0.2850  0.6050
22866SOL    HW170466   3.656   6.823   5.786 -0.9927  0.5733  0.1707
22866SOL    HW270467   3.581   6.725   5.698 -0.1367  1.5731 -1.7196
22867SOL     OW70468   1.412   3.066   7.188  0.2828 -0.0689 -0.1242
22867SOL    HW170469   1.329   3.095   7.152 -2.5911 -3.2362  3.0814
22867SOL    HW270470   1.433   2.986   7.139 -0.6266 -1.2436  1.2908
22868SOL     OW70471   4.955   4.384   0.195  0.6146 -0.0429 -0.2188
22868SOL    HW170472   4.939   4.462   0.143 -3.3135 -0.2449  0.4410
22868SOL    HW270473   4.955   4.312   0.131 -0.7922  0.0440 -0.3345
22869SOL     OW70474   4.686   4.054   7.848 -0.2329  0.0477 -0.3976
22869SOL    HW170475   4.660   4.128   7.902  0.8003  0.9218 -1.0336
22869SOL    HW270476   4.738   3.998   7.906 -0.4213  0.1878 -0.0941
22870SOL     OW70477   4.709   3.263   3.532 -0.3547 -0.3673  0.1738
22870SOL    HW170478   4.625   3.240   3.492 -0.0013 -2.4133  0.4968
22870SOL    HW270479   4.708   3.218   3.616  0.0496  1.6764  1.3437
22871SOL     OW70480   3.677   4.671   8.806 -0.1184  0.0143  0.1640
22871SOL    HW170481   3.719   4.653   8.722 -0.8209  0.1680 -0.2354
22871SOL    HW270482   3.613   4.600   8.816  1.2883 -1.1228  1.5232
22872SOL     OW70483   0.432   1.772   6.292  0.2450 -0.4209 -0.3665
22872SOL    HW170484   0.468   1.787   6.205  1.9571 -0.3098  0.3156
22872SOL    HW270485   0.433   1.677   6.303  0.7918 -0.3949 -0.1731
22873SOL     OW70486   3.856   2.665   3.791 -0.2673 -0.3171  0.2403
22873SOL    HW170487   3.851   2.718   3.712 -1.5087 -0.9506 -0.1416
22873SOL    HW270488   3.941   2.623   3.787  0.9617  1.9543  0.7900
22874SOL     OW70489   0.269   0.709   0.487 -0.2961  0.1520  0.3439
22874SOL    HW170490   0.315   0.734   0.407  2.1419  1.5769  2.0523
22874SOL    HW270491   0.236   0.791   0.523  1.8777  0.1675  2.5909
22875SOL     OW70492   4.097   6.180   6.136 -0.1211 -0.4567  0.3763
22875SOL    HW170493   4.008   6.145   6.150 -0.6411  0.8818  0.5257
22875SOL    HW270494   4.101   6.198   6.043 -0.5191  0.7699  0.5762
22876SOL     OW70495   7.262   8.152   6.914  0.5920 -0.2345 -0.2518
22876SOL    HW170496   7.240   8.075   6.967  2.0925 -0.6465 -0.1815
22876SOL    HW270497   7.201   8.220   6.944 -0.5851 -1.3099 -0.1412
22877SOL     OW70498   3.913   7.885   0.634 -0.5455 -0.0471  0.0213
22877SOL    HW170499   3.838   7.831   0.608  1.3043 -2.1540 -1.3278
22877SOL    HW270500   3.949   7.840   0.710 -0.3317  0.6476  0.3362
22878SOL     OW70501   6.450   6.835   7.361  0.2254 -0.3012  0.3680
22878SOL    HW170502   6.531   6.853   7.409  0.1752  0.6217  0.1385
22878SOL    HW270503   6.473   6.765   7.300  0.6780 -0.4849  0.7438
22879SOL     OW70504   5.465   6.275   5.883  0.0481  0.1405  0.7758
22879SOL    HW170505   5.528   6.318   5.825  0.9918 -0.5609  1.2561
22879SOL    HW270506   5.486   6.307   5.970  0.1013 -0.5213  1.0084
22880SOL     OW70507   3.563   4.744   3.236 -0.4044 -0.0421  0.4594
22880SOL    HW170508   3.507   4.763   3.161  1.4357 -0.4613 -1.1159
22880SOL    HW270509   3.544   4.652   3.256 -2.3055  0.5939  1.8311
22881SOL     OW70510   2.708   6.111   0.401  0.0409 -0.1026 -0.7121
22881SOL    HW170511   2.698   6.062   0.319  0.6239 -1.2063 -0.1461
22881SOL    HW270512   2.783   6.070   0.444 -0.3694  0.3352  0.4589
22882SOL     OW70513   3.266   2.508   2.335 -0.7525 -0.7587  0.2304
22882SOL    HW170514   3.184   2.537   2.295 -0.1113 -0.0935 -0.6246
22882SOL    HW270515   3.289   2.427   2.288 -0.1962 -0.1829 -0.4999
22883SOL     OW70516   5.232   0.347   8.450  0.1262 -0.3225 -0.1002
22883SOL    HW170517   5.256   0.296   8.527 -2.9733  0.3793  1.4948
22883SOL    HW270518   5.267   0.298   8.376  1.2935 -2.2116  1.6338
22884SOL     OW70519   0.169   4.731   4.649 -0.4327 -0.3414  0.0025
22884SOL    HW170520   0.170   4.820   4.614 -1.3192  0.0882  1.0159
22884SOL    HW270521   0.139   4.677   4.576 -0.5174  0.2857 -0.4363
22885SOL     OW70522   5.768   4.420   3.384  0.2035  0.0097 -0.3571
22885SOL    HW170523   5.693   4.366   3.410  0.7839 -0.5622  0.1836
22885SOL    HW270524   5.844   4.364   3.399  0.6278 -0.2824 -3.0798
22886SOL     OW70525   0.114   1.604   7.806  0.2142  0.0679  0.0178
22886SOL    HW170526   0.057   1.651   7.745  0.1329  0.5004  0.4154
22886SOL    HW270527   0.198   1.598   7.762 -0.0404 -0.2557 -0.4274
22887SOL     OW70528   4.907   1.425   3.978 -0.2452  0.0944 -0.2303
22887SOL    HW170529   4.907   1.330   3.986  1.4050  0.0675 -0.2387
22887SOL    HW270530   4.969   1.444   3.908 -2.1849  1.1050 -1.7517
22888SOL     OW70531   7.305   1.756   4.439 -0.2118 -0.4349  0.0523
22888SOL    HW170532   7.349   1.690   4.386  2.0478 -0.1821  1.5000
22888SOL    HW270533   7.296   1.832   4.381 -1.3328 -1.3948 -1.1071
22889SOL     OW70534   6.190   7.110   8.406 -0.6960  0.1451  0.3640
22889SOL    HW170535   6.267   7.088   8.459 -0.4182 -1.1138 -0.5014
22889SOL    HW270536   6.181   7.205   8.414 -0.4721  0.0400  2.3630
22890SOL     OW70537   4.941   3.537   5.455 -0.1015  0.0834 -0.0224
22890SOL    HW170538   5.002   3.599   5.496  0.2161 -0.1690 -0.1046
22890SOL    HW270539   4.976   3.523   5.367 -0.1374 -0.2518  0.0140
22891SOL     OW70540   1.790   0.654   7.493  0.4746  0.3292 -1.1992
22891SOL    HW170541   1.726   0.648   7.422  0.3894  0.6056 -1.1482
22891SOL    HW270542   1.856   0.714   7.461  1.0999 -0.5268 -1.5444
22892SOL     OW70543   7.914   2.358   5.011 -0.1375 -0.0694 -0.6027
22892SOL    HW170544   8.003   2.378   5.040 -0.9370  2.2528  0.4968
22892SOL    HW270545   7.917   2.370   4.916  0.4425  1.2386 -0.4372
22893SOL     OW70546   3.723   7.856   0.910  0.4830 -0.2480  1.2783
22893SOL    HW170547   3.672   7.921   0.958 -0.8463 -0.0793 -0.2668
22893SOL    HW270548   3.673   7.775   0.919  0.8060 -0.4676  1.1034
22894SOL     OW70549   2.916   1.901   7.977 -0.0769  0.0710 -0.2093
22894SOL    HW170550   2.958   1.902   7.891 -0.1311 -1.3970 -0.2852
22894SOL    HW270551   2.988   1.915   8.039 -0.0101  0.9433 -0.4700
22895SOL     OW70552   1.571   6.148   1.652  0.0696  0.1587 -0.2310
22895SOL    HW170553   1.555   6.182   1.564  0.5405 -0.1889 -0.4583
22895SOL    HW270554   1.658   6.180   1.675  0.1218 -0.1024 -0.0625
22896SOL     OW70555   4.915   2.276   0.112  0.0991  0.1428 -0.0780
22896SOL    HW170556   4.922   2.274   0.208 -0.6765  0.0212 -0.0119
22896SOL    HW270557   4.841   2.334   0.096  0.6210  0.6631 -0.6344
22897SOL     OW70558   3.251   0.369   0.597 -0.2664  0.1304 -0.2839
22897SOL    HW170559   3.248   0.462   0.574 -1.1308  0.5135  1.2752
22897SOL    HW270560   3.162   0.338   0.583  0.1186 -0.5964 -1.2332
22898SOL     OW70561   0.788   3.218   5.690  0.4568 -0.2449  0.1236
22898SOL    HW170562   0.783   3.309   5.661 -2.6888 -0.3017  0.1128
22898SOL    HW270563   0.791   3.166   5.609 -0.4316 -0.1813  0.0362
22899SOL     OW70564   5.912   4.623   6.605  0.1018 -0.0639 -0.3092
22899SOL    HW170565   5.981   4.595   6.545 -0.2432 -1.0726 -0.2616
22899SOL    HW270566   5.835   4.573   6.578 -0.1088 -0.3986  0.8337
22900SOL     OW70567   0.341   2.874   8.861  0.2324 -0.3688  0.3805
22900SOL    HW170568   0.412   2.820   8.895 -0.0164 -0.9205  0.0278
22900SOL    HW270569   0.385   2.942   8.810  0.6443  0.7710  2.1675
22901SOL     OW70570   6.661   2.007   7.305 -0.4888  0.4657  0.1429
22901SOL    HW170571   6.639   1.939   7.369 -1.7035 -0.1269 -0.8584
22901SOL    HW270572   6.728   2.060   7.348  1.7949 -2.3592  0.3198
22902SOL     OW70573   6.048   8.345   2.708 -0.3122 -0.4460 -0.1064
22902SOL    HW170574   5.957   8.368   2.729 -0.5186 -0.2745 -1.1476
22902SOL    HW270575   6.074   8.287   2.779 -0.9062  0.2923  0.7358
22903SOL     OW70576   4.220   2.597   7.867  0.4034  0.1829 -0.3386
22903SOL    HW170577   4.304   2.625   7.828  0.1201  0.3402 -0.8493
22903SOL    HW270578   4.181   2.541   7.800 -0.8695  1.8127 -1.0179
22904SOL     OW70579   6.712   6.708   8.818  0.7735  0.4850  0.7955
22904SOL    HW170580   6.717   6.724   8.724  0.3363  0.8473  0.8328
22904SOL    HW270581   6.762   6.780   8.857  0.0541  0.9359  0.8905
22905SOL     OW70582   0.308   4.901   4.809 -0.4914  0.1187 -0.3670
22905SOL    HW170583   0.244   4.835   4.781  0.3603 -0.6791 -0.4750
22905SOL    HW270584   0.333   4.875   4.897 -0.3618  0.4785 -0.2941
22906SOL     OW70585   1.353   5.946   6.684 -0.0763  0.5259  0.1013
22906SOL    HW170586   1.293   5.918   6.615 -1.6407  1.1408  1.1435
22906SOL    HW270587   1.357   5.873   6.745  0.0938  0.5551  0.1270
22907SOL     OW70588   8.079   8.270   3.023  0.2017 -0.0621 -0.4545
22907SOL    HW170589   8.027   8.251   3.102  1.6627  0.9824  0.8105
22907SOL    HW270590   8.030   8.340   2.979 -1.0577 -1.2139 -0.9548
22908SOL     OW70591   5.853   1.608   2.067 -0.4085 -0.2490  0.1116
22908SOL    HW170592   5.885   1.527   2.109 -0.2457 -1.0708 -1.5338
22908SOL    HW270593   5.849   1.671   2.139  2.0793 -0.9349  0.9671
22909SOL     OW70594   6.662   0.563   1.795 -0.5225  0.6886  0.1182
22909SOL    HW170595   6.751   0.560   1.830  0.2618 -1.2914 -1.7754
22909SOL    HW270596   6.605   0.561   1.873  1.1015 -0.0785  1.3419
22910SOL     OW70597   7.208   3.460   5.444  0.8903 -0.0604 -0.1597
22910SOL    HW170598   7.120   3.491   5.422  0.1562 -1.9288 -0.0596
22910SOL    HW270599   7.206   3.447   5.539  0.6185 -1.8764 -0.3752
22911SOL     OW70600   5.411   4.808   7.369 -0.2581  0.1469  0.4493
22911SOL    HW170601   5.467   4.858   7.309 -0.4636  0.6074  0.6346
22911SOL    HW270602   5.442   4.718   7.361 -0.6276  0.1077 -0.7392
22912SOL     OW70603   6.817   6.997   5.529 -0.4089  0.1657  0.1782
22912SOL    HW170604   6.843   6.908   5.554  0.4640 -0.1045 -1.5626
22912SOL    HW270605   6.729   7.007   5.565  0.1803 -0.7065  1.9821
22913SOL     OW70606   0.918   3.569   4.020  0.0985  0.0238  0.3373
22913SOL    HW170607   0.999   3.522   4.039 -0.6070 -0.2194  3.1120
22913SOL    HW270608   0.942   3.631   3.951  1.6847 -2.5152 -1.6169
22914SOL     OW70609   6.790   2.068   2.285  0.6913 -0.2390 -0.2918
22914SOL    HW170610   6.745   2.068   2.370 -0.2164  1.2443 -0.7373
22914SOL    HW270611   6.720   2.065   2.220  1.1523  2.0725 -0.9975
22915SOL     OW70612   6.707   7.257   0.327 -0.1118 -0.3980 -0.0572
22915SOL    HW170613   6.691   7.286   0.417  3.2343 -1.0372  0.8540
22915SOL    HW270614   6.737   7.336   0.281  1.4473 -0.7213  0.3483
22916SOL     OW70615   1.092   4.781   8.704 -0.3198  0.2013 -0.2284
22916SOL    HW170616   1.045   4.826   8.774  0.3200 -1.2320  1.1926
22916SOL    HW270617   1.065   4.825   8.624 -1.8978  1.2134  0.8203
22917SOL     OW70618   6.482   0.966   2.416 -0.0688  0.3630 -0.8884
22917SOL    HW170619   6.420   1.008   2.357 -0.9388  0.1534 -0.1403
22917SOL    HW270620   6.441   0.970   2.502  0.1765 -1.2978 -0.6551
22918SOL     OW70621   7.213   3.724   7.468  0.3206 -0.7356  0.0253
22918SOL    HW170622   7.197   3.726   7.562  0.3288  1.2572  0.0273
22918SOL    HW270623   7.302   3.689   7.459 -0.0894 -1.9944  0.6570
22919SOL     OW70624   7.783   3.120   0.614 -0.2319 -0.2452 -0.1191
22919SOL    HW170625   7.865   3.104   0.567 -0.1485 -0.8254  0.2194
22919SOL    HW270626   7.745   3.034   0.628  0.1554 -0.1842  1.6005
22920SOL     OW70627   1.315   3.698   6.516 -0.0207  0.0820 -0.0384
22920SOL    HW170628   1.277   3.741   6.593  0.3567  0.2086  0.0808
22920SOL    HW270629   1.330   3.608   6.544 -0.0012  0.0957 -0.0044
22921SOL     OW70630   5.259   4.431   0.555  0.4939  0.5727 -0.2667
22921SOL    HW170631   5.286   4.490   0.485  0.5688 -0.5797 -1.2491
22921SOL    HW270632   5.322   4.358   0.551 -0.0565  0.0430  0.3940
22922SOL     OW70633   5.965   5.061   3.190 -0.4739 -0.1494 -0.6491
22922SOL    HW170634   6.035   5.118   3.160 -0.8284  1.6956  1.6978
22922SOL    HW270635   5.953   5.084   3.282 -1.0520 -3.6527  0.3236
22923SOL     OW70636   6.112   3.137   3.893  0.3276 -0.5550 -0.1258
22923SOL    HW170637   6.156   3.194   3.957 -1.6996 -1.5337  2.3155
22923SOL    HW270638   6.141   3.049   3.915 -2.5216 -1.2309  1.5219
22924SOL     OW70639   5.008   4.679   4.507  0.1173  0.5803  0.2390
22924SOL    HW170640   5.058   4.732   4.569  2.1808 -1.6249  0.5817
22924SOL    HW270641   5.045   4.703   4.421  2.1404 -1.2376  0.5098
22925SOL     OW70642   2.877   7.248   4.220 -0.0189  0.0930 -0.2791
22925SOL    HW170643   2.829   7.181   4.171  0.3753  0.6198 -1.4482
22925SOL    HW270644   2.969   7.224   4.210  0.1310  0.8372 -0.7861
22926SOL     OW70645   0.047   2.537   4.214 -0.2431  0.4176  0.1422
22926SOL    HW170646   0.055   2.631   4.230 -1.4457  0.4391  0.7157
22926SOL    HW270647   0.134   2.502   4.233 -0.0528  1.2745  0.9235
22927SOL     OW70648   6.284   0.768   3.255  0.4323  0.5331 -0.0400
22927SOL    HW170649   6.215   0.731   3.200  0.8774  1.1573 -1.0388
22927SOL    HW270650   6.279   0.718   3.337 -0.9118  0.2850 -0.2609
22928SOL     OW70651   1.647   8.773   6.677 -0.2959  0.0278 -0.4692
22928SOL    HW170652   1.624   8.836   6.609  0.3160 -0.2110 -0.9016
22928SOL    HW270653   1.570   8.770   6.734 -0.3589  1.1154 -0.4744
22929SOL     OW70654   1.215   7.528   1.434 -0.0779 -0.2102 -0.3602
22929SOL    HW170655   1.171   7.497   1.354 -2.7931  1.7774  0.2075
22929SOL    HW270656   1.219   7.623   1.423  2.0420 -0.1318  0.7170
22930SOL     OW70657   7.126   3.108   0.747 -0.2559  0.5775 -0.3177
22930SOL    HW170658   7.142   3.023   0.788 -0.7231  0.4326 -0.4289
22930SOL    HW270659   7.044   3.138   0.786  0.9869  1.9896  1.3540
22931SOL     OW70660   2.874   3.410   2.977  0.3244 -0.4698  0.0296
22931SOL    HW170661   2.790   3.402   3.023 -0.2029  2.1565 -0.3402
22931SOL    HW270662   2.939   3.383   3.041 -0.5858  0.6480  1.4874
22932SOL     OW70663   1.052   7.277   8.344  0.3233  0.2554 -0.5735
22932SOL    HW170664   1.105   7.331   8.285 -0.4166  2.2470  0.4761
22932SOL    HW270665   1.026   7.337   8.414 -1.5821 -1.1774  0.0276
22933SOL     OW70666   4.079   3.331   5.892 -0.3122 -0.2393 -0.3315
22933SOL    HW170667   4.051   3.416   5.925  0.0660 -0.9405  1.9964
22933SOL    HW270668   4.011   3.305   5.829 -1.1217  1.1660 -0.0516
22934SOL     OW70669   2.500   5.973   5.916 -0.0075  0.2692  0.0328
22934SOL    HW170670   2.528   6.036   5.850 -1.1912 -0.2111 -0.9597
22934SOL    HW270671   2.582   5.937   5.951  0.6434  0.7558 -0.9411
22935SOL     OW70672   4.286   6.688   0.224  0.2217  0.4471  0.4104
22935SOL    HW170673   4.210   6.658   0.274 -1.9147  1.1651 -2.1622
22935SOL    HW270674   4.323   6.759   0.278  0.6327 -1.4720  2.8384
22936SOL     OW70675   5.330   5.186   0.306 -0.0220  0.1715  0.2094
22936SOL    HW170676   5.235   5.177   0.318  0.2174 -1.3366  1.2726
22936SOL    HW270677   5.352   5.270   0.346 -0.6271 -0.4565  1.9512
22937SOL     OW70678   0.661   4.418   4.924 -0.0505 -0.3695  0.1834
22937SOL    HW170679   0.616   4.482   4.979 -0.8410  0.1015 -0.9512
22937SOL    HW270680   0.753   4.443   4.929 -0.3697  1.0872 -0.4733
22938SOL     OW70681   2.906   6.453   3.073  0.6289  0.0251 -0.2972
22938SOL    HW170682   2.911   6.372   3.023 -1.9445 -0.0359 -0.6031
22938SOL    HW270683   2.994   6.491   3.067  1.4077 -1.8459 -1.6329
22939SOL     OW70684   0.742   6.149   5.317  0.4972  0.3482 -0.3819
22939SOL    HW170685   0.654   6.187   5.310  0.5654  0.3789 -1.1468
22939SOL    HW270686   0.790   6.186   5.243  1.7940  1.9834  1.1764
22940SOL     OW70687   2.029   3.523   6.518 -0.0418 -0.0427 -0.0356
22940SOL    HW170688   2.053   3.463   6.447  0.9191  0.7941 -0.4452
22940SOL    HW270689   1.936   3.508   6.533  0.2310 -1.8253  0.0579
22941SOL     OW70690   1.175   5.584   4.640 -0.0554 -0.3131  0.6197
22941SOL    HW170691   1.238   5.566   4.709 -0.7793 -0.1438  1.3425
22941SOL    HW270692   1.184   5.510   4.579  0.1484 -0.7959  1.2267
22942SOL     OW70693   0.792   4.152   7.692 -0.2749 -0.6228 -0.4975
22942SOL    HW170694   0.783   4.105   7.776  0.9697  0.5096  0.3093
22942SOL    HW270695   0.820   4.085   7.630  0.5675 -1.1373  0.4136
22943SOL     OW70696   6.014   2.800   5.706 -0.3042 -0.4536 -0.4785
22943SOL    HW170697   6.094   2.753   5.730 -1.0899 -1.8601 -0.4577
22943SOL    HW270698   6.022   2.813   5.612  0.5370  0.6193 -0.2753
22944SOL     OW70699   4.679   0.205   3.698 -0.4677 -0.1127  0.5574
22944SOL    HW170700   4.685   0.127   3.752  1.5818 -1.4265 -1.3941
22944SOL    HW270701   4.599   0.193   3.646 -0.6224 -0.4795  0.8806
22945SOL     OW70702   5.205   1.585   2.280  0.1001 -0.0365 -0.0065
22945SOL    HW170703   5.194   1.626   2.366  1.6645 -0.7275  0.5747
22945SOL    HW270704   5.157   1.502   2.287  0.0177  0.0218  0.1190
22946SOL     OW70705   7.581   6.623   0.706  0.0399  0.1105  0.4370
22946SOL    HW170706   7.551   6.663   0.788  0.5979 -0.7759  1.0954
22946SOL    HW270707   7.676   6.616   0.717 -0.0505 -1.5562  0.4367
22947SOL     OW70708   7.375   3.338   8.546  0.2570 -0.1589  0.0356
22947SOL    HW170709   7.339   3.254   8.519  0.7898 -0.2850 -0.3106
22947SOL    HW270710   7.329   3.402   8.492  1.6881 -0.4487 -1.6506
22948SOL     OW70711   8.036   4.253   3.109 -0.2492  0.0886 -0.5693
22948SOL    HW170712   8.049   4.331   3.164 -2.8571  0.4780 -0.3653
22948SOL    HW270713   8.124   4.217   3.097  0.8281  2.0642  0.7993
22949SOL     OW70714   0.716   6.545   0.477  0.3620 -0.3100  0.1389
22949SOL    HW170715   0.640   6.487   0.479 -0.4291  0.7004  1.3794
22949SOL    HW270716   0.749   6.545   0.567  0.2819  1.1834  0.1966
22950SOL     OW70717   1.783   0.322   8.182  0.0838 -0.5518  0.0427
22950SOL    HW170718   1.796   0.341   8.275 -0.8013  0.3466 -0.0061
22950SOL    HW270719   1.688   0.325   8.169  0.1967 -0.6442 -0.8904
22951SOL     OW70720   4.484   4.937   0.127  0.1452 -0.1038 -0.6148
22951SOL    HW170721   4.473   4.864   0.188 -2.0765 -0.2532 -1.1179
22951SOL    HW270722   4.517   5.009   0.182  2.0906 -1.3466 -0.0640
22952SOL     OW70723   0.749   6.906   1.925  0.1172 -0.1818 -0.3922
22952SOL    HW170724   0.786   6.994   1.920  0.2753 -0.2858 -1.4360
22952SOL    HW270725   0.736   6.881   1.833 -1.5638 -0.5552 -0.0831
22953SOL     OW70726   3.385   8.676   4.971 -0.5353  0.2651 -0.1946
22953SOL    HW170727   3.409   8.583   4.979  0.4609  0.6287  1.6356
22953SOL    HW270728   3.365   8.688   4.878  0.3003 -1.5479 -0.6504
22954SOL     OW70729   4.600   3.992   6.601  0.0436  0.2447  0.0845
22954SOL    HW170730   4.568   4.067   6.551 -1.2513  0.1905  0.7693
22954SOL    HW270731   4.674   3.960   6.551  0.9014  2.2190 -0.0179
22955SOL     OW70732   8.976   1.844   1.064 -0.0350  0.4650  0.4135
22955SOL    HW170733   9.053   1.891   1.093 -0.2460  0.6867  0.6119
22955SOL    HW270734   8.966   1.868   0.972 -0.5328  1.3475  0.6844
22956SOL     OW70735   7.788   8.521   8.347  0.2936 -0.4632 -0.1649
22956SOL    HW170736   7.815   8.596   8.294  0.2009 -0.2016  0.1518
22956SOL    HW270737   7.733   8.559   8.415  0.7788 -0.7431  0.3862
22957SOL     OW70738   8.499   5.020   7.047  0.2724 -0.3445 -0.2844
22957SOL    HW170739   8.572   5.082   7.047 -0.4895  0.8446  3.3744
22957SOL    HW270740   8.421   5.075   7.041 -0.3945 -1.3645 -1.3359
22958SOL     OW70741   7.600   6.420   1.634  0.0753  0.3793  0.3792
22958SOL    HW170742   7.539   6.494   1.631 -0.5356 -0.1395 -1.3525
22958SOL    HW270743   7.661   6.442   1.705 -1.2622  1.5906  1.2227
22959SOL     OW70744   3.881   3.697   7.362 -0.5480  0.1204  0.2401
22959SOL    HW170745   3.859   3.789   7.354 -1.5377 -0.1346 -0.1303
22959SOL    HW270746   3.948   3.694   7.431 -0.2867  1.1306  0.0474
22960SOL     OW70747   2.775   7.468   2.071 -0.5165 -0.0140  1.1149
22960SOL    HW170748   2.795   7.479   2.164  0.6612 -1.2712  1.0486
22960SOL    HW270749   2.685   7.436   2.069 -0.3425 -0.5711  1.8636
22961SOL     OW70750   2.975   6.968   6.026  0.0030 -0.4842 -0.3926
22961SOL    HW170751   2.962   7.057   5.992 -1.4854 -0.5498 -0.0600
22961SOL    HW270752   3.069   6.963   6.045 -0.1180  1.5566  1.0428
22962SOL     OW70753   6.123   1.421   4.526 -0.1090 -0.0025  0.0120
22962SOL    HW170754   6.202   1.475   4.524 -0.3758  0.4871  1.6224
22962SOL    HW270755   6.129   1.368   4.446  0.5998  1.7542 -1.1711
22963SOL     OW70756   7.162   3.674   3.987  0.4115  0.7052  0.4117
22963SOL    HW170757   7.234   3.645   3.932 -0.3835  0.8282 -0.7288
22963SOL    HW270758   7.116   3.739   3.934 -0.9223  0.1538  0.8513
22964SOL     OW70759   7.909   2.933   2.888 -0.5195 -0.7984 -0.2863
22964SOL    HW170760   7.905   2.913   2.982  0.6959 -0.1964 -0.0819
22964SOL    HW270761   7.829   2.896   2.852 -0.3910 -2.1984  0.7762
22965SOL     OW70762   3.407   2.171   4.388 -0.1648  0.3223  0.3858
22965SOL    HW170763   3.477   2.135   4.443 -0.8928  0.4415  1.4052
22965SOL    HW270764   3.408   2.265   4.405 -1.1249  0.2249  1.0776
22966SOL     OW70765   8.878   8.415   2.961 -0.0228  0.2741 -0.3306
22966SOL    HW170766   8.919   8.377   2.884 -0.4040  0.0833 -0.4404
22966SOL    HW270767   8.839   8.341   3.007 -1.4710  0.6156 -0.9741
22967SOL     OW70768   2.673   2.657   2.182 -0.2016 -0.3341 -0.0001
22967SOL    HW170769   2.711   2.711   2.252  2.2732 -0.0337 -1.4376
22967SOL    HW270770   2.677   2.568   2.216  1.1001 -0.2078  0.2327
22968SOL     OW70771   6.962   7.609   4.957 -0.3908  0.8043 -0.2433
22968SOL    HW170772   6.964   7.657   4.874 -0.5775  1.0612 -0.0998
22968SOL    HW270773   6.969   7.517   4.932  1.2709  0.9534 -0.4597
22969SOL     OW70774   8.004   4.617   7.383 -0.2164  0.0080 -0.2244
22969SOL    HW170775   8.043   4.530   7.391  0.3222  0.2417 -0.3088
22969SOL    HW270776   8.014   4.656   7.469  1.2936  0.7163 -0.7007
22970SOL     OW70777   1.846   6.829   0.091  0.5752 -0.0951 -0.4190
22970SOL    HW170778   1.903   6.755   0.112  1.1954  0.2994 -0.6975
22970SOL    HW270779   1.864   6.848  -0.001 -0.0379  0.0120 -0.5232
22971SOL     OW70780   3.572   3.625   8.365 -0.2522  0.6617  0.4328
22971SOL    HW170781   3.645   3.564   8.376  0.6602  0.9554 -2.8823
22971SOL    HW270782   3.513   3.581   8.304 -0.9896  1.9446  0.1873
22972SOL     OW70783   3.871   3.629   4.771  0.0751 -0.1225  0.3741
22972SOL    HW170784   3.779   3.646   4.751  0.3394 -0.4985 -1.3088
22972SOL    HW270785   3.899   3.705   4.823 -1.0799  0.1829  0.5714
22973SOL     OW70786   7.686   8.214   2.865 -0.6028 -0.1499 -0.1724
22973SOL    HW170787   7.615   8.230   2.804 -0.2266 -2.0174 -1.1703
22973SOL    HW270788   7.643   8.186   2.946 -1.0362 -1.9910 -0.9931
22974SOL     OW70789   8.072   3.218   3.925 -0.2716  0.0341  0.6833
22974SOL    HW170790   7.991   3.180   3.958 -0.9992  0.6024 -0.3955
22974SOL    HW270791   8.045   3.275   3.853  1.2551 -1.5378 -1.2777
22975SOL     OW70792   2.565   3.554   2.240  0.1468 -0.2480  0.5344
22975SOL    HW170793   2.479   3.555   2.282  0.4652  0.1328  1.1813
22975SOL    HW270794   2.551   3.504   2.159 -1.3503  2.0536 -0.7483
22976SOL     OW70795   4.831   6.499   5.414 -0.6243  0.1691 -0.6791
22976SOL    HW170796   4.816   6.561   5.485 -2.1826 -1.2895  0.3421
22976SOL    HW270797   4.799   6.416   5.448 -0.5530 -0.7708 -2.7765
22977SOL     OW70798   2.384   1.500   6.067 -0.3415  0.2183  0.2407
22977SOL    HW170799   2.442   1.566   6.105  0.9529 -1.3446  1.0978
22977SOL    HW270800   2.430   1.417   6.081 -2.2814 -0.9618 -0.0691
22978SOL     OW70801   7.583   3.197   5.975 -0.2047  0.0395 -0.1723
22978SOL    HW170802   7.494   3.228   5.960 -0.1488 -0.0286 -0.6743
22978SOL    HW270803   7.603   3.144   5.898  0.2747  0.0604 -0.0662
22979SOL     OW70804   7.800   3.581   7.601  0.4572  0.0392 -0.0912
22979SOL    HW170805   7.889   3.560   7.630  0.5117 -0.8323 -0.8398
22979SOL    HW270806   7.778   3.512   7.538 -0.3787  0.7950 -0.6557
22980SOL     OW70807   5.940   7.411   8.914  0.0562  0.4107 -0.1316
22980SOL    HW170808   5.917   7.449   8.999 -1.5990 -0.1161 -0.3288
22980SOL    HW270809   5.870   7.439   8.856 -0.2571 -1.4713 -0.7006
22981SOL     OW70810   4.546   2.771   1.097 -0.4375  0.5124  0.2002
22981SOL    HW170811   4.481   2.768   1.167 -0.2668  0.4220  0.3551
22981SOL    HW270812   4.555   2.864   1.076  0.9468  0.7516  1.6412
22982SOL     OW70813   3.719   3.641   5.906  0.0720  0.4839 -0.0933
22982SOL    HW170814   3.742   3.649   5.814  2.6956  0.1451  0.4509
22982SOL    HW270815   3.724   3.731   5.939 -1.5449  0.7075 -0.3716
22983SOL     OW70816   0.042   5.164   4.040  0.3998  0.5043  0.2870
22983SOL    HW170817  -0.020   5.175   3.968 -0.6013 -0.6355  0.9187
22983SOL    HW270818   0.013   5.227   4.106 -0.1302 -0.0375  0.5878
22984SOL     OW70819   3.248   0.068   0.536  0.0108 -0.1335  0.1751
22984SOL    HW170820   3.211   0.109   0.457 -0.8516  0.6762  0.9771
22984SOL    HW270821   3.269   0.142   0.593  5.3766 -0.2063 -1.1549
22985SOL     OW70822   1.553   3.493   2.400  0.2960  0.5050 -0.0835
22985SOL    HW170823   1.497   3.508   2.324 -0.6366  0.2456  0.5281
22985SOL    HW270824   1.601   3.413   2.379  2.3550  2.0326 -1.6773
22986SOL     OW70825   6.240   3.786   3.351  0.4400 -0.1844  0.4774
22986SOL    HW170826   6.315   3.731   3.373  1.0526  0.8038  0.9298
22986SOL    HW270827   6.270   3.838   3.276 -0.2736 -0.7389 -0.2081
22987SOL     OW70828   2.292   5.942   4.810  0.4200  0.3601 -0.9356
22987SOL    HW170829   2.221   5.925   4.748 -1.0657  1.7543  0.2639
22987SOL    HW270830   2.364   5.975   4.756 -0.5576  0.8239 -2.0076
22988SOL     OW70831   5.166   8.523   8.346  0.3446 -0.0700  0.6545
22988SOL    HW170832   5.074   8.499   8.358  0.1533  0.6508  0.6932
22988SOL    HW270833   5.212   8.474   8.414  0.0770 -0.9351  0.2231
22989SOL     OW70834   7.328   4.662   6.293 -0.0235 -0.2639 -0.2201
22989SOL    HW170835   7.242   4.639   6.328  0.0267 -0.1031  0.0049
22989SOL    HW270836   7.320   4.754   6.267  0.0247 -0.3024 -0.3739
22990SOL     OW70837   1.998   5.664   1.354  0.2689 -0.0792 -0.5954
22990SOL    HW170838   1.937   5.645   1.282 -0.3672 -0.3864  0.0135
22990SOL    HW270839   2.021   5.756   1.342 -1.9125  0.6471  0.3215
22991SOL     OW70840   8.172   0.679   5.364  0.5135  0.3028 -0.1071
22991SOL    HW170841   8.175   0.716   5.275 -0.1281 -1.3755 -0.8820
22991SOL    HW270842   8.249   0.623   5.369 -0.3829 -1.0021 -0.3003
22992SOL     OW70843   1.498   3.580   0.197  0.4351  0.0045 -0.0589
22992SOL    HW170844   1.528   3.536   0.118 -0.7056 -1.0555  0.0815
22992SOL    HW270845   1.437   3.647   0.165  2.0747  1.4826 -0.2616
22993SOL     OW70846   0.234   7.242   1.054 -0.1362 -0.4533 -0.0212
22993SOL    HW170847   0.185   7.217   0.976 -1.7702  0.1924  0.7439
22993SOL    HW270848   0.166   7.270   1.116  1.2701  1.8213  0.6136
22994SOL     OW70849   8.089   2.543   3.658  0.0204  0.5957 -0.3147
22994SOL    HW170850   8.048   2.481   3.597 -0.7544  1.8093 -1.0521
22994SOL    HW270851   8.055   2.517   3.743  0.1712 -0.3674 -0.5303
22995SOL     OW70852   3.313   1.784   5.930  0.7546  0.5616 -0.1128
22995SOL    HW170853   3.291   1.766   6.021  0.8495  1.5383  0.1107
22995SOL    HW270854   3.273   1.712   5.881 -0.0126  0.4791  0.6121
22996SOL     OW70855   0.757   4.990   3.766 -0.1856  0.6912  0.0981
22996SOL    HW170856   0.847   4.996   3.732 -0.1598  0.4727  0.1266
22996SOL    HW270857   0.726   5.080   3.766 -0.7251  0.5542 -1.9522
22997SOL     OW70858   3.223   3.967   4.408 -0.5381  0.2114 -0.2786
22997SOL    HW170859   3.235   3.880   4.372 -1.3577  1.7359 -4.8086
22997SOL    HW270860   3.155   3.956   4.474  0.7815 -2.7782  0.7637
22998SOL     OW70861   3.928   7.171   8.341 -0.6908 -0.2003  0.3130
22998SOL    HW170862   3.973   7.256   8.342  0.5680 -0.8080 -1.1791
22998SOL    HW270863   3.964   7.124   8.416  0.7147 -0.4215 -0.4733
22999SOL     OW70864   2.480   3.657   2.844 -0.0261  0.2315 -0.0913
22999SOL    HW170865   2.546   3.726   2.855 -0.0999  0.5082 -1.2789
22999SOL    HW270866   2.397   3.704   2.843 -0.3626 -0.1865  2.2383
23000SOL     OW70867   6.123   6.158   3.217 -0.1479  0.3196  0.0801
23000SOL    HW170868   6.112   6.109   3.298 -0.0171 -0.7174 -0.5057
23000SOL    HW270869   6.143   6.091   3.151 -0.8180  1.0740 -0.9183
23001SOL     OW70870   8.308   8.234   2.684  0.8188  0.1638 -0.1365
23001SOL    HW170871   8.220   8.260   2.655  1.5460  0.1609 -2.5010
23001SOL    HW270872   8.292   8.177   2.759 -1.2720 -0.6238 -1.1032
23002SOL     OW70873   6.090   7.377   2.298 -0.0726  0.0054 -0.4782
23002SOL    HW170874   6.112   7.457   2.346  0.4757 -0.1757 -0.4169
23002SOL    HW270875   6.119   7.306   2.356  0.2423 -0.2223 -0.9110
23003SOL     OW70876   2.000   3.387   2.696  0.0294 -0.1500 -0.1056
23003SOL    HW170877   2.016   3.310   2.750 -0.6609  0.2492  0.6958
23003SOL    HW270878   1.906   3.384   2.677 -0.4146  1.5070  1.5804
23004SOL     OW70879   4.160   1.403   1.785  0.0105  0.1543 -0.3391
23004SOL    HW170880   4.231   1.466   1.801  0.6233 -0.4112 -0.7698
23004SOL    HW270881   4.191   1.350   1.712 -1.8167  1.3052 -2.0591
23005SOL     OW70882   0.750   1.273   4.668 -0.3649  0.0962  0.1730
23005SOL    HW170883   0.770   1.252   4.577  0.2407 -1.0736  0.5434
23005SOL    HW270884   0.740   1.187   4.710 -0.4784  0.6118  1.2362
23006SOL     OW70885   1.697   0.129   6.046 -0.1207 -0.2168 -0.1550
23006SOL    HW170886   1.710   0.103   6.137  2.5594 -0.2758 -0.4532
23006SOL    HW270887   1.668   0.220   6.052 -0.3653 -0.3430  0.7759
23007SOL     OW70888   4.166   8.470   2.549  0.0434  0.3922 -0.5119
23007SOL    HW170889   4.262   8.467   2.552  0.0328  0.6713  0.3052
23007SOL    HW270890   4.139   8.378   2.549  0.2544  0.2394  2.4880
23008SOL     OW70891   4.377   2.921   5.516 -0.0342  0.4136  0.5967
23008SOL    HW170892   4.421   2.993   5.470 -1.3323  0.5019 -0.5903
23008SOL    HW270893   4.342   2.866   5.446  0.6679 -1.2352  1.4990
23009SOL     OW70894   4.455   8.558   4.211 -0.4693  0.0605 -0.0144
23009SOL    HW170895   4.361   8.573   4.214 -0.4269  0.4553 -0.4406
23009SOL    HW270896   4.491   8.639   4.174  0.0602  0.0156  0.3795
23010SOL     OW70897   2.593   3.822   0.281 -0.2286  0.0558  0.3818
23010SOL    HW170898   2.539   3.876   0.339 -1.5374 -1.0772  0.2687
23010SOL    HW270899   2.532   3.786   0.217  1.0243  0.4444 -1.1132
23011SOL     OW70900   6.895   6.490   8.744  0.1203 -0.3457 -0.0730
23011SOL    HW170901   6.817   6.538   8.774 -1.0498 -2.5411  0.6066
23011SOL    HW270902   6.926   6.540   8.668 -2.1219  0.4435 -0.5509
23012SOL     OW70903   5.940   0.486   8.036 -0.5244 -0.2469 -0.6121
23012SOL    HW170904   5.880   0.480   8.110 -0.0616 -2.1854 -0.3390
23012SOL    HW270905   5.909   0.561   7.986 -2.5968 -0.6089  0.0439
23013SOL     OW70906   0.674   7.989   5.159  0.0668 -0.0320  0.0672
23013SOL    HW170907   0.700   8.074   5.124 -0.8893  0.4749  0.5291
23013SOL    HW270908   0.595   8.008   5.210 -0.2151 -1.2178  0.0971
23014SOL     OW70909   7.799   1.034   8.363  0.7563 -0.5270  0.2500
23014SOL    HW170910   7.840   1.114   8.396 -1.2629 -0.0298  1.8044
23014SOL    HW270911   7.779   0.983   8.441 -1.3863 -0.7848 -0.3968
23015SOL     OW70912   7.388   7.830   8.830 -0.0030 -0.0213  0.2810
23015SOL    HW170913   7.446   7.823   8.906  1.8925 -0.8810 -1.1548
23015SOL    HW270914   7.438   7.791   8.758 -1.4230  1.4108 -1.5894
23016SOL     OW70915   3.832   8.996   3.361  0.1541  0.2027 -0.3774
23016SOL    HW170916   3.867   8.949   3.437 -1.0179  1.0040  0.7040
23016SOL    HW270917   3.897   9.063   3.342  0.2137  0.3251  0.2531
23017SOL     OW70918   2.847   3.410   6.590 -0.4711  0.2558  0.1462
23017SOL    HW170919   2.783   3.377   6.653 -0.6874 -0.9885 -0.6941
23017SOL    HW270920   2.810   3.388   6.504  0.3374  0.9382 -0.3929
23018SOL     OW70921   1.766   6.808   8.084  0.1915 -0.0290  0.2883
23018SOL    HW170922   1.685   6.810   8.033  0.4125 -0.0039 -0.0681
23018SOL    HW270923   1.738   6.822   8.174 -0.2225 -0.2519  0.1970
23019SOL     OW70924   5.453   7.310   7.901  0.0630 -0.0645  0.4097
23019SOL    HW170925   5.412   7.307   7.814  0.2743  2.0631  0.1932
23019SOL    HW270926   5.493   7.396   7.906  1.5451 -0.7811  1.9840
23020SOL     OW70927   2.864   5.614   2.264 -0.2388  0.3829 -0.8920
23020SOL    HW170928   2.950   5.609   2.223  0.0332 -0.2108 -0.2565
23020SOL    HW270929   2.873   5.680   2.332  0.1502 -0.7259  0.1684
23021SOL     OW70930   1.204   2.880   4.528  0.6163 -0.1701  0.4580
23021SOL    HW170931   1.222   2.847   4.440  1.2889  0.4012  0.3705
23021SOL    HW270932   1.289   2.909   4.560  0.3649 -0.3108  1.2769
23022SOL     OW70933   5.820   4.256   0.273 -0.5295  0.4245  0.0223
23022SOL    HW170934   5.837   4.227   0.362 -0.2391  0.4987 -0.0063
23022SOL    HW270935   5.835   4.178   0.219 -0.6561  0.3926  0.0341
23023SOL     OW70936   6.920   5.801   1.062 -0.1165 -0.4285  0.3669
23023SOL    HW170937   6.985   5.816   1.130  1.2971 -0.6151 -0.8902
23023SOL    HW270938   6.840   5.843   1.095  0.1018 -1.6790  2.7243
23024SOL     OW70939   7.203   3.315   1.748  0.4106  0.0998  0.7928
23024SOL    HW170940   7.281   3.364   1.772 -0.0273  0.6443  1.1119
23024SOL    HW270941   7.143   3.326   1.822  0.2490 -0.7959  0.8130
23025SOL     OW70942   8.707   2.116   7.414  0.1537 -0.1695  0.4404
23025SOL    HW170943   8.613   2.132   7.406  0.3675  2.1347  1.7176
23025SOL    HW270944   8.746   2.203   7.417  2.2424 -1.0628  0.9374
23026SOL     OW70945   8.543   5.146   0.431  0.3790 -0.4796  0.1175
23026SOL    HW170946   8.526   5.066   0.381  2.5521 -1.3403  0.6167
23026SOL    HW270947   8.500   5.216   0.381  0.3689 -1.6331 -1.5748
23027SOL     OW70948   5.302   8.342   1.135  0.1269  0.9007 -0.1791
23027SOL    HW170949   5.332   8.363   1.224 -0.4157  0.1565  0.1903
23027SOL    HW270950   5.358   8.269   1.108 -1.8509 -1.1059  0.8650
23028SOL     OW70951   8.162   2.830   0.966 -0.0682  0.1441  0.0286
23028SOL    HW170952   8.130   2.914   0.935  0.5419  0.4249  0.1412
23028SOL    HW270953   8.196   2.848   1.054 -1.0352 -0.4752  0.5510
23029SOL     OW70954   2.777   0.799   4.707 -0.0701 -0.3194 -0.5838
23029SOL    HW170955   2.745   0.876   4.660  0.8056 -0.7848 -2.0142
23029SOL    HW270956   2.779   0.825   4.799  1.5985  1.8891 -1.1686
23030SOL     OW70957   0.207   3.943   5.409 -0.4926  0.2524 -0.0509
23030SOL    HW170958   0.189   3.883   5.481 -1.8273  0.4799 -0.1803
23030SOL    HW270959   0.136   4.007   5.412 -0.7618  0.0849 -1.7480
23031SOL     OW70960   3.425   7.056   5.636  0.2593 -0.0987  0.4524
23031SOL    HW170961   3.451   6.982   5.691 -0.7093  0.6297  1.9546
23031SOL    HW270962   3.346   7.091   5.678 -0.4047  0.6336 -1.2929
23032SOL     OW70963   3.393   1.394   1.095  0.3169 -0.3885  0.6283
23032SOL    HW170964   3.318   1.412   1.152  0.0553  0.8480 -0.0614
23032SOL    HW270965   3.413   1.478   1.054  1.3554 -0.9504 -0.0836
23033SOL     OW70966   7.340   7.862   6.653  0.2853 -0.1168  0.1820
23033SOL    HW170967   7.430   7.894   6.642  0.8489 -1.2481  1.2086
23033SOL    HW270968   7.285   7.929   6.613  1.7091 -0.5199 -2.6686
23034SOL     OW70969   8.953   7.203   8.605  0.3114 -0.0392  0.1602
23034SOL    HW170970   8.866   7.201   8.643  0.1304  1.9975 -0.0270
23034SOL    HW270971   8.954   7.132   8.541 -0.9623 -0.4975  0.6288
23035SOL     OW70972   2.830   7.252   2.984 -0.1476 -0.3284  0.1151
23035SOL    HW170973   2.836   7.267   3.079  1.3094 -0.2773  0.0410
23035SOL    HW270974   2.835   7.157   2.975 -1.7572 -0.4467  0.1459
23036SOL     OW70975   2.932   3.138   4.257  0.7229  0.4425  0.0974
23036SOL    HW170976   2.961   3.146   4.348  1.5046 -1.3816  0.0630
23036SOL    HW270977   2.837   3.137   4.262  0.7506 -0.8041  1.0666
23037SOL     OW70978   4.129   4.453   7.448 -0.4676 -0.4913  0.4489
23037SOL    HW170979   4.148   4.492   7.363  1.0404 -2.3213 -0.1262
23037SOL    HW270980   4.161   4.517   7.512  1.6609 -0.5796 -0.4428
23038SOL     OW70981   5.713   4.172   6.063  0.6397  0.1810 -0.1073
23038SOL    HW170982   5.730   4.166   5.969  0.4628 -0.9994 -0.0877
23038SOL    HW270983   5.618   4.160   6.071  0.8109 -1.0297  0.2989
23039SOL     OW70984   1.762   0.934   5.612  0.3727  0.2740 -0.5842
23039SOL    HW170985   1.843   0.913   5.658 -1.4160 -2.2334  1.7037
23039SOL    HW270986   1.722   1.004   5.665  0.4012  0.5715 -0.9502
23040SOL     OW70987   5.095   2.390   8.587  0.4940 -0.2249  0.2899
23040SOL    HW170988   5.037   2.378   8.662 -0.5433  0.0294 -0.4390
23040SOL    HW270989   5.172   2.435   8.622  0.3221 -0.7046  1.3096
23041SOL     OW70990   4.101   2.977   6.856  0.3330  0.3461 -0.1171
23041SOL    HW170991   4.156   3.052   6.834  1.1832 -0.1785  0.1844
23041SOL    HW270992   4.136   2.905   6.802  1.6236 -0.6438  1.9210
23042SOL     OW70993   5.910   4.529   7.934 -0.2013 -0.4817 -0.0743
23042SOL    HW170994   5.967   4.567   7.867 -0.4316  0.2547  0.1431
23042SOL    HW270995   5.897   4.438   7.905  0.2729 -0.3751 -0.6455
23043SOL     OW70996   5.518   3.456   8.383 -0.0910  0.3158 -0.0905
23043SOL    HW170997   5.430   3.482   8.412  0.4498  0.3320  1.7126
23043SOL    HW270998   5.506   3.369   8.346 -0.6719 -0.4093  1.6621
23044SOL     OW70999   7.415   6.076   8.723  0.1683  0.1522 -0.1079
23044SOL    HW171000   7.475   6.055   8.652  2.4062  2.9488  0.7599
23044SOL    HW271001   7.357   6.142   8.687 -0.1725 -0.0782  0.0167
23045SOL     OW71002   8.316   2.275   7.686 -0.9365 -0.4731  0.8753
23045SOL    HW171003   8.335   2.189   7.650 -2.0819  0.0833 -1.2393
23045SOL    HW271004   8.397   2.325   7.673 -1.3040 -0.3054 -0.9751
23046SOL     OW71005   2.251   2.883   0.705  0.4576 -0.7954  0.2191
23046SOL    HW171006   2.243   2.790   0.725  1.1140 -0.7052  0.9546
23046SOL    HW271007   2.161   2.915   0.700  0.2274 -1.5153 -0.2618
23047SOL     OW71008   0.203   5.270   2.649 -0.6038  0.5471  0.4096
23047SOL    HW171009   0.144   5.241   2.580  0.5602 -0.2981 -0.2768
23047SOL    HW271010   0.242   5.351   2.614 -0.2973  0.3223  0.2171
23048SOL     OW71011   6.925   8.090   7.547 -0.4697 -0.2801  0.5567
23048SOL    HW171012   6.902   8.003   7.578 -1.1897 -0.5667 -0.6797
23048SOL    HW271013   6.874   8.150   7.601  0.9579 -0.5102  2.2459
23049SOL     OW71014   0.077   4.618   5.589 -0.1047  0.1067 -0.5754
23049SOL    HW171015   0.125   4.687   5.635  0.0991 -0.3802 -0.0377
23049SOL    HW271016   0.003   4.663   5.548 -0.1022  0.6097 -0.0404
23050SOL     OW71017   1.257   1.336   3.670 -0.1048 -0.6669  0.1950
23050SOL    HW171018   1.297   1.364   3.753  0.8519  2.7867 -1.2792
23050SOL    HW271019   1.163   1.329   3.690  0.3188 -2.0180  2.0051
23051SOL     OW71020   0.774   1.460   5.476  0.4755 -0.0698 -0.3648
23051SOL    HW171021   0.763   1.369   5.447  1.3478 -0.1489 -0.4753
23051SOL    HW271022   0.749   1.458   5.568  2.6777 -0.9482  0.2851
23052SOL     OW71023   6.757   7.791   0.134 -0.5570  0.3529  0.0400
23052SOL    HW171024   6.799   7.798   0.048 -0.5671  0.7802  0.0676
23052SOL    HW271025   6.824   7.751   0.190 -1.1966 -1.7864 -0.6078
23053SOL     OW71026   5.502   4.654   4.921  0.2887  0.3483  0.2818
23053SOL    HW171027   5.503   4.720   4.851 -0.1602  0.7888  0.6845
23053SOL    HW271028   5.544   4.698   4.996  0.0619  0.1495  0.5265
23054SOL     OW71029   3.856   2.826   0.099  0.2902 -0.4071  0.4627
23054SOL    HW171030   3.781   2.768   0.085 -0.1986 -0.3416  2.4776
23054SOL    HW271031   3.868   2.826   0.194  2.0496  0.5998  0.2709
23055SOL     OW71032   5.461   5.899   4.666 -0.3281  0.1887  0.6805
23055SOL    HW171033   5.470   5.986   4.627  0.7466 -0.4355 -0.5582
23055SOL    HW271034   5.514   5.902   4.746  0.2453  0.4868  0.2941
23056SOL     OW71035   7.894   0.041   1.298 -0.5753 -0.1111  0.0683
23056SOL    HW171036   7.864   0.093   1.373 -2.5815  1.8630 -1.9208
23056SOL    HW271037   7.989   0.056   1.295 -0.9533  3.0325  0.0228
23057SOL     OW71038   4.752   1.413   7.539 -0.4356 -0.3224  0.1011
23057SOL    HW171039   4.787   1.440   7.454  1.7915 -1.3224  0.6191
23057SOL    HW271040   4.663   1.384   7.520 -0.0629 -0.3342 -1.8616
23058SOL     OW71041   0.292   3.288   2.645  0.3635 -0.1547 -0.3643
23058SOL    HW171042   0.201   3.314   2.659  0.8450  1.1600  0.4846
23058SOL    HW271043   0.304   3.291   2.550  0.3533  2.7791 -0.3518
23059SOL     OW71044   6.940   4.277   1.012 -0.1094 -0.2189  0.2830
23059SOL    HW171045   7.027   4.254   0.981 -0.4662  1.1423 -2.0077
23059SOL    HW271046   6.889   4.196   1.004  0.5547 -0.6135  0.0136
23060SOL     OW71047   4.614   5.360   6.904  0.1149 -0.0902  0.0986
23060SOL    HW171048   4.542   5.301   6.925  0.5345 -1.1711 -1.3811
23060SOL    HW271049   4.673   5.353   6.979 -0.2282 -0.9297  0.3017
23061SOL     OW71050   4.108   8.857   5.462  0.1902  0.3405  0.5408
23061SOL    HW171051   4.070   8.771   5.448  0.3619  0.2574  0.5916
23061SOL    HW271052   4.108   8.898   5.375 -2.3855  1.3267  0.8976
23062SOL     OW71053   7.168   6.474   1.223  0.6715 -0.0898  0.0971
23062SOL    HW171054   7.089   6.475   1.277  1.2151 -2.2111  1.0273
23062SOL    HW271055   7.240   6.481   1.285  1.2768  0.3509 -0.6252
23063SOL     OW71056   4.740   6.926   7.096  0.1545  0.0299  0.3041
23063SOL    HW171057   4.703   6.840   7.079 -0.4479  0.7215 -2.3107
23063SOL    HW271058   4.705   6.982   7.026  0.0380  2.5703  2.2344
23064SOL     OW71059   2.013   7.780   7.255  0.1982 -0.0004 -0.7562
23064SOL    HW171060   1.999   7.859   7.307  0.5825  1.0830 -2.2451
23064SOL    HW271061   2.000   7.808   7.164  0.8835 -1.5145 -1.3555
23065SOL     OW71062   1.727   3.551   0.835 -0.7447 -0.1711 -0.5293
23065SOL    HW171063   1.794   3.610   0.870 -1.3073  0.8729 -1.1705
23065SOL    HW271064   1.771   3.466   0.830 -0.1530 -0.0032  1.1470
23066SOL     OW71065   0.594   1.063   0.159 -0.0007 -0.1093  0.1035
23066SOL    HW171066   0.565   1.051   0.250  0.2062 -0.7862  0.0887
23066SOL    HW271067   0.621   0.975   0.131  1.5207  0.3867 -0.0653
23067SOL     OW71068   2.296   7.804   5.041  0.3485 -0.4461 -0.3579
23067SOL    HW171069   2.239   7.838   5.110  0.1190 -0.1631 -0.6838
23067SOL    HW271070   2.359   7.749   5.087 -0.0966 -0.6429  0.0228
23068SOL     OW71071   6.973   6.686   8.549  0.4603 -0.1506 -0.4390
23068SOL    HW171072   6.979   6.772   8.592  1.3009 -0.5706  0.3250
23068SOL    HW271073   6.923   6.702   8.470 -0.0947  0.8916  0.1018
23069SOL     OW71074   0.301   2.160   7.967  0.2496  0.6803 -0.3273
23069SOL    HW171075   0.259   2.159   8.052  0.3849  1.1568 -0.2537
23069SOL    HW271076   0.388   2.198   7.983  0.1111  1.1912 -0.7494
23070SOL     OW71077   3.656   8.295   1.860 -0.6031 -0.6511  0.0877
23070SOL    HW171078   3.677   8.307   1.767 -2.7025 -0.3950 -0.4098
23070SOL    HW271079   3.704   8.217   1.886  1.0676  0.0154 -0.8444
23071SOL     OW71080   7.470   3.755   0.822  0.3996 -0.7590  0.5180
23071SOL    HW171081   7.514   3.731   0.904  1.1292  0.1674  0.4270
23071SOL    HW271082   7.516   3.705   0.755  1.4647  0.3150  0.4068
23072SOL     OW71083   2.680   5.688   5.755 -0.2482  0.2007  0.2169
23072SOL    HW171084   2.711   5.706   5.844 -1.3683  1.0664  0.4484
23072SOL    HW271085   2.745   5.628   5.719  1.2356  1.2761  0.9821
23073SOL     OW71086   7.459   5.778   6.914 -0.4737 -0.0691 -0.0789
23073SOL    HW171087   7.472   5.854   6.971  2.1607 -1.6947  1.6871
23073SOL    HW271088   7.374   5.743   6.941 -0.9893  1.3056  0.1945
23074SOL     OW71089   6.664   7.576   7.072  0.2914  0.3538 -0.0076
23074SOL    HW171090   6.638   7.606   6.985 -1.8819 -0.1820  0.3825
23074SOL    HW271091   6.601   7.616   7.131 -0.7027 -2.2864  0.8653
23075SOL     OW71092   3.215   4.511   2.944  0.2401 -0.5641  0.0634
23075SOL    HW171093   3.251   4.441   2.999 -0.5081 -0.7141  0.3806
23075SOL    HW271094   3.267   4.588   2.966  1.1569 -1.0412 -0.3801
23076SOL     OW71095   7.989   4.822   1.032  0.5035  0.7500  0.2422
23076SOL    HW171096   7.948   4.888   1.087 -0.4148  0.4279 -0.0302
23076SOL    HW271097   7.928   4.748   1.034  1.1676  0.1831 -0.0265
23077SOL     OW71098   6.688   7.886   6.447 -0.0681 -0.2131 -0.3097
23077SOL    HW171099   6.623   7.816   6.445 -0.8889  0.5273 -0.2853
23077SOL    HW271100   6.761   7.853   6.395 -0.2960 -1.2242  0.0070
23078SOL     OW71101   7.003   7.943   3.898 -0.1062 -0.1056  0.5137
23078SOL    HW171102   7.041   7.910   3.816  1.0853 -0.0591  1.0262
23078SOL    HW271103   6.915   7.972   3.874  0.2781  0.0320 -0.7782
23079SOL     OW71104   6.709   3.920   3.657  0.6553 -0.5044  0.1594
23079SOL    HW171105   6.776   3.975   3.617  1.7574 -0.4593  1.9389
23079SOL    HW271106   6.680   3.862   3.587  0.4539  1.3833 -1.4016
23080SOL     OW71107   4.513   4.734   6.655 -0.2539  0.0820 -0.0719
23080SOL    HW171108   4.478   4.746   6.743  0.0420 -1.3020  0.2485
23080SOL    HW271109   4.571   4.658   6.662  1.0433  0.9303 -1.0976
23081SOL     OW71110   7.751   5.021   8.608 -0.2194  0.3522 -0.0377
23081SOL    HW171111   7.718   5.029   8.519  0.8718  0.2295 -0.4698
23081SOL    HW271112   7.687   5.067   8.662 -1.1033  0.0692 -0.8299
23082SOL     OW71113   3.336   2.374   5.728  0.1843 -0.0459  0.9599
23082SOL    HW171114   3.268   2.307   5.722  0.8012 -1.0253  3.6644
23082SOL    HW271115   3.334   2.403   5.819  2.8905  0.3976  0.9657
23083SOL     OW71116   6.032   8.375   4.854 -0.2806 -0.0916  0.6563
23083SOL    HW171117   6.098   8.433   4.817  0.9363 -2.2984 -0.9072
23083SOL    HW271118   6.075   8.331   4.927 -0.2424 -0.9193  0.1607
23084SOL     OW71119   3.684   6.215   0.541 -0.3932  0.0807 -0.4364
23084SOL    HW171120   3.644   6.136   0.578 -0.6296 -0.4529 -1.7887
23084SOL    HW271121   3.738   6.250   0.612 -0.4358 -1.1808  0.2425
23085SOL     OW71122   8.112   0.193   8.810 -0.4721  0.2701 -0.8400
23085SOL    HW171123   8.095   0.285   8.830 -1.0530  0.1738 -0.8679
23085SOL    HW271124   8.025   0.152   8.810 -0.2760 -0.1590 -1.4002
23086SOL     OW71125   3.252   7.198   4.634 -0.0945  0.1361  0.1410
23086SOL    HW171126   3.245   7.198   4.730 -1.4081  1.2482  0.0771
23086SOL    HW271127   3.332   7.247   4.616  0.1564 -0.0687  0.6742
23087SOL     OW71128   2.579   3.521   0.081 -0.0573 -0.1709 -0.3090
23087SOL    HW171129   2.623   3.586   0.027  1.5424 -1.4998 -0.6683
23087SOL    HW271130   2.620   3.529   0.167  2.4287 -2.6721 -1.1048
23088SOL     OW71131   7.889   3.770   7.884 -0.2255  0.1619 -0.1510
23088SOL    HW171132   7.977   3.741   7.861 -0.0136  0.2693  0.4968
23088SOL    HW271133   7.877   3.742   7.975 -1.4201 -1.1228 -0.6711
23089SOL     OW71134   8.651   3.146   8.710 -0.4124 -0.1763 -0.2986
23089SOL    HW171135   8.572   3.189   8.676 -1.0171 -1.4928 -0.6317
23089SOL    HW271136   8.686   3.098   8.635  0.3762 -0.0817  0.0036
23090SOL     OW71137   8.375   0.978   7.933  0.2552  0.3041  0.2370
23090SOL    HW171138   8.414   0.997   8.019  0.9040 -0.4185  0.1126
23090SOL    HW271139   8.293   0.933   7.954  1.6285 -2.2720  0.5262
23091SOL     OW71140   1.467   8.770   8.817 -0.0645  0.1141 -1.0855
23091SOL    HW171141   1.540   8.831   8.810  0.3297 -0.1080  0.5816
23091SOL    HW271142   1.391   8.825   8.836  0.1674  0.1529 -0.2394
23092SOL     OW71143   1.038   1.214   7.648 -0.0203  0.0166 -0.5761
23092SOL    HW171144   1.077   1.140   7.693  0.1697 -0.4868 -1.5547
23092SOL    HW271145   1.021   1.183   7.560  0.8795  1.4088 -1.2735
23093SOL     OW71146   7.100   7.678   0.568 -0.2123  0.1988 -0.9251
23093SOL    HW171147   7.132   7.767   0.585  0.1828 -0.2115  0.6988
23093SOL    HW271148   7.026   7.668   0.629  0.5302 -0.9952 -0.1863
23094SOL     OW71149   8.352   1.993   5.260 -0.5453  0.7713  0.3305
23094SOL    HW171150   8.439   1.996   5.300 -0.6264 -1.1606  0.7398
23094SOL    HW271151   8.354   2.062   5.194  1.2037  0.9598  0.5265
23095SOL     OW71152   7.737   2.604   5.654 -0.5730  0.1643 -0.6869
23095SOL    HW171153   7.778   2.621   5.569 -1.2794 -0.4912 -1.1721
23095SOL    HW271154   7.774   2.671   5.712  1.6709 -0.7871 -0.9307
23096SOL     OW71155   8.807   8.760   6.314  0.3927  0.3671  0.2016
23096SOL    HW171156   8.760   8.687   6.274 -1.2395  1.5063 -0.0406
23096SOL    HW271157   8.797   8.746   6.408  1.0313 -0.2833  0.1874
23097SOL     OW71158   4.553   1.849   8.476 -0.0839 -0.5816 -0.4746
23097SOL    HW171159   4.575   1.786   8.408 -0.3580  0.4610 -1.5660
23097SOL    HW271160   4.550   1.933   8.431  1.5985  0.4421  1.1781
23098SOL     OW71161   5.176   4.654   0.017  0.2459  0.3839 -0.0362
23098SOL    HW171162   5.271   4.645   0.007  0.3866 -2.0256  2.4327
23098SOL    HW271163   5.163   4.747   0.037  2.0215  0.8105 -0.6730
23099SOL     OW71164   5.373   2.879   8.625  0.3500  0.5980 -0.0427
23099SOL    HW171165   5.351   2.964   8.664 -3.9664  0.0266 -0.6865
23099SOL    HW271166   5.339   2.815   8.688  1.1102 -0.5637 -0.7957
23100SOL     OW71167   6.396   8.702   5.178 -0.0987 -0.0019 -0.3395
23100SOL    HW171168   6.402   8.731   5.087 -0.3337 -0.0361 -0.3657
23100SOL    HW271169   6.417   8.608   5.175  0.3472  0.0952 -0.2972
23101SOL     OW71170   1.741   4.321   8.934 -0.5503  0.2947 -0.1320
23101SOL    HW171171   1.662   4.287   8.893  1.3266 -3.0303 -1.4375
23101SOL    HW271172   1.726   4.311   9.028 -2.1743  1.1003 -0.2734
23102SOL     OW71173   0.345   0.210   3.237 -0.2663  0.0592 -0.1782
23102SOL    HW171174   0.391   0.148   3.295  1.1648  2.1461  1.0391
23102SOL    HW271175   0.262   0.166   3.217  1.0066 -2.6081 -0.0928
23103SOL     OW71176   8.852   4.790   4.847  0.1688  0.2583 -0.2513
23103SOL    HW171177   8.911   4.852   4.803  0.4803 -0.3945 -0.7628
23103SOL    HW271178   8.812   4.741   4.776  0.1493 -0.3333  0.1646
23104SOL     OW71179   0.536   3.329   4.178 -0.0902 -0.1327 -0.0431
23104SOL    HW171180   0.554   3.423   4.190  1.6189 -0.1518 -2.0727
23104SOL    HW271181   0.621   3.287   4.186 -0.7081 -1.4316 -0.0583
23105SOL     OW71182   3.131   1.360   4.020  0.1469  0.1542  0.2757
23105SOL    HW171183   3.133   1.337   4.113 -3.1810 -0.1405  0.3924
23105SOL    HW271184   3.067   1.299   3.982  1.2006  0.4639 -2.1894
23106SOL     OW71185   6.358   8.155   3.180 -0.6578  0.0908  0.2945
23106SOL    HW171186   6.331   8.139   3.271 -0.3091 -0.3474  0.3236
23106SOL    HW271187   6.452   8.167   3.185 -0.6880  0.4405  0.0385
23107SOL     OW71188   1.046   0.331   2.544 -0.4089 -0.1785 -0.5558
23107SOL    HW171189   1.007   0.405   2.591 -1.3132 -0.6702 -0.4964
23107SOL    HW271190   1.019   0.344   2.453  0.9169  0.4993 -0.8808
23108SOL     OW71191   4.599   6.144   2.070  0.3851  0.4696  0.3122
23108SOL    HW171192   4.631   6.217   2.122  0.6393 -1.5918  3.2847
23108SOL    HW271193   4.514   6.122   2.108  0.1898 -0.6040 -0.6837
23109SOL     OW71194   4.912   4.978   5.801 -0.3887 -0.4969  0.6490
23109SOL    HW171195   4.960   4.899   5.778  1.8170  0.5487  1.3450
23109SOL    HW271196   4.896   5.021   5.717  0.2996 -0.6768  0.4119
23110SOL     OW71197   6.927   4.015   6.541 -0.2053 -0.3769 -0.2228
23110SOL    HW171198   6.836   4.037   6.559 -0.5568 -2.3970  0.7571
23110SOL    HW271199   6.974   4.037   6.621  0.2207  0.6992 -0.7405
23111SOL     OW71200   3.618   7.827   8.516  0.1751  0.1696 -0.6107
23111SOL    HW171201   3.609   7.910   8.563 -0.5924 -0.1281 -0.2104
23111SOL    HW271202   3.712   7.811   8.513  0.2475  0.1579  0.9032
23112SOL     OW71203   2.053   3.225   7.248 -0.6125  0.3495  0.2276
23112SOL    HW171204   2.138   3.180   7.255 -1.6148 -1.6511  0.1559
23112SOL    HW271205   2.076   3.317   7.238  1.5308  0.0274  1.5443
23113SOL     OW71206   5.860   2.953   4.211  0.0910  0.4946 -0.3256
23113SOL    HW171207   5.859   3.043   4.242  2.3146  0.4966 -0.1019
23113SOL    HW271208   5.875   2.960   4.116 -0.4857  0.3636 -0.4304
23114SOL     OW71209   0.541   5.041   4.824 -0.0623 -0.3398 -0.2655
23114SOL    HW171210   0.624   5.005   4.853  0.6531  0.5376 -1.1725
23114SOL    HW271211   0.486   4.965   4.808 -0.4427 -0.9145  3.0550
23115SOL     OW71212   1.073   5.093   5.483  0.0223  0.2702  0.5229
23115SOL    HW171213   1.026   5.081   5.401 -0.0701 -1.0302  0.7484
23115SOL    HW271214   1.072   5.188   5.498 -0.7155  0.4372 -0.5228
23116SOL     OW71215   0.119   0.176   2.370 -0.5559  0.8574  0.8850
23116SOL    HW171216   0.034   0.134   2.360 -0.3776  0.5191  0.7812
23116SOL    HW271217   0.119   0.245   2.304 -1.0938  1.4247  1.4671
23117SOL     OW71218   8.086   6.189   3.169 -0.5232 -0.2668 -0.1348
23117SOL    HW171219   8.118   6.122   3.230 -0.7001 -0.6757 -0.4896
23117SOL    HW271220   8.080   6.145   3.085 -2.0862 -0.2303 -0.0744
23118SOL     OW71221   8.340   1.214   3.067  0.4292 -0.5370  0.8303
23118SOL    HW171222   8.317   1.185   3.155  0.2003  1.2905  1.4192
23118SOL    HW271223   8.409   1.279   3.081  0.0765  0.1062 -0.2973
23119SOL     OW71224   6.182   7.691   3.158  0.3762 -0.4162  0.1631
23119SOL    HW171225   6.267   7.687   3.115  0.9322 -2.6562  1.3069
23119SOL    HW271226   6.201   7.672   3.250 -1.2104  0.4789  0.7203
23120SOL     OW71227   8.008   5.787   8.675  0.1287 -0.4208 -0.1463
23120SOL    HW171228   8.055   5.780   8.592  0.7692 -1.5762  0.2941
23120SOL    HW271229   7.927   5.738   8.661 -0.8143  1.2349 -0.7752
23121SOL     OW71230   2.812   0.376   1.700  0.1688  0.5587  0.4872
23121SOL    HW171231   2.786   0.438   1.768 -0.3988  1.0287 -0.1371
23121SOL    HW271232   2.772   0.411   1.620 -0.5793 -0.8723  0.2066
23122SOL     OW71233   4.578   8.403   5.505  0.1955 -0.0559 -0.2606
23122SOL    HW171234   4.641   8.348   5.459 -0.0970  1.1286 -2.1958
23122SOL    HW271235   4.496   8.391   5.457 -0.9449 -0.9802  1.7422
23123SOL     OW71236   7.624   7.117   6.213 -0.2959  0.1374 -0.3023
23123SOL    HW171237   7.656   7.192   6.263 -1.4761  0.9463 -0.7230
23123SOL    HW271238   7.652   7.134   6.124 -1.2471  0.5109 -0.5484
23124SOL     OW71239   6.147   8.168   4.566 -0.1849 -0.4337  0.4457
23124SOL    HW171240   6.139   8.074   4.556  1.0334 -0.6583  1.2885
23124SOL    HW271241   6.214   8.179   4.634  1.4916  1.0414 -1.3296
23125SOL     OW71242   2.450   0.831   7.071 -0.1734 -0.8644 -0.1042
23125SOL    HW171243   2.531   0.835   7.021 -0.7629  0.0292 -1.0141
23125SOL    HW271244   2.473   0.866   7.157  0.1518  0.5290 -0.7281
23126SOL     OW71245   6.143   8.296   3.084 -0.2126  0.2013 -0.5159
23126SOL    HW171246   6.165   8.388   3.073  0.6507  0.2200  1.1093
23126SOL    HW271247   6.226   8.254   3.110 -1.1427 -0.5250  1.4408
23127SOL     OW71248   4.635   4.556   8.809 -0.2404  0.0329  0.2074
23127SOL    HW171249   4.632   4.590   8.898  0.0160  0.3852  0.0800
23127SOL    HW271250   4.714   4.593   8.771 -1.1566  1.1557 -0.6744
23128SOL     OW71251   6.653   6.353   8.351  1.0823 -0.1805 -0.2489
23128SOL    HW171252   6.740   6.342   8.314  0.3070 -0.5558 -2.0520
23128SOL    HW271253   6.596   6.366   8.276 -0.4463 -0.0171  0.8842
23129SOL     OW71254   1.002   2.069   4.496 -0.4616  0.0836  0.6424
23129SOL    HW171255   0.969   1.995   4.547 -2.2173  0.8496  0.6757
23129SOL    HW271256   0.994   2.144   4.554  0.4350  0.4760  0.2865
23130SOL     OW71257   2.214   2.544   5.206 -0.3496 -0.2703  0.5364
23130SOL    HW171258   2.214   2.629   5.162  0.4855 -0.1276  0.7999
23130SOL    HW271259   2.219   2.480   5.135 -0.6612 -0.0939  0.3528
23131SOL     OW71260   4.522   3.929   0.792 -0.3004 -0.3601  0.0531
23131SOL    HW171261   4.451   3.913   0.854  1.7189 -1.2582  2.2878
23131SOL    HW271262   4.486   3.902   0.707 -2.9450  0.2448  0.8784
23132SOL     OW71263   5.538   7.850   0.805  0.3044 -0.0987 -0.0169
23132SOL    HW171264   5.557   7.875   0.896 -0.2547  0.8126 -0.1419
23132SOL    HW271265   5.443   7.858   0.797  0.4426  0.7882 -0.9562
23133SOL     OW71266   6.485   2.752   4.747  0.4789 -0.4615  0.2024
23133SOL    HW171267   6.432   2.675   4.763  0.8341 -0.8770 -0.5581
23133SOL    HW271268   6.574   2.726   4.770  0.5907 -0.2616  0.0046
23134SOL     OW71269   0.343   8.806   6.706  0.6737  0.4676 -0.1592
23134SOL    HW171270   0.339   8.729   6.650 -1.0429  0.7602 -0.4903
23134SOL    HW271271   0.333   8.880   6.646  1.7842  0.9439  0.2122
23135SOL     OW71272   7.277   7.855   5.789  0.0869 -0.2059  0.0880
23135SOL    HW171273   7.185   7.852   5.816 -0.2011  1.8458 -0.5626
23135SOL    HW271274   7.285   7.935   5.738  1.8369 -1.3040 -1.4664
23136SOL     OW71275   2.122   6.464   6.324 -0.9344 -0.0724  0.1348
23136SOL    HW171276   2.038   6.506   6.344 -0.7715  0.0695  0.5311
23136SOL    HW271277   2.167   6.460   6.408 -0.8681 -0.8725  0.0658
23137SOL     OW71278   3.728   5.939   5.906 -0.4246 -0.1877 -0.2107
23137SOL    HW171279   3.711   5.972   5.818 -0.2558 -0.8917 -0.5171
23137SOL    HW271280   3.785   6.004   5.946 -0.6928  0.2548 -0.5413
23138SOL     OW71281   0.351   5.879   2.856  0.5974  0.4711  0.0291
23138SOL    HW171282   0.425   5.898   2.913  0.7314 -1.3802  0.5159
23138SOL    HW271283   0.390   5.841   2.777  0.2351  0.7315 -0.2822
23139SOL     OW71284   1.946   5.613   6.548 -0.0514 -0.1130 -0.0865
23139SOL    HW171285   1.933   5.702   6.581 -2.0825 -0.5658  0.4560
23139SOL    HW271286   1.893   5.559   6.605  0.8442 -1.6484 -0.6615
23140SOL     OW71287   7.078   1.091   1.832  0.0201 -0.4177 -0.3018
23140SOL    HW171288   7.004   1.035   1.854  0.2596 -0.2357  1.0463
23140SOL    HW271289   7.084   1.086   1.736  0.0865 -2.7511 -0.2285
23141SOL     OW71290   4.454   1.558   3.920  0.1169 -0.6109  0.3568
23141SOL    HW171291   4.544   1.568   3.953  0.5172 -2.3560 -0.1213
23141SOL    HW271292   4.440   1.463   3.916 -1.6382 -0.3688  0.0961
23142SOL     OW71293   7.422   4.011   4.354 -0.2778  0.0087 -0.1132
23142SOL    HW171294   7.498   4.064   4.330  1.3542 -1.3255  1.7069
23142SOL    HW271295   7.388   3.978   4.271  0.9560  0.8905 -1.0057
23143SOL     OW71296   8.717   3.593   4.175  0.2588  0.1721 -0.3832
23143SOL    HW171297   8.665   3.538   4.115  1.0969 -2.2333  0.9676
23143SOL    HW271298   8.805   3.593   4.137  0.3445  0.2735 -0.1817
23144SOL     OW71299   6.335   7.195   6.806 -0.2524 -0.2317 -0.0658
23144SOL    HW171300   6.337   7.136   6.731 -0.4636 -4.5527  2.9661
23144SOL    HW271301   6.424   7.231   6.810 -0.3015  0.3440 -2.3869
23145SOL     OW71302   1.922   4.112   3.937 -0.1820 -0.6021  0.2109
23145SOL    HW171303   2.003   4.063   3.921  0.3161  0.7285 -1.7199
23145SOL    HW271304   1.857   4.044   3.958  0.2441 -2.3258 -3.2754
23146SOL     OW71305   7.509   8.405   0.213 -0.2485 -0.1298 -0.2611
23146SOL    HW171306   7.557   8.430   0.134  4.0786  0.6233  2.3197
23146SOL    HW271307   7.507   8.310   0.211 -0.9349 -0.1067 -1.6086
23147SOL     OW71308   4.649   0.875   8.652 -0.1053 -0.1777 -0.3731
23147SOL    HW171309   4.569   0.927   8.658  0.0775  0.0072  0.5902
23147SOL    HW271310   4.642   0.811   8.723  0.5868 -0.1748 -0.2933
23148SOL     OW71311   7.801   6.462   2.006 -0.3074 -0.1510 -0.1139
23148SOL    HW171312   7.839   6.420   2.083  0.2878  1.4484  0.4907
23148SOL    HW271313   7.820   6.401   1.934  0.6011 -0.8770  0.7164
23149SOL     OW71314   3.347   7.259   5.374 -0.3374  0.0607 -0.3457
23149SOL    HW171315   3.293   7.331   5.344  1.3673  0.9264 -1.4945
23149SOL    HW271316   3.373   7.283   5.463 -2.4404 -0.7709  0.5555
23150SOL     OW71317   8.584   1.490   3.129  0.1018  0.3715  0.0863
23150SOL    HW171318   8.624   1.567   3.088  0.0920  0.3516  0.0392
23150SOL    HW271319   8.640   1.417   3.101 -0.1889  0.2903 -0.2962
23151SOL     OW71320   5.991   1.002   1.989 -0.1297  0.0196  0.0198
23151SOL    HW171321   5.921   1.037   2.045 -0.6275  1.4914 -1.4318
23151SOL    HW271322   6.032   1.080   1.951  0.8353 -0.9028 -0.8908
23152SOL     OW71323   7.582   2.078   7.080 -0.0001 -0.0437 -0.0822
23152SOL    HW171324   7.498   2.073   7.036  0.4666  0.5634 -1.0710
23152SOL    HW271325   7.563   2.052   7.171 -1.4491  1.1299 -0.0081
23153SOL     OW71326   7.999   4.760   3.585  0.7686  0.3968 -0.1420
23153SOL    HW171327   8.030   4.801   3.504  0.9211 -0.3307 -0.4551
23153SOL    HW271328   8.055   4.684   3.597 -0.6024 -0.6885 -0.4686
23154SOL     OW71329   7.437   5.174   6.380 -0.2604  0.1301  0.3452
23154SOL    HW171330   7.429   5.235   6.453 -2.5700  0.4508 -0.0852
23154SOL    HW271331   7.436   5.087   6.421 -1.8608  0.2954  0.7428
23155SOL     OW71332   4.808   0.141   6.644 -0.2782 -0.1903  0.1788
23155SOL    HW171333   4.836   0.217   6.592 -1.3330  1.4550  1.8727
23155SOL    HW271334   4.829   0.066   6.589  3.1007  1.1238 -0.5925
23156SOL     OW71335   3.615   3.201   5.960 -0.1660 -0.2754 -0.0473
23156SOL    HW171336   3.619   3.125   6.017  0.8964 -1.2081 -1.3030
23156SOL    HW271337   3.662   3.270   6.007 -1.6890 -0.1737  1.3763
23157SOL     OW71338   8.780   8.901   2.442 -0.1490  0.1232 -0.6634
23157SOL    HW171339   8.687   8.885   2.455 -0.1113  0.0613 -0.4655
23157SOL    HW271340   8.810   8.827   2.390 -0.1350 -0.0530 -0.4092
23158SOL     OW71341   1.851   0.024   5.442 -0.5986 -0.3890 -0.2458
23158SOL    HW171342   1.816   0.039   5.529  0.5617  0.4842  0.0892
23158SOL    HW271343   1.855   0.110   5.401 -0.5916 -0.7148 -0.9609
23159SOL     OW71344   4.990   5.175   4.149 -0.2438 -0.1464  0.2815
23159SOL    HW171345   4.985   5.181   4.053 -1.2517  1.1423  0.3693
23159SOL    HW271346   4.973   5.265   4.179  0.0086 -0.5391  1.6718
23160SOL     OW71347   2.203   2.081   4.805 -0.4338  0.1481  0.2755
23160SOL    HW171348   2.204   2.066   4.899 -1.3353  1.8570  0.5946
23160SOL    HW271349   2.119   2.046   4.776 -0.2622 -0.1526  0.1320
23161SOL     OW71350   8.628   8.532   7.919 -0.1873 -0.4678 -0.4315
23161SOL    HW171351   8.560   8.530   7.852 -0.0624 -1.6457 -0.5471
23161SOL    HW271352   8.602   8.465   7.983  0.3218 -0.2090  0.0652
23162SOL     OW71353   6.172   3.541   2.680  0.0696 -0.2567  0.1052
23162SOL    HW171354   6.085   3.502   2.676  0.1402 -0.5099  0.8592
23162SOL    HW271355   6.156   3.636   2.683 -0.1038 -0.1993 -1.6143
23163SOL     OW71356   4.580   5.425   6.090 -0.2726  0.7267 -0.0494
23163SOL    HW171357   4.587   5.406   5.997 -1.4664 -0.0398  0.0012
23163SOL    HW271358   4.543   5.513   6.094 -0.2922  0.7306 -0.2914
23164SOL     OW71359   4.035   7.110   3.473  0.0063 -0.5219  0.2830
23164SOL    HW171360   3.980   7.183   3.501 -0.6355 -1.2916  1.0794
23164SOL    HW271361   4.113   7.116   3.528  0.4421  0.1587 -0.3735
23165SOL     OW71362   1.095   1.417   3.224  0.7389  0.9110  0.0782
23165SOL    HW171363   1.036   1.475   3.176 -0.7696  0.6583  1.5497
23165SOL    HW271364   1.107   1.342   3.165  0.0326  1.2332 -0.4933
23166SOL     OW71365   7.987   5.477   8.312 -0.8237 -0.0207  0.0266
23166SOL    HW171366   7.958   5.493   8.222 -2.0575  0.2368  0.4562
23166SOL    HW271367   7.924   5.414   8.346 -0.2454 -0.2605  0.6585
23167SOL     OW71368   1.841   4.494   7.314  0.1067 -0.6015  0.4166
23167SOL    HW171369   1.850   4.503   7.409  0.0165  0.7157  0.3140
23167SOL    HW271370   1.920   4.533   7.278 -0.0393 -0.7440 -0.0660
23168SOL     OW71371   2.192   1.617   8.246  0.5697 -0.0995  0.4767
23168SOL    HW171372   2.105   1.578   8.257  1.2522 -2.1378 -0.7765
23168SOL    HW271373   2.242   1.549   8.201  2.6472  1.2690  0.6384
23169SOL     OW71374   6.524   2.245   6.590  0.1847 -0.2508  0.2196
23169SOL    HW171375   6.547   2.153   6.602 -0.4913 -0.5005 -0.2893
23169SOL    HW271376   6.524   2.282   6.678  1.4146 -0.4928  0.3367
23170SOL     OW71377   6.840   4.991   4.579 -0.1620  0.4035 -0.5174
23170SOL    HW171378   6.876   5.055   4.640 -0.5970  0.3645 -0.2210
23170SOL    HW271379   6.901   4.992   4.505  1.4465 -0.9813  0.7533
23171SOL     OW71380   3.518   5.807   2.708  0.3205 -0.0972  0.0401
23171SOL    HW171381   3.591   5.755   2.742  0.8445  0.6656  0.0967
23171SOL    HW271382   3.480   5.847   2.786 -0.5235 -0.9418  0.0758
23172SOL     OW71383   0.476   1.074   4.451 -0.0207  0.3439  0.5267
23172SOL    HW171384   0.512   1.130   4.383  0.0642 -1.0388 -0.6070
23172SOL    HW271385   0.435   1.134   4.513  2.6116  1.8649  0.9261
23173SOL     OW71386   0.112   4.164   0.228  0.8173 -0.2591 -0.2162
23173SOL    HW171387   0.128   4.257   0.212 -0.8486  0.2728  0.9473
23173SOL    HW271388   0.020   4.151   0.203  0.4549 -1.1424  1.4450
23174SOL     OW71389   0.861   7.985   6.654  0.1394 -0.0508 -0.1762
23174SOL    HW171390   0.947   8.024   6.666 -0.5386  1.0911  1.3919
23174SOL    HW271391   0.848   7.932   6.733 -0.9193  0.5070  0.0462
23175SOL     OW71392   4.834   3.211   6.848  0.1067  0.1010 -0.0745
23175SOL    HW171393   4.882   3.131   6.872 -0.8596 -0.2386  0.8320
23175SOL    HW271394   4.742   3.187   6.857 -0.2484  0.8474 -1.4250
23176SOL     OW71395   5.560   6.482   7.052 -0.0256  0.1894  0.0729
23176SOL    HW171396   5.644   6.528   7.047  0.4102 -0.2711  2.0900
23176SOL    HW271397   5.501   6.535   6.998  0.9730  1.9017  0.5578
23177SOL     OW71398   5.012   8.772   5.727 -0.1354  0.4485 -0.2439
23177SOL    HW171399   5.003   8.717   5.805  0.0809  1.5321  0.5760
23177SOL    HW271400   4.986   8.716   5.654 -0.3825 -0.5772  0.6147
23178SOL     OW71401   2.221   3.648   6.156  0.0500  0.0875  0.5806
23178SOL    HW171402   2.146   3.692   6.195  0.8067  1.1364  0.9021
23178SOL    HW271403   2.297   3.685   6.202  0.8877  0.4327 -1.0126
23179SOL     OW71404   1.174   2.413   7.177  0.2354 -0.1233 -0.1349
23179SOL    HW171405   1.079   2.411   7.187  0.2086 -0.0313 -0.3564
23179SOL    HW271406   1.199   2.504   7.196  0.1608  0.1032 -1.0532
23180SOL     OW71407   0.317   3.252   7.503  0.7833 -0.3789  0.3064
23180SOL    HW171408   0.373   3.218   7.572  2.1816  0.0401 -0.5890
23180SOL    HW271409   0.374   3.260   7.426 -0.1543  1.3533 -0.2803
23181SOL     OW71410   2.902   1.924   2.333  0.5493  0.0737  0.0311
23181SOL    HW171411   2.995   1.945   2.340  0.6230 -0.4394  0.6121
23181SOL    HW271412   2.870   1.927   2.423 -0.0213  0.3356 -0.1730
23182SOL     OW71413   7.357   2.791   5.423  0.5705 -0.3089  0.7371
23182SOL    HW171414   7.261   2.787   5.430  0.5271 -0.2357  0.2100
23182SOL    HW271415   7.387   2.719   5.479  0.2373  0.1025  1.4588
23183SOL     OW71416   7.228   1.636   5.560  0.4017  0.0790 -0.4302
23183SOL    HW171417   7.224   1.558   5.505  0.8807 -0.1522 -0.1540
23183SOL    HW271418   7.294   1.614   5.627 -0.1087  0.3770  0.1847
23184SOL     OW71419   6.935   1.243   5.386  0.2210  0.2817  0.0758
23184SOL    HW171420   6.890   1.305   5.328 -1.2500 -0.3773  0.4674
23184SOL    HW271421   6.983   1.185   5.327 -0.2160  0.4092 -0.4114
23185SOL     OW71422   0.965   0.001   6.854 -0.1691 -0.3917 -0.2479
23185SOL    HW171423   1.010  -0.080   6.879  0.0099  0.3926  2.2600
23185SOL    HW271424   1.035   0.066   6.847 -0.6258  0.2979  1.2700
23186SOL     OW71425   1.825   6.515   4.366  0.6129  0.6495 -0.1932
23186SOL    HW171426   1.875   6.578   4.417 -0.1264  0.7954  0.3602
23186SOL    HW271427   1.776   6.464   4.431  1.8163 -1.0764 -0.5517
23187SOL     OW71428   4.837   6.404   4.812  1.1484 -0.2205 -0.6508
23187SOL    HW171429   4.808   6.335   4.753 -0.2860 -0.2613  0.0694
23187SOL    HW271430   4.824   6.485   4.763 -0.3263 -0.2309 -0.3308
23188SOL     OW71431   1.388   2.049   5.160  0.2017  0.2454  0.6781
23188SOL    HW171432   1.423   1.965   5.189 -0.0203 -0.9499 -2.1424
23188SOL    HW271433   1.424   2.113   5.221  1.3689 -1.7546  2.1907
23189SOL     OW71434   8.927   3.613   8.515  0.2646 -0.1258  0.2252
23189SOL    HW171435   8.975   3.692   8.489  0.2324 -0.6381 -1.5170
23189SOL    HW271436   8.972   3.583   8.594  0.7836  1.1742  0.4535
23190SOL     OW71437   7.368   5.883   8.913 -0.1165 -0.2806 -0.0088
23190SOL    HW171438   7.386   5.921   8.999  2.8014 -1.9719  0.2749
23190SOL    HW271439   7.403   5.945   8.850 -1.7461  0.6907 -0.0178
23191SOL     OW71440   0.604   2.247   2.205  0.3133 -0.1249  0.4122
23191SOL    HW171441   0.693   2.256   2.169  0.6358  1.5883  1.5391
23191SOL    HW271442   0.618   2.203   2.290 -0.1765 -1.7820 -0.3207
23192SOL     OW71443   1.654   0.146   5.785 -0.1545 -0.0735  0.2829
23192SOL    HW171444   1.644   0.117   5.875  2.4958  0.4136  0.8363
23192SOL    HW271445   1.684   0.069   5.737 -0.2563 -0.0163  0.1245
23193SOL     OW71446   4.335   4.175   6.480 -0.0743 -0.2479 -0.4117
23193SOL    HW171447   4.409   4.198   6.536  0.1940 -1.1440 -0.3816
23193SOL    HW271448   4.258   4.188   6.535  0.1569 -0.6660  0.0103
23194SOL     OW71449   8.434   0.456   7.352 -0.7165 -0.0664 -0.0114
23194SOL    HW171450   8.360   0.422   7.301  0.3005 -0.1985 -1.4752
23194SOL    HW271451   8.437   0.549   7.329  0.9240 -0.4941 -1.8309
23195SOL     OW71452   6.463   4.941   4.310  0.0248  0.1038 -0.1792
23195SOL    HW171453   6.552   4.963   4.282  0.2863  0.3032  0.7860
23195SOL    HW271454   6.420   5.026   4.321  0.3070  0.1003  1.1993
23196SOL     OW71455   2.944   6.324   7.268  0.2138  0.1514 -0.0613
23196SOL    HW171456   3.014   6.365   7.217  2.3541 -1.0787  1.6782
23196SOL    HW271457   2.880   6.295   7.203  0.6349  2.4763 -1.6294
23197SOL     OW71458   1.294   2.316   6.093 -0.1410 -0.4914 -0.2002
23197SOL    HW171459   1.245   2.267   6.159 -2.8730  4.0537  1.6983
23197SOL    HW271460   1.368   2.353   6.140 -0.5676  0.5804 -0.3281
23198SOL     OW71461   7.241   6.991   2.163  0.0283 -0.3088 -1.1486
23198SOL    HW171462   7.257   6.993   2.258  0.4313  1.5489 -1.2279
23198SOL    HW271463   7.176   6.921   2.151 -2.8662  1.8027  0.9481
23199SOL     OW71464   3.863   0.387   6.528 -0.4299 -0.4964  0.3719
23199SOL    HW171465   3.904   0.451   6.586  2.6930 -2.5932  0.6632
23199SOL    HW271466   3.844   0.312   6.584 -0.4520 -1.2983 -0.6751
23200SOL     OW71467   3.062   2.511   5.642  0.6320  0.0989  0.3489
23200SOL    HW171468   2.967   2.507   5.651  0.4756  0.3444 -0.9478
23200SOL    HW271469   3.094   2.434   5.688 -0.1904  0.0390  0.8378
23201SOL     OW71470   7.001   6.329   3.669  0.2978 -0.3772  0.0824
23201SOL    HW171471   6.979   6.391   3.739 -0.1057 -0.5620  0.1183
23201SOL    HW271472   6.919   6.285   3.649  0.9256 -2.2716  1.3946
23202SOL     OW71473   4.049   7.456   4.792  0.0961 -0.1733 -0.3245
23202SOL    HW171474   3.971   7.402   4.808 -0.0002  0.0470 -0.0472
23202SOL    HW271475   4.015   7.544   4.779  0.1783 -0.3209 -1.6762
23203SOL     OW71476   3.842   8.069   2.890 -0.2987  0.7808  0.1469
23203SOL    HW171477   3.789   8.127   2.836 -0.6543 -0.3681 -0.7822
23203SOL    HW271478   3.809   7.981   2.871  0.6385  0.2066  1.0372
23204SOL     OW71479   0.466   7.246   1.535  0.0745  0.1763 -0.1279
23204SOL    HW171480   0.507   7.193   1.603  0.9974  2.2971  1.0451
23204SOL    HW271481   0.378   7.208   1.525  0.9722 -2.1025 -0.0315
23205SOL     OW71482   3.631   6.080   6.869 -0.0284 -0.3139 -0.1103
23205SOL    HW171483   3.666   6.166   6.891  1.4913 -0.8153 -0.4603
23205SOL    HW271484   3.685   6.049   6.796  0.9289 -2.4599  1.3777
23206SOL     OW71485   0.778   5.709   7.603 -0.7479 -0.2088 -0.2529
23206SOL    HW171486   0.767   5.803   7.614 -0.9601 -0.2988  0.3629
23206SOL    HW271487   0.788   5.697   7.509 -1.4404  0.3531 -0.4074
23207SOL     OW71488   2.523   3.524   4.187 -0.0669  0.1999 -0.8300
23207SOL    HW171489   2.487   3.490   4.105 -1.6135 -1.5022  0.4568
23207SOL    HW271490   2.483   3.469   4.255  2.2662  0.5883  0.9745
23208SOL     OW71491   4.240   6.712   5.264 -0.2421  0.0357  0.1295
23208SOL    HW171492   4.279   6.638   5.310  1.2079  1.0933  0.6837
23208SOL    HW271493   4.194   6.673   5.190  0.5434 -1.4075  0.3693
23209SOL     OW71494   0.946   1.036   5.771  0.1982 -0.6341  0.3155
23209SOL    HW171495   0.951   1.120   5.725  1.6923 -1.0048 -0.2652
23209SOL    HW271496   0.998   1.050   5.850 -1.2600 -0.4107  1.2680
23210SOL     OW71497   6.213   8.210   3.966 -0.0460  0.2271 -0.1857
23210SOL    HW171498   6.152   8.262   4.018  0.6478 -0.5465  1.4653
23210SOL    HW271499   6.158   8.145   3.922 -0.6470  0.9131 -0.4751
23211SOL     OW71500   0.501   4.778   3.611 -0.1128  0.4474 -0.4656
23211SOL    HW171501   0.587   4.756   3.648  0.5880  2.9429 -0.4727
23211SOL    HW271502   0.454   4.818   3.683 -0.7311  0.4712 -0.8793
23212SOL     OW71503   6.840   2.030   7.747  0.4468  0.1497  0.3060
23212SOL    HW171504   6.893   2.085   7.804  0.2643  0.4891  0.1522
23212SOL    HW271505   6.774   1.991   7.804 -0.0131  0.8398  0.2530
23213SOL     OW71506   5.877   0.829   5.025 -0.3355  0.5432 -0.2687
23213SOL    HW171507   5.926   0.749   5.043 -1.1227  0.2060  0.4484
23213SOL    HW271508   5.789   0.799   5.003 -0.6375  1.2010 -0.0039
23214SOL     OW71509   1.015   5.108   8.205  0.0950 -0.6797 -0.0646
23214SOL    HW171510   1.058   5.023   8.191  0.4042 -0.2684 -1.8234
23214SOL    HW271511   1.013   5.148   8.118  1.2288  1.7206  0.9264
23215SOL     OW71512   1.164   0.898   8.356  0.2538  0.4563  0.6691
23215SOL    HW171513   1.158   0.891   8.451  0.9844 -0.8554  0.6443
23215SOL    HW271514   1.258   0.892   8.337  0.0051 -1.3826 -0.2324
23216SOL     OW71515   1.813   8.479   8.434 -0.1076 -0.2041  0.2402
23216SOL    HW171516   1.742   8.536   8.463  1.3436  1.1984  1.2309
23216SOL    HW271517   1.841   8.433   8.514  1.1167  0.4593  0.2186
23217SOL     OW71518   5.692   1.388   3.212 -0.4164  0.2650 -0.2221
23217SOL    HW171519   5.662   1.300   3.193  0.3517 -0.2252  0.7588
23217SOL    HW271520   5.641   1.416   3.288 -1.3837  1.0773 -1.1369
23218SOL     OW71521   5.110   4.383   2.965 -0.3039 -0.6548  0.0176
23218SOL    HW171522   5.188   4.386   2.911 -0.3819 -0.5381 -0.0878
23218SOL    HW271523   5.058   4.311   2.929 -0.3024 -0.6523  0.0101
23219SOL     OW71524   0.284   6.228   0.378 -0.7036  0.7706  0.3025
23219SOL    HW171525   0.198   6.262   0.404 -1.0363  0.2051 -0.0511
23219SOL    HW271526   0.306   6.277   0.299  0.5243  2.8389  1.8255
23220SOL     OW71527   4.618   6.338   4.982  0.3898  0.1827  0.1282
23220SOL    HW171528   4.574   6.323   4.898 -0.4374 -0.4418  0.6532
23220SOL    HW271529   4.710   6.351   4.959  0.1163  0.4365 -0.9087
23221SOL     OW71530   5.737   1.103   2.092 -0.4955  0.0205  1.0046
23221SOL    HW171531   5.663   1.152   2.129 -0.3329  0.1679  1.1309
23221SOL    HW271532   5.695   1.037   2.036 -0.7974 -0.7296  2.0644
23222SOL     OW71533   0.915   3.035   3.328  0.2805 -0.2669  0.0787
23222SOL    HW171534   0.860   3.105   3.295  1.7859  0.1521 -1.6713
23222SOL    HW271535   0.885   2.956   3.282 -0.1631 -0.4209  0.6253
23223SOL     OW71536   8.981   5.827   0.580 -0.3261 -0.1863  0.2572
23223SOL    HW171537   9.049   5.828   0.647 -0.3923  1.2021  0.3443
23223SOL    HW271538   8.946   5.916   0.580 -0.6473 -0.2767 -1.3115
23224SOL     OW71539   1.940   4.253   2.078  0.2282 -0.1074 -0.0589
23224SOL    HW171540   1.913   4.162   2.064  1.7149 -0.8758  1.7673
23224SOL    HW271541   2.032   4.247   2.101 -0.2321  1.6236  2.5221
23225SOL     OW71542   4.945   4.413   6.551  0.1432  0.0443  0.0957
23225SOL    HW171543   4.960   4.456   6.467 -2.2206  0.1759 -0.3374
23225SOL    HW271544   5.030   4.414   6.595  1.1360  1.1287 -1.7527
23226SOL     OW71545   8.191   3.353   6.448  0.7874  0.2086 -0.2929
23226SOL    HW171546   8.241   3.357   6.530  0.2787  1.7134 -0.0306
23226SOL    HW271547   8.099   3.355   6.476  0.5878 -0.6182 -0.8583
23227SOL     OW71548   1.731   5.391   3.926 -0.1595  0.0460 -0.2382
23227SOL    HW171549   1.825   5.383   3.943 -0.3936  1.0408  1.9627
23227SOL    HW271550   1.691   5.330   3.988 -0.9867  0.3120 -0.5025
23228SOL     OW71551   2.849   8.989   2.689 -0.1086 -0.1851 -0.3832
23228SOL    HW171552   2.784   8.922   2.666  0.2102 -0.3330 -0.8649
23228SOL    HW271553   2.933   8.948   2.670  0.0754  0.5427 -1.2122
23229SOL     OW71554   6.474   6.414   3.266 -0.4257  0.5727  0.1361
23229SOL    HW171555   6.437   6.362   3.194 -1.7645  1.1321  0.3828
23229SOL    HW271556   6.480   6.352   3.339  0.3657  0.1524 -0.2716
23230SOL     OW71557   7.483   3.687   7.876 -0.1702  0.3924  0.0015
23230SOL    HW171558   7.559   3.736   7.907  1.8454 -1.5978 -1.4324
23230SOL    HW271559   7.476   3.613   7.936 -1.1450  0.6795  0.2550
23231SOL     OW71560   1.378   3.903   5.347 -0.2595 -0.1531  0.0788
23231SOL    HW171561   1.392   3.992   5.312 -1.5186 -0.1736 -0.5428
23231SOL    HW271562   1.310   3.914   5.413 -0.4742 -0.6639 -0.0564
23232SOL     OW71563   8.168   8.594   3.487  0.2162  0.6114 -0.0367
23232SOL    HW171564   8.117   8.646   3.425 -0.3536  0.8928  0.6552
23232SOL    HW271565   8.117   8.596   3.568  1.6478  1.4684  0.8909
23233SOL     OW71566   3.676   1.890   2.933 -0.2038 -0.2712  0.5858
23233SOL    HW171567   3.744   1.935   2.882 -0.6941 -0.1865 -0.0120
23233SOL    HW271568   3.719   1.866   3.015 -0.0172  1.6547  1.1167
23234SOL     OW71569   3.446   6.493   8.959 -0.2120 -0.4850 -0.4743
23234SOL    HW171570   3.526   6.521   8.915 -0.4334  3.0797  1.0275
23234SOL    HW271571   3.379   6.552   8.925 -1.3411 -0.7299  1.2120
23235SOL     OW71572   6.295   7.315   3.937  0.0388 -0.2895  0.4341
23235SOL    HW171573   6.389   7.306   3.927 -0.1938 -2.6383 -0.1927
23235SOL    HW271574   6.270   7.245   3.998 -1.2559  0.6549  1.0506
23236SOL     OW71575   1.145   6.295   4.423 -0.4313  0.1761 -0.5478
23236SOL    HW171576   1.054   6.270   4.439  0.1944 -1.9624 -0.0744
23236SOL    HW271577   1.185   6.216   4.387  1.3936  0.8970 -0.1679
23237SOL     OW71578   1.649   5.806   6.420 -0.0389 -0.3034 -0.6610
23237SOL    HW171579   1.661   5.847   6.335 -1.4436  2.4203  0.3373
23237SOL    HW271580   1.559   5.773   6.419 -0.1187 -0.1168 -0.1955
23238SOL     OW71581   7.979   0.055   1.822 -0.3865 -0.6591  0.3590
23238SOL    HW171582   7.885   0.071   1.834  0.0112  0.7763  1.8163
23238SOL    HW271583   8.010   0.028   1.908  0.5379 -1.1842 -0.1259
23239SOL     OW71584   6.095   1.974   4.227 -0.1782 -0.0680 -0.3166
23239SOL    HW171585   6.142   1.919   4.290 -0.4902  1.4110  1.3036
23239SOL    HW271586   6.151   2.051   4.216 -1.2101  0.7529 -0.0011
23240SOL     OW71587   7.226   7.756   1.592 -0.5917  0.1603  0.4155
23240SOL    HW171588   7.258   7.720   1.675  0.0745  0.9421  0.5096
23240SOL    HW271589   7.133   7.774   1.609 -0.7412 -0.7514  0.6139
23241SOL     OW71590   3.361   2.335   3.188 -0.0033 -0.2692 -0.2847
23241SOL    HW171591   3.300   2.283   3.239  1.0307 -1.6008 -0.3539
23241SOL    HW271592   3.384   2.408   3.245  0.3360 -1.1709  0.7554
23242SOL     OW71593   5.740   7.893   5.735 -0.8048  0.9842 -0.3875
23242SOL    HW171594   5.733   7.798   5.741 -1.3377  0.5700 -4.4317
23242SOL    HW271595   5.655   7.926   5.765 -1.5738 -0.0621 -1.3481
23243SOL     OW71596   5.005   2.618   6.497  0.4149  0.6166  0.2672
23243SOL    HW171597   4.936   2.685   6.501 -0.0389  0.2363 -0.8218
23243SOL    HW271598   5.009   2.582   6.586 -0.2288  1.2050  0.5404
23244SOL     OW71599   7.888   0.212   7.573  0.0683  0.7288 -0.2078
23244SOL    HW171600   7.835   0.254   7.505 -1.8916 -0.2279  0.6508
23244SOL    HW271601   7.913   0.128   7.536 -0.5445  0.4346  0.0307
23245SOL     OW71602   3.047   4.100   0.964 -0.7442 -0.0256 -0.0491
23245SOL    HW171603   3.137   4.120   0.989 -0.4179 -0.6490 -0.6929
23245SOL    HW271604   3.055   4.044   0.887 -1.6944  0.4814 -0.5464
23246SOL     OW71605   0.436   4.528   1.461  0.3545 -0.6698  0.1998
23246SOL    HW171606   0.443   4.481   1.378  0.3128  1.6095 -1.1754
23246SOL    HW271607   0.342   4.540   1.474  0.3472  2.5783 -1.7186
23247SOL     OW71608   2.125   5.290   0.547 -0.2301  0.1886 -0.1579
23247SOL    HW171609   2.071   5.244   0.483 -0.3435  1.0801 -0.7327
23247SOL    HW271610   2.209   5.245   0.545  0.0234  0.6550 -1.5301
23248SOL     OW71611   5.268   6.916   4.769 -0.1406  0.1369 -0.3808
23248SOL    HW171612   5.266   6.944   4.860 -1.3447 -2.0499  0.3270
23248SOL    HW271613   5.182   6.941   4.734  0.5140  1.4807 -1.1461
23249SOL     OW71614   7.892   0.538   8.673 -0.5380  0.5822  0.7908
23249SOL    HW171615   7.905   0.458   8.622  1.5824  0.6966  1.0796
23249SOL    HW271616   7.953   0.530   8.746  0.8770  3.1635 -0.0239
23250SOL     OW71617   8.404   4.350   2.041 -0.0818 -0.5176  0.4093
23250SOL    HW171618   8.343   4.424   2.031  0.5574 -0.0619 -0.2390
23250SOL    HW271619   8.381   4.290   1.969  0.0189 -0.4974  0.3597
23251SOL     OW71620   0.499   1.630   6.933 -0.1328  0.5565  0.5317
23251SOL    HW171621   0.422   1.683   6.912 -0.5231 -0.2200 -0.0470
23251SOL    HW271622   0.485   1.548   6.887  1.3055  0.5954 -0.0247
23252SOL     OW71623   8.659   3.936   2.442  0.4169 -0.0597  0.4978
23252SOL    HW171624   8.729   3.950   2.377  0.6198  0.4361  0.8206
23252SOL    HW271625   8.675   3.847   2.474  0.4604 -0.2214  0.0478
23253SOL     OW71626   6.617   3.552   3.248 -0.6093 -0.2770  0.3470
23253SOL    HW171627   6.703   3.526   3.216 -1.3707 -2.0988 -0.3609
23253SOL    HW271628   6.555   3.504   3.193 -2.0683  0.1096  1.5657
23254SOL     OW71629   3.600   2.407   1.257 -0.4471 -0.4475 -0.0866
23254SOL    HW171630   3.619   2.370   1.343 -2.3496  0.4758  0.8031
23254SOL    HW271631   3.537   2.477   1.275 -0.2107  0.3717 -2.1529
23255SOL     OW71632   8.840   3.816   3.390  0.0177  0.0700 -0.1266
23255SOL    HW171633   8.922   3.767   3.378  0.1562  0.1946  0.2796
23255SOL    HW271634   8.774   3.748   3.407  0.2924  0.0436  0.8694
23256SOL     OW71635   7.661   2.667   3.331 -0.1737 -0.5170 -0.3852
23256SOL    HW171636   7.614   2.598   3.284  0.9699 -2.2794  0.9170
23256SOL    HW271637   7.593   2.715   3.379 -0.8628 -1.6940 -0.1508
23257SOL     OW71638   6.120   4.251   8.362  0.2582  0.0163 -0.5698
23257SOL    HW171639   6.135   4.159   8.339 -1.2611 -0.5797  0.6165
23257SOL    HW271640   6.200   4.278   8.407  0.6171 -0.8080 -0.6916
23258SOL     OW71641   7.922   2.309   1.121 -0.6707  0.2084  0.2231
23258SOL    HW171642   7.979   2.250   1.072 -1.0855 -1.5374  1.7391
23258SOL    HW271643   7.894   2.374   1.057  0.9472 -0.3870 -1.1691
23259SOL     OW71644   5.427   5.458   6.997  0.0812  0.2666  0.1791
23259SOL    HW171645   5.365   5.393   6.965 -0.5437 -0.0344  1.9010
23259SOL    HW271646   5.497   5.406   7.036 -0.7889  0.5840  2.2513
23260SOL     OW71647   3.270   4.957   4.557  0.3417 -0.0090 -0.1350
23260SOL    HW171648   3.211   5.023   4.595  0.9898  1.0471 -0.9116
23260SOL    HW271649   3.319   5.005   4.490 -0.4158 -1.7160 -1.9710
23261SOL     OW71650   4.827   6.039   6.672 -0.2070  0.6911 -0.6874
23261SOL    HW171651   4.763   5.984   6.717 -0.5980  0.8561 -1.0287
23261SOL    HW271652   4.866   5.982   6.606 -0.0074  0.5906 -0.4798
23262SOL     OW71653   2.065   4.669   0.944  0.5129 -0.1959  0.2460
23262SOL    HW171654   2.157   4.694   0.951 -0.0516  2.0176  0.3892
23262SOL    HW271655   2.018   4.751   0.932 -1.5435 -1.1895  0.9327
23263SOL     OW71656   7.216   6.491   5.025 -0.6124 -0.6070 -0.1104
23263SOL    HW171657   7.246   6.411   4.981  0.9458  0.6121 -1.4084
23263SOL    HW271658   7.139   6.518   4.975 -0.5099 -0.7421 -0.3441
23264SOL     OW71659   3.448   6.424   5.207 -0.1279 -0.2161  0.1882
23264SOL    HW171660   3.357   6.411   5.179 -0.0830 -0.3552  0.1021
23264SOL    HW271661   3.485   6.335   5.207 -0.0655 -0.1888  0.4782
23265SOL     OW71662   6.671   6.722   2.787  0.6959 -0.4708 -0.1040
23265SOL    HW171663   6.755   6.743   2.746 -0.0373 -0.2774 -1.5557
23265SOL    HW271664   6.674   6.627   2.797  2.1330 -0.2569  2.2842
23266SOL     OW71665   8.723   2.030   2.424  0.2172  1.2252  0.1664
23266SOL    HW171666   8.715   2.090   2.498  0.4328 -1.0124  2.0926
23266SOL    HW271667   8.640   1.984   2.421  0.3234  1.0700 -0.8101
23267SOL     OW71668   4.799   5.915   3.644 -0.5409  0.3611  0.1021
23267SOL    HW171669   4.881   5.879   3.609 -0.8825  0.7911 -1.1767
23267SOL    HW271670   4.810   5.910   3.739  0.2771 -1.1492 -0.0427
23268SOL     OW71671   3.547   7.109   7.115 -0.1977 -0.0342 -0.4970
23268SOL    HW171672   3.617   7.175   7.106  0.0681 -0.1250  0.7501
23268SOL    HW271673   3.512   7.123   7.203 -0.7822 -0.9462 -0.5715
23269SOL     OW71674   2.992   8.837   7.675  0.3303  0.4811 -0.1703
23269SOL    HW171675   3.077   8.831   7.632  0.4275  0.2284  0.0612
23269SOL    HW271676   2.938   8.887   7.613  0.1332 -0.8546 -1.1276
23270SOL     OW71677   4.570   3.045   6.135 -0.0088 -0.2111 -0.4666
23270SOL    HW171678   4.627   3.017   6.207 -1.3802 -1.2153  0.2687
23270SOL    HW271679   4.623   3.032   6.056  0.8406 -0.9691  0.2086
23271SOL     OW71680   6.737   1.418   1.196  0.4488 -0.1205  0.1257
23271SOL    HW171681   6.675   1.345   1.196  1.1499 -0.7253  0.8214
23271SOL    HW271682   6.701   1.479   1.131  0.7602 -1.8522 -1.7941
23272SOL     OW71683   5.920   5.705   4.605 -0.5841 -0.1449  0.4064
23272SOL    HW171684   5.945   5.617   4.633 -0.7406 -0.6826 -1.0209
23272SOL    HW271685   5.946   5.762   4.677 -0.5250 -1.3610  1.3836
23273SOL     OW71686   0.172   6.138   3.788  0.1833 -0.0816 -0.4314
23273SOL    HW171687   0.087   6.129   3.745 -0.6324  1.7811  0.6143
23273SOL    HW271688   0.157   6.105   3.877  1.2919 -2.0767 -0.9465
23274SOL     OW71689   3.647   8.300   1.035 -0.2606 -0.8362  0.2516
23274SOL    HW171690   3.715   8.307   1.102  0.2901 -2.5937 -0.0791
23274SOL    HW271691   3.565   8.297   1.084  0.0186 -0.4252  0.7483
23275SOL     OW71692   6.827   4.216   7.021  0.2141  0.3098  0.4642
23275SOL    HW171693   6.793   4.232   7.109 -1.5621  0.8052 -0.2740
23275SOL    HW271694   6.769   4.149   6.985  0.8077  0.2495 -0.3994
23276SOL     OW71695   1.624   2.153   6.583  0.1030  0.0372  0.0425
23276SOL    HW171696   1.636   2.188   6.671  0.0640  0.2705 -0.0441
23276SOL    HW271697   1.540   2.106   6.586 -0.2702  0.6866 -0.0715
23277SOL     OW71698   0.646   5.436   6.892 -0.8452 -0.2753  0.1036
23277SOL    HW171699   0.571   5.493   6.912 -1.2988  0.1398 -2.4364
23277SOL    HW271700   0.671   5.460   6.803  1.3394 -1.5196  0.3197
23278SOL     OW71701   8.468   8.627   3.763 -0.6564  0.2774  0.0573
23278SOL    HW171702   8.393   8.685   3.775 -1.1714 -0.6732  1.6765
23278SOL    HW271703   8.544   8.685   3.770 -1.1575  0.7944  1.4836
23279SOL     OW71704   0.824   5.113   3.428 -0.1279 -0.5224  0.2544
23279SOL    HW171705   0.888   5.147   3.490  1.3211 -2.0800 -0.2983
23279SOL    HW271706   0.817   5.020   3.450 -1.3383 -0.6163 -0.4550
23280SOL     OW71707   6.832   1.920   8.583  0.0892 -0.0299 -0.5761
23280SOL    HW171708   6.767   1.902   8.516  1.4102 -0.8380 -1.6803
23280SOL    HW271709   6.916   1.899   8.542  1.0874  1.2650  0.7035
23281SOL     OW71710   7.297   1.080   4.469 -0.3881 -0.2258 -0.3493
23281SOL    HW171711   7.305   1.161   4.519 -0.5588 -0.0804 -0.5569
23281SOL    HW271712   7.386   1.043   4.470  0.3972  1.3460 -2.5618
23282SOL     OW71713   0.867   7.548   8.176  1.1385  0.0812  0.0115
23282SOL    HW171714   0.798   7.531   8.240  0.6854 -0.5830 -0.6352
23282SOL    HW271715   0.891   7.461   8.144  1.7370  0.3711 -0.3376
23283SOL     OW71716   1.551   5.116   5.663  0.0300 -0.4725  0.4339
23283SOL    HW171717   1.522   5.036   5.707 -2.0421 -1.1070 -1.8932
23283SOL    HW271718   1.584   5.086   5.578  1.5337  0.9488  0.4677
23284SOL     OW71719   2.892   5.269   8.491 -0.1365  0.3431  0.5008
23284SOL    HW171720   2.867   5.361   8.491 -0.6076  0.2226  1.1862
23284SOL    HW271721   2.969   5.265   8.434  0.9256  1.4471  1.7949
23285SOL     OW71722   6.289   6.257   8.292  0.1586  0.1816 -0.1398
23285SOL    HW171723   6.234   6.287   8.219 -1.1773 -1.2409  0.2282
23285SOL    HW271724   6.315   6.168   8.267 -0.4722 -0.3996  1.1476
23286SOL     OW71725   7.462   1.087   0.214 -0.1222 -0.1337 -0.5286
23286SOL    HW171726   7.526   1.148   0.179  1.3861 -1.0888  0.4299
23286SOL    HW271727   7.417   1.135   0.283  0.4223  0.1886 -0.3940
23287SOL     OW71728   4.778   2.235   8.035  0.0993  0.7711  0.8505
23287SOL    HW171729   4.825   2.287   7.970  1.4339 -1.8958 -0.4777
23287SOL    HW271730   4.706   2.195   7.986  1.5899 -1.9104  0.6846
23288SOL     OW71731   0.434   5.819   5.515 -0.1026  0.3163  0.5723
23288SOL    HW171732   0.511   5.773   5.480  0.7006  0.6975  1.7664
23288SOL    HW271733   0.376   5.829   5.440  1.1816  0.3429 -0.4561
23289SOL     OW71734   0.824   3.371   4.968  0.6392 -0.1668  0.0062
23289SOL    HW171735   0.766   3.436   5.008  1.3944  0.2647  0.4252
23289SOL    HW271736   0.878   3.422   4.907  1.2280 -0.3940  0.3281
23290SOL     OW71737   6.932   1.387   6.732  0.0183  0.5115 -0.0788
23290SOL    HW171738   6.847   1.344   6.742 -0.9262  2.2904 -0.1626
23290SOL    HW271739   6.930   1.461   6.792  0.7317  1.7075 -1.4515
23291SOL     OW71740   1.069   2.144   0.703 -0.0970  0.0788 -0.6915
23291SOL    HW171741   1.064   2.051   0.727  0.5073  0.2550  0.1783
23291SOL    HW271742   1.132   2.181   0.765  0.4118  0.8796 -1.6642
23292SOL     OW71743   0.940   1.544   0.518  0.0653  0.1328  0.1143
23292SOL    HW171744   0.955   1.450   0.530  0.9711  0.1929 -0.4402
23292SOL    HW271745   1.020   1.576   0.476 -0.5167  1.0195 -0.3593
23293SOL     OW71746   5.619   2.880   1.362  0.1219  0.0473  0.5092
23293SOL    HW171747   5.552   2.902   1.297  0.1123 -0.3588  0.3746
23293SOL    HW271748   5.702   2.897   1.317  0.1322 -1.0542  0.0681
23294SOL     OW71749   4.810   5.378   1.234 -0.0085  0.0238  0.2318
23294SOL    HW171750   4.875   5.323   1.278 -0.5235  1.2410  2.6916
23294SOL    HW271751   4.732   5.323   1.229 -0.0213 -0.0588  1.1371
23295SOL     OW71752   6.303   0.599   7.484 -0.0323  0.4893 -0.0702
23295SOL    HW171753   6.261   0.522   7.446 -2.2644  1.5925  0.0113
23295SOL    HW271754   6.372   0.564   7.541 -0.2543 -1.3700 -0.8782
23296SOL     OW71755   0.698   5.126   6.285  0.0420  0.2062  0.4057
23296SOL    HW171756   0.631   5.057   6.293  0.3471  0.0435  1.9456
23296SOL    HW271757   0.665   5.182   6.215 -2.1698  0.5840  1.6271
23297SOL     OW71758   8.025   3.451   8.348  0.0135 -0.6268  0.0233
23297SOL    HW171759   8.015   3.539   8.311  1.8406 -1.1433 -1.8597
23297SOL    HW271760   7.994   3.393   8.278 -1.7498 -1.5395  1.4683
23298SOL     OW71761   6.293   5.023   8.007  0.1139 -0.3721  0.0265
23298SOL    HW171762   6.330   5.000   7.921 -0.1558 -1.5072  0.1939
23298SOL    HW271763   6.199   5.019   7.994 -0.0236  2.3018 -0.3397
23299SOL     OW71764   1.012   2.945   7.173 -0.0329 -0.1910  0.2959
23299SOL    HW171765   0.962   2.938   7.091  0.8756  0.5334 -0.3519
23299SOL    HW271766   0.992   2.864   7.220 -0.2630 -0.8158 -0.8264
23300SOL     OW71767   3.803   1.185   2.665  0.3073 -0.6968 -0.1943
23300SOL    HW171768   3.845   1.268   2.689  1.6439 -1.5539  0.5331
23300SOL    HW271769   3.748   1.162   2.740 -0.4348 -0.2574 -0.5887
23301SOL     OW71770   1.781   8.346   0.839  0.4788  0.7310 -1.0584
23301SOL    HW171771   1.763   8.331   0.747  0.6135  1.3044 -1.1859
23301SOL    HW271772   1.876   8.359   0.843  0.5618  0.0482 -0.7410
23302SOL     OW71773   4.249   1.757   7.490 -0.1284 -0.1072 -0.4845
23302SOL    HW171774   4.250   1.850   7.512 -0.2726  0.2430 -1.8471
23302SOL    HW271775   4.170   1.723   7.532  0.1396  0.2820  0.3599
23303SOL     OW71776   5.101   5.481   8.697 -0.3976  0.0503 -0.7593
23303SOL    HW171777   5.120   5.474   8.791  0.6662 -0.9306 -1.0271
23303SOL    HW271778   5.148   5.559   8.669  1.2978 -0.9761 -0.9195
23304SOL     OW71779   0.679   8.236   7.202 -0.3526 -0.3407 -0.6690
23304SOL    HW171780   0.596   8.236   7.251 -0.6246 -0.3787 -1.1216
23304SOL    HW271781   0.660   8.183   7.124 -0.0108 -0.0303 -0.9631
23305SOL     OW71782   2.301   3.832   1.430  0.4191 -0.2416 -0.1230
23305SOL    HW171783   2.374   3.771   1.421  1.1744  0.7986 -1.1583
23305SOL    HW271784   2.338   3.908   1.475  0.1942  0.6249 -1.3560
23306SOL     OW71785   8.717   6.335   0.848  0.2594 -0.4457  0.6705
23306SOL    HW171786   8.771   6.381   0.912  0.8227  0.3753 -0.3667
23306SOL    HW271787   8.628   6.364   0.867  0.4148 -0.2291  1.0885
23307SOL     OW71788   8.982   8.379   1.266  0.1339  0.6405 -0.0778
23307SOL    HW171789   8.888   8.365   1.279 -0.0084  2.2097  0.9073
23307SOL    HW271790   8.995   8.374   1.172 -0.5991 -1.3522 -0.1142
23308SOL     OW71791   2.728   1.075   3.504  0.0289 -0.4568  0.3951
23308SOL    HW171792   2.800   1.012   3.515 -0.2428 -0.5888  1.5636
23308SOL    HW271793   2.768   1.150   3.459  0.5742 -1.0669 -0.1682
23309SOL     OW71794   4.753   0.274   4.551 -0.1682 -0.1071  0.1346
23309SOL    HW171795   4.712   0.270   4.464  0.1579 -4.1007 -0.0050
23309SOL    HW271796   4.846   0.257   4.535 -0.0589 -0.6199  1.2488
23310SOL     OW71797   6.599   3.682   2.191  0.1295 -0.3489  0.1973
23310SOL    HW171798   6.559   3.758   2.234 -1.9054 -1.7975  1.0032
23310SOL    HW271799   6.586   3.610   2.252 -1.0910 -2.0694 -1.9537
23311SOL     OW71800   0.918   8.432   2.231  0.2738  0.6857 -0.3596
23311SOL    HW171801   0.890   8.514   2.273 -2.4030  0.5689 -1.7663
23311SOL    HW271802   0.924   8.369   2.303  0.3421  1.5890  0.4510
23312SOL     OW71803   4.050   3.697   5.281 -0.3291  0.4602  0.6211
23312SOL    HW171804   3.966   3.719   5.323 -1.2759  0.7639 -1.3364
23312SOL    HW271805   4.071   3.610   5.315 -1.2672  0.5068  1.3815
23313SOL     OW71806   2.617   4.374   7.831  0.3855 -0.1849 -0.0050
23313SOL    HW171807   2.596   4.305   7.894 -0.3612 -0.1779 -0.2387
23313SOL    HW271808   2.665   4.328   7.761 -0.3266 -0.5218 -0.2820
23314SOL     OW71809   2.603   6.628   3.054 -1.0674  0.7040 -0.0810
23314SOL    HW171810   2.649   6.621   2.970  1.1934 -0.5529  1.1725
23314SOL    HW271811   2.510   6.620   3.032 -0.4153 -2.4974 -2.1997
23315SOL     OW71812   1.583   2.720   5.086  0.1958 -0.1586 -0.1815
23315SOL    HW171813   1.675   2.740   5.102  0.4539 -1.9227  0.8426
23315SOL    HW271814   1.540   2.805   5.082  1.9037  0.7266 -1.0392
23316SOL     OW71815   7.519   6.225   5.980 -0.7530 -0.5969  0.2347
23316SOL    HW171816   7.579   6.261   5.914  0.5106 -1.4053  0.8848
23316SOL    HW271817   7.460   6.168   5.931 -0.5544 -0.3145 -0.3408
23317SOL     OW71818   4.724   4.032   2.733 -0.2787  0.1977 -0.0250
23317SOL    HW171819   4.704   4.107   2.677  1.2992  0.0481 -0.8518
23317SOL    HW271820   4.807   3.999   2.700  0.5876 -0.0780  2.2151
23318SOL     OW71821   1.097   3.756   3.930 -0.2966  0.1468 -0.3918
23318SOL    HW171822   1.184   3.732   3.962 -0.6473  0.5852  0.9563
23318SOL    HW271823   1.070   3.829   3.986 -1.0699  0.7800 -1.5367
23319SOL     OW71824   1.983   4.779   6.370  0.0555 -0.3196 -0.2974
23319SOL    HW171825   2.002   4.820   6.286  0.8586 -0.9268 -0.4359
23319SOL    HW271826   2.058   4.721   6.385  0.0696 -0.0004  0.9795
23320SOL     OW71827   7.923   7.251   8.948  0.0173 -0.0301  0.0287
23320SOL    HW171828   7.870   7.191   9.000  1.5820 -1.5154 -0.0295
23320SOL    HW271829   7.888   7.243   8.859 -1.6846  1.4048  0.5072
23321SOL     OW71830   4.797   0.982   6.096  0.0704  0.2545  0.6965
23321SOL    HW171831   4.831   1.071   6.094 -1.5696  0.9189  0.4688
23321SOL    HW271832   4.827   0.946   6.179  2.6561  0.1927 -0.1871
23322SOL     OW71833   2.991   6.473   8.612 -0.3540 -0.2746 -0.1903
23322SOL    HW171834   2.960   6.559   8.640  2.5595  0.2559  1.9474
23322SOL    HW271835   2.938   6.410   8.661 -0.9131  0.3681  0.0382
23323SOL     OW71836   1.968   5.383   4.179  0.0343 -0.6941 -0.0694
23323SOL    HW171837   1.934   5.469   4.154  1.6279  0.1528  0.5745
23323SOL    HW271838   1.966   5.383   4.275  2.3600 -0.3494  0.0336
23324SOL     OW71839   5.651   0.764   3.836 -0.3584 -0.3713 -0.2376
23324SOL    HW171840   5.652   0.685   3.781  0.3923  0.4174 -1.3880
23324SOL    HW271841   5.568   0.757   3.884 -1.2978 -0.8538 -1.8380
23325SOL     OW71842   6.675   4.001   2.057  0.4574  0.1474  0.1463
23325SOL    HW171843   6.640   3.941   1.992  1.2076 -0.4663  0.3003
23325SOL    HW271844   6.768   4.009   2.035  0.9399 -0.8117  1.6861
23326SOL     OW71845   5.464   4.100   6.009 -0.1466 -0.2162  0.4108
23326SOL    HW171846   5.388   4.085   6.066 -0.5122 -0.1672 -0.0628
23326SOL    HW271847   5.477   4.016   5.964  0.8475 -0.6105  1.3995
23327SOL     OW71848   2.536   6.507   7.479 -0.7945 -0.5639 -0.1683
23327SOL    HW171849   2.619   6.468   7.506 -0.8492 -0.8743 -0.4387
23327SOL    HW271850   2.515   6.464   7.396 -0.3652  0.7555 -0.9882
23328SOL     OW71851   7.148   6.531   7.960  0.5965 -0.0487  0.0416
23328SOL    HW171852   7.154   6.605   7.899  1.3118 -1.5121 -1.7363
23328SOL    HW271853   7.154   6.453   7.904 -1.4028 -1.4922  1.7215
23329SOL     OW71854   3.956   2.837   4.990  0.1787  0.3740 -0.3366
23329SOL    HW171855   3.892   2.793   4.934  0.2550 -1.1112  0.6971
23329SOL    HW271856   4.017   2.878   4.929 -1.6096  1.6614 -1.3546
23330SOL     OW71857   0.745   8.700   5.309  0.0261 -0.4010  0.0375
23330SOL    HW171858   0.780   8.615   5.333 -2.5055 -1.1465  1.4826
23330SOL    HW271859   0.700   8.731   5.388  0.4593  2.0806 -0.5905
23331SOL     OW71860   3.258   7.993   7.966  0.3932  0.5744  0.1938
23331SOL    HW171861   3.346   8.015   7.935 -0.2119  0.9419 -1.3340
23331SOL    HW271862   3.253   8.033   8.053  1.0819  2.1935 -0.4694
23332SOL     OW71863   4.976   5.256   2.492  0.0395  0.4043  0.2465
23332SOL    HW171864   5.049   5.205   2.528 -0.2114  0.0917  0.3143
23332SOL    HW271865   5.010   5.345   2.485  0.8934  0.0049 -1.0381
23333SOL     OW71866   4.086   2.254   5.425 -0.0713 -0.2138  0.0911
23333SOL    HW171867   4.177   2.273   5.446 -0.1006 -0.8456  0.8541
23333SOL    HW271868   4.049   2.338   5.397  1.1013 -0.2342 -1.6904
23334SOL     OW71869   0.836   7.781   6.838 -0.3274 -0.1346 -0.2561
23334SOL    HW171870   0.811   7.796   6.929 -1.1453 -1.4486 -0.2477
23334SOL    HW271871   0.932   7.777   6.840 -0.2860  0.8559  0.3681
23335SOL     OW71872   3.628   0.551   3.192 -0.2424 -0.1331 -0.1478
23335SOL    HW171873   3.548   0.579   3.237 -0.1692  1.5798 -0.9704
23335SOL    HW271874   3.601   0.475   3.140 -0.7282 -1.0667  1.4024
23336SOL     OW71875   6.717   1.943   1.547  0.0920  0.3208 -0.0392
23336SOL    HW171876   6.656   1.874   1.520 -0.6445 -0.5553  3.3277
23336SOL    HW271877   6.803   1.901   1.544 -0.2705 -0.6001  1.2415
23337SOL     OW71878   5.687   2.954   5.871  0.1651  0.4423 -0.3173
23337SOL    HW171879   5.761   2.995   5.825  0.1709  0.4843 -0.2707
23337SOL    HW271880   5.674   3.008   5.949  0.1634  0.3636 -0.2627
23338SOL     OW71881   3.588   3.233   1.262  0.3304 -0.4423 -0.4092
23338SOL    HW171882   3.495   3.232   1.244  0.3622 -0.8426 -0.5544
23338SOL    HW271883   3.601   3.311   1.316 -0.9584 -3.0308  4.2637
23339SOL     OW71884   7.781   5.010   6.242  0.4430  0.0525 -0.0825
23339SOL    HW171885   7.875   5.029   6.243  0.7003 -1.0978 -0.8444
23339SOL    HW271886   7.761   4.984   6.332  1.3146 -1.7053 -0.3464
23340SOL     OW71887   5.908   6.037   2.861 -0.1332  0.4300 -0.5439
23340SOL    HW171888   5.959   5.985   2.923 -0.8129  1.8013  1.2767
23340SOL    HW271889   5.945   6.125   2.867 -1.6147  1.0762 -0.4413
23341SOL     OW71890   0.614   1.088   8.769  0.6472 -0.0869  0.2835
23341SOL    HW171891   0.630   1.080   8.675  0.0480 -0.5021  0.2117
23341SOL    HW271892   0.686   1.040   8.810  1.6118  1.1455  0.0854
23342SOL     OW71893   4.554   7.262   6.358  0.2701  0.2939  0.3426
23342SOL    HW171894   4.553   7.247   6.452  1.0133 -1.0983  0.1526
23342SOL    HW271895   4.642   7.295   6.340  0.5257 -0.5559 -0.0052
23343SOL     OW71896   1.185   2.251   4.832  0.8861  0.0202 -0.1612
23343SOL    HW171897   1.137   2.198   4.896  0.2151  0.6397 -0.1364
23343SOL    HW271898   1.262   2.198   4.809  0.7445 -0.5272  0.5978
23344SOL     OW71899   4.493   0.914   4.715 -0.4783 -0.2000  0.3118
23344SOL    HW171900   4.422   0.967   4.750 -0.5097  0.8517 -1.2364
23344SOL    HW271901   4.453   0.828   4.699 -0.8845 -0.1884  1.2030
23345SOL     OW71902   0.636   3.437   2.550 -0.4743 -0.1562 -0.2732
23345SOL    HW171903   0.725   3.461   2.574  0.1346 -0.9541 -1.6181
23345SOL    HW271904   0.613   3.366   2.610  0.2589 -0.7510 -0.6727
23346SOL     OW71905   7.636   1.289   0.083 -0.3492  0.0341  0.1788
23346SOL    HW171906   7.578   1.319   0.013  0.1511  0.6652  0.0244
23346SOL    HW271907   7.708   1.245   0.038  0.4781  1.3104  0.2319
23347SOL     OW71908   2.692   2.899   7.955  0.4942  0.3864 -0.0777
23347SOL    HW171909   2.779   2.899   7.996  0.8976  0.6087 -0.9078
23347SOL    HW271910   2.636   2.856   8.019  1.2150  0.2400  0.4780
23348SOL     OW71911   7.883   4.272   7.635 -0.2142  0.4790 -0.0115
23348SOL    HW171912   7.974   4.243   7.640 -0.9451 -2.7370 -2.2946
23348SOL    HW271913   7.871   4.298   7.543 -1.7941  0.0924  0.0618
23349SOL     OW71914   8.085   8.362   2.568  0.2315  0.7348  0.7185
23349SOL    HW171915   8.012   8.413   2.533 -2.3021 -1.0112  3.0023
23349SOL    HW271916   8.144   8.350   2.494 -1.1694  3.2470 -0.9512
23350SOL     OW71917   4.474   4.483   0.970  0.3768  1.2773  0.4616
23350SOL    HW171918   4.463   4.538   1.048  0.2481  1.8348  0.0631
23350SOL    HW271919   4.404   4.512   0.911 -0.2308  0.0802  0.5751
23351SOL     OW71920   1.622   1.836   6.990 -0.0395 -0.1024  0.0797
23351SOL    HW171921   1.577   1.898   7.049 -0.8983 -0.2509 -0.4047
23351SOL    HW271922   1.686   1.792   7.046  1.8354  2.3940  0.1132
23352SOL     OW71923   7.573   8.077   4.363  0.0644 -0.5994 -0.5630
23352SOL    HW171924   7.666   8.086   4.381  0.2199 -0.9424 -1.1582
23352SOL    HW271925   7.545   8.004   4.419  0.1240 -0.4073 -0.2831
23353SOL     OW71926   3.478   0.252   4.986 -0.1683 -0.1120 -0.4385
23353SOL    HW171927   3.445   0.319   4.926  0.7899  0.5391 -0.2712
23353SOL    HW271928   3.478   0.294   5.072  0.2162 -0.4048 -0.2902
23354SOL     OW71929   5.167   2.508   1.253  0.0077 -0.4760  0.0232
23354SOL    HW171930   5.101   2.490   1.187 -0.6230 -1.9434  1.0050
23354SOL    HW271931   5.118   2.527   1.332  0.7465 -0.5101  0.5037
23355SOL     OW71932   1.742   0.267   5.541  0.9007  0.0340 -0.2640
23355SOL    HW171933   1.719   0.358   5.523  1.4641 -0.2338 -2.7002
23355SOL    HW271934   1.688   0.243   5.616 -1.4654  1.5025 -1.3692
23356SOL     OW71935   1.512   5.528   6.706 -0.5335 -0.4644 -0.8498
23356SOL    HW171936   1.542   5.462   6.768 -0.2547 -0.0693 -0.5640
23356SOL    HW271937   1.448   5.580   6.755  0.0429  0.1484 -0.7449
23357SOL     OW71938   1.108   5.843   8.140  0.0861  0.0536  0.4830
23357SOL    HW171939   1.201   5.824   8.131  0.6059  2.1230  0.8788
23357SOL    HW271940   1.101   5.936   8.118 -1.8353  0.0177  0.8024
23358SOL     OW71941   3.830   3.856   5.400 -0.5067  0.3560  0.4398
23358SOL    HW171942   3.869   3.943   5.408 -1.4275  0.7998  0.2904
23358SOL    HW271943   3.737   3.873   5.383 -0.3201 -0.5872 -2.0224
23359SOL     OW71944   8.373   0.215   3.463 -0.0089 -0.0652  0.3833
23359SOL    HW171945   8.300   0.277   3.459 -0.0006 -0.1019 -1.3550
23359SOL    HW271946   8.331   0.129   3.472 -0.0606  0.0960  1.8071
23360SOL     OW71947   8.313   0.042   0.595  0.7616  0.1488  0.6460
23360SOL    HW171948   8.384   0.081   0.646  0.0333  1.4819  0.6590
23360SOL    HW271949   8.233   0.079   0.632  0.0349 -1.2808  0.5841
23361SOL     OW71950   4.793   2.581   2.616 -0.2060  0.2534 -0.0060
23361SOL    HW171951   4.768   2.527   2.691 -0.0799  2.1073  1.4160
23361SOL    HW271952   4.778   2.671   2.644 -1.9513  0.9939 -2.8484
23362SOL     OW71953   5.416   8.043   6.437 -0.2063  0.1745 -0.4417
23362SOL    HW171954   5.350   7.990   6.482  0.7563  0.3970  1.2824
23362SOL    HW271955   5.365   8.113   6.395 -1.0773  0.5637  1.1586
23363SOL     OW71956   8.337   2.468   0.556 -0.5187 -0.0635  0.1275
23363SOL    HW171957   8.330   2.559   0.584 -1.0756 -0.3683  1.0244
23363SOL    HW271958   8.265   2.456   0.494  0.5268  0.5290 -1.2375
23364SOL     OW71959   1.799   6.020   6.002 -0.0266  0.5682 -0.2739
23364SOL    HW171960   1.788   5.982   5.914 -0.0069 -1.3539  0.5118
23364SOL    HW271961   1.793   6.114   5.988  0.5548  0.3440 -2.4351
23365SOL     OW71962   4.833   1.437   7.104 -0.3751 -0.0162  0.2096
23365SOL    HW171963   4.834   1.358   7.157  0.1616  1.5324  2.6673
23365SOL    HW271964   4.914   1.433   7.054 -0.0175 -0.6911  0.8187
23366SOL     OW71965   2.872   5.302   5.519 -0.3833 -0.0784  0.4912
23366SOL    HW171966   2.834   5.222   5.482  1.1141 -0.9068  0.6305
23366SOL    HW271967   2.944   5.323   5.460  0.8529 -0.3413  1.8471
23367SOL     OW71968   6.277   7.044   3.686  0.2512 -0.4918  0.1022
23367SOL    HW171969   6.304   6.958   3.654 -0.3768 -0.2483 -1.1847
23367SOL    HW271970   6.359   7.091   3.700  0.5752 -0.5652 -1.3810
23368SOL     OW71971   2.996   3.133   4.533 -0.3835  0.3091 -0.3211
23368SOL    HW171972   3.037   3.077   4.599 -0.8643 -1.3977 -1.4268
23368SOL    HW271973   3.052   3.211   4.530  2.2807 -1.5180 -1.1200
23369SOL     OW71974   6.073   7.446   3.518 -0.3219 -0.5495 -0.4649
23369SOL    HW171975   6.164   7.421   3.503  0.0047  0.4588 -0.2361
23369SOL    HW271976   6.065   7.456   3.613  0.0520  1.8649 -0.6204
23370SOL     OW71977   6.906   6.920   7.731 -0.7502  0.1632 -0.2409
23370SOL    HW171978   6.864   6.835   7.739 -0.2997 -0.1703 -1.2928
23370SOL    HW271979   6.836   6.983   7.747 -1.0015 -0.3832  0.9711
23371SOL     OW71980   4.774   2.725   6.265 -0.0068  0.3158 -0.0246
23371SOL    HW171981   4.702   2.664   6.277  2.6890 -3.2277  0.0186
23371SOL    HW271982   4.778   2.775   6.347 -2.0088  0.2065  0.1725
23372SOL     OW71983   8.518   0.864   4.310 -0.1736 -0.4316  0.1704
23372SOL    HW171984   8.488   0.942   4.264  0.0587 -0.7853 -0.6070
23372SOL    HW271985   8.477   0.869   4.396 -0.7788  0.1471 -0.1459
23373SOL     OW71986   5.048   8.384   6.684 -0.3938  0.1798  0.1621
23373SOL    HW171987   5.139   8.360   6.668  0.7676  3.3624  1.1265
23373SOL    HW271988   5.029   8.450   6.617 -1.3506  0.8292  1.0410
23374SOL     OW71989   1.302   8.749   7.095 -0.4100 -0.0296 -0.0476
23374SOL    HW171990   1.284   8.801   7.173 -0.8552  0.1709 -0.2774
23374SOL    HW271991   1.297   8.658   7.125  2.7180  0.0158  0.8759
23375SOL     OW71992   1.986   2.252   8.611  0.0300  0.2436 -0.3858
23375SOL    HW171993   2.029   2.318   8.665 -0.5633 -0.2004  0.6700
23375SOL    HW271994   2.031   2.171   8.633  0.6261  0.2509 -1.5291
23376SOL     OW71995   3.650   5.837   3.683 -0.3347  0.2970  0.4590
23376SOL    HW171996   3.679   5.748   3.664 -0.8685  0.3928 -0.8942
23376SOL    HW271997   3.620   5.833   3.774  0.3575 -0.7136  0.6565
23377SOL     OW71998   2.248   8.069   6.176  0.5694 -0.4581 -0.3163
23377SOL    HW171999   2.153   8.064   6.181  0.4440  0.6942 -0.9832
23377SOL    HW272000   2.267   8.163   6.171  1.6685 -0.6962 -1.1987
23378SOL     OW72001   0.109   4.746   3.139 -0.0942  0.4673  0.1886
23378SOL    HW172002   0.021   4.770   3.109 -0.2223  0.4522  0.5446
23378SOL    HW272003   0.096   4.719   3.230  0.4873  1.7586  0.6720
23379SOL     OW72004   1.981   5.908   7.604  0.1258  0.1557 -0.7389
23379SOL    HW172005   2.005   5.896   7.512 -3.5616 -2.6916 -1.5939
23379SOL    HW272006   1.900   5.959   7.600 -0.1549 -0.1185  0.9125
23380SOL     OW72007   2.518   3.610   7.414 -0.1657 -0.3178  0.0510
23380SOL    HW172008   2.611   3.591   7.408  0.0723  0.8640 -0.3253
23380SOL    HW272009   2.487   3.604   7.323 -0.9565 -2.8833  0.4043
23381SOL     OW72010   5.326   7.402   7.608  0.2265 -0.0178  0.2153
23381SOL    HW172011   5.422   7.399   7.599  0.0720 -0.2706 -2.1594
23381SOL    HW272012   5.300   7.477   7.556 -0.8304  0.7007  1.7383
23382SOL     OW72013   8.002   0.043   7.390  0.1844 -0.1091 -0.3059
23382SOL    HW172014   7.989  -0.033   7.335 -0.5588  0.0652 -0.3794
23382SOL    HW272015   7.930   0.102   7.368 -0.1261 -0.0274  0.8225
23383SOL     OW72016   6.509   1.330   3.044  0.5522  0.3651 -0.2979
23383SOL    HW172017   6.542   1.262   3.103  1.8886  0.1718 -1.2398
23383SOL    HW272018   6.462   1.391   3.102 -1.3398 -1.6801  0.4887
23384SOL     OW72019   8.554   1.447   4.123 -0.3150  0.1147 -0.1435
23384SOL    HW172020   8.605   1.427   4.202 -0.1517 -1.9628 -0.7055
23384SOL    HW272021   8.469   1.475   4.155  0.3276  1.0739  0.7776
23385SOL     OW72022   6.887   4.011   1.545  0.1920 -0.4204  0.4743
23385SOL    HW172023   6.941   4.088   1.532  0.3553 -0.8428 -1.5814
23385SOL    HW272024   6.950   3.940   1.562  0.2027 -0.6125 -0.3530
23386SOL     OW72025   8.860   7.176   3.254  0.9285 -0.4565  0.3267
23386SOL    HW172026   8.819   7.092   3.271  2.1643 -1.3807 -1.0191
23386SOL    HW272027   8.794   7.226   3.206  0.6479 -1.1606 -0.0248
23387SOL     OW72028   1.666   4.508   6.404  0.2330  0.1452 -0.1559
23387SOL    HW172029   1.618   4.430   6.432  1.2342 -0.6709 -0.6622
23387SOL    HW272030   1.723   4.529   6.478 -0.4304  0.7363  0.1959
23388SOL     OW72031   6.532   2.115   0.273 -1.0559 -0.1522 -0.3993
23388SOL    HW172032   6.604   2.125   0.211 -1.1284 -0.2374 -0.4952
23388SOL    HW272033   6.536   2.024   0.300 -1.7163 -0.3936 -1.1145
23389SOL     OW72034   6.426   1.664   0.267  0.4770  0.3544  0.2579
23389SOL    HW172035   6.473   1.581   0.273 -0.4963 -0.1549  1.1991
23389SOL    HW272036   6.360   1.650   0.199 -0.3682 -0.0106  1.1358
23390SOL     OW72037   1.187   7.084   0.160  0.0463 -0.3247  0.5532
23390SOL    HW172038   1.246   7.132   0.102  1.5483  0.2086  2.4309
23390SOL    HW272039   1.245   7.038   0.221 -1.3327 -3.6942 -0.4192
23391SOL     OW72040   2.043   6.045   8.422  0.0382  0.5837 -0.8882
23391SOL    HW172041   2.126   6.068   8.463 -0.3537 -4.4508  3.9246
23391SOL    HW272042   1.978   6.101   8.465  0.3618 -0.1580  0.6317
23392SOL     OW72043   6.535   6.284   4.440 -0.0556  0.7384 -0.1027
23392SOL    HW172044   6.441   6.270   4.441 -0.3600  2.5110  2.0143
23392SOL    HW272045   6.551   6.337   4.363 -0.6509 -0.1892 -0.8901
23393SOL     OW72046   8.703   6.326   0.566  0.0192 -0.4843  0.0839
23393SOL    HW172047   8.674   6.236   0.550 -1.6256  0.0677 -0.3202
23393SOL    HW272048   8.709   6.333   0.662 -1.0223 -0.7186  0.1832
23394SOL     OW72049   0.794   4.467   0.374 -0.5966  0.4673  0.3281
23394SOL    HW172050   0.748   4.406   0.317 -1.4295  1.6502 -0.3108
23394SOL    HW272051   0.887   4.458   0.350 -0.4782 -1.6432  1.3436
23395SOL     OW72052   8.949   2.725   3.293  0.1869 -0.9238  0.0444
23395SOL    HW172053   8.969   2.774   3.373 -0.1450 -0.8253  0.0703
23395SOL    HW272054   8.930   2.793   3.228 -1.1387 -1.0202  0.3086
23396SOL     OW72055   4.822   0.798   3.492  0.3622 -0.0674  0.2320
23396SOL    HW172056   4.749   0.834   3.543 -0.6206 -1.3933 -0.1697
23396SOL    HW272057   4.788   0.715   3.457  1.9602 -0.5523 -0.2554
23397SOL     OW72058   1.499   7.085   7.296 -0.5834  0.2042 -0.1424
23397SOL    HW172059   1.490   6.990   7.297  0.2977  0.0683 -1.6277
23397SOL    HW272060   1.421   7.117   7.341 -1.9308 -1.1618 -1.3873
23398SOL     OW72061   3.396   1.141   1.275 -0.1665 -0.0882  0.1001
23398SOL    HW172062   3.335   1.074   1.246  0.3689 -0.9895  0.9787
23398SOL    HW272063   3.482   1.107   1.251  0.0371  0.9815 -0.7670
23399SOL     OW72064   0.671   2.080   0.975 -0.1394 -0.4667 -0.0255
23399SOL    HW172065   0.764   2.066   0.990  0.1539  1.0160 -0.3095
23399SOL    HW272066   0.667   2.152   0.912 -1.4812  0.0332  0.5790
23400SOL     OW72067   5.943   7.066   3.148 -0.3257 -0.0519  0.3646
23400SOL    HW172068   6.007   7.015   3.099 -0.9320  1.2517 -1.9352
23400SOL    HW272069   5.983   7.152   3.156 -0.6699  0.0235  1.3108
23401SOL     OW72070   1.099   2.046   6.626  0.7130  0.2651  0.5554
23401SOL    HW172071   1.030   2.088   6.575  3.4919 -0.8104 -4.6940
23401SOL    HW272072   1.063   1.960   6.649 -0.6429  0.8005  0.5194
23402SOL     OW72073   3.975   0.231   0.928 -0.1936  0.1252  0.3871
23402SOL    HW172074   3.928   0.276   0.998  0.0835 -0.3401  0.8756
23402SOL    HW272075   3.970   0.139   0.951  0.6520  0.0398  0.2558
23403SOL     OW72076   2.546   1.905   7.259  0.0488  0.1861  0.1336
23403SOL    HW172077   2.601   1.888   7.336  0.2866 -0.9269 -0.2658
23403SOL    HW272078   2.573   1.839   7.195 -0.7017  0.5922 -0.6185
23404SOL     OW72079   4.339   3.996   4.816 -0.1699  0.0304 -0.2550
23404SOL    HW172080   4.258   3.972   4.861  0.4592  0.2422  1.0307
23404SOL    HW272081   4.389   3.915   4.812 -0.8879 -0.3754 -2.0962
23405SOL     OW72082   0.480   1.633   0.283 -0.2800 -0.1382  0.0314
23405SOL    HW172083   0.426   1.711   0.273 -1.0577 -0.5731  0.6213
23405SOL    HW272084   0.418   1.566   0.312  0.7449 -0.3920  1.7594
23406SOL     OW72085   1.543   1.761   0.420 -0.4833 -0.2495  0.7332
23406SOL    HW172086   1.489   1.787   0.495 -1.1212  0.1755  0.1379
23406SOL    HW272087   1.484   1.767   0.345  0.6227  1.1251 -0.0653
23407SOL     OW72088   5.924   6.003   7.536 -0.1626  0.0279  0.2215
23407SOL    HW172089   5.960   6.051   7.611  0.5806 -0.8483  0.4336
23407SOL    HW272090   5.882   5.927   7.575  1.0335 -0.9275 -0.2929
23408SOL     OW72091   8.660   3.299   2.842  0.5517  0.1674  0.3737
23408SOL    HW172092   8.701   3.347   2.770 -1.7405  1.5301 -0.1076
23408SOL    HW272093   8.581   3.261   2.805  0.1386 -0.4226  1.7955
23409SOL     OW72094   6.550   5.352   0.300  0.3221 -0.0196 -0.1066
23409SOL    HW172095   6.612   5.348   0.373 -0.4451  0.5067  0.5954
23409SOL    HW272096   6.599   5.395   0.229 -0.0295  3.0135  1.3173
23410SOL     OW72097   0.199   3.962   6.339 -0.4411  0.0620 -0.1831
23410SOL    HW172098   0.134   4.011   6.288 -1.4157 -0.8473  0.1642
23410SOL    HW272099   0.275   4.021   6.343 -1.2553  1.1702 -0.5329
23411SOL     OW72100   7.685   2.988   6.611  0.1084 -0.2992  0.4008
23411SOL    HW172101   7.630   3.050   6.562  1.4892 -0.1176 -0.9857
23411SOL    HW272102   7.713   3.037   6.688 -0.5501  0.0734  0.4068
23412SOL     OW72103   4.810   4.968   1.490  0.2240  0.6042 -0.4285
23412SOL    HW172104   4.724   4.997   1.519 -0.0672  0.6341 -1.2828
23412SOL    HW272105   4.846   5.044   1.443  0.9606  0.7908  0.4130
23413SOL     OW72106   0.849   3.945   5.314  1.0617 -0.0586 -0.5471
23413SOL    HW172107   0.831   3.973   5.225  0.5978  1.1215 -0.1057
23413SOL    HW272108   0.876   4.025   5.360  0.4198 -0.4525  0.5754
23414SOL     OW72109   3.260   0.988   6.780 -0.1792 -0.2515  0.1261
23414SOL    HW172110   3.225   1.036   6.855 -0.8942  0.4866 -0.6645
23414SOL    HW272111   3.248   0.896   6.803  0.7359 -0.0700  1.4390
23415SOL     OW72112   8.321   2.054   1.781 -0.0777 -0.0803 -0.1021
23415SOL    HW172113   8.409   2.048   1.743  0.9123  1.2350  1.8280
23415SOL    HW272114   8.297   2.146   1.772 -0.0635  0.1467  1.8403
23416SOL     OW72115   2.674   2.767   0.523  0.0131  0.0819 -0.2011
23416SOL    HW172116   2.591   2.801   0.488 -0.3775 -1.0648 -0.4152
23416SOL    HW272117   2.735   2.841   0.515 -0.9080  0.8550 -0.2998
23417SOL     OW72118   3.605   5.444   1.773 -1.0134 -0.4145 -0.3286
23417SOL    HW172119   3.556   5.382   1.827 -2.1542  0.3340 -0.4810
23417SOL    HW272120   3.562   5.528   1.788 -0.6325  0.0158 -1.5344
23418SOL     OW72121   0.846   3.729   8.928  0.0263  0.2874  0.0682
23418SOL    HW172122   0.779   3.790   8.960  0.9748  2.1649 -1.3114
23418SOL    HW272123   0.828   3.721   8.834  1.1028 -0.0252 -0.1279
23419SOL     OW72124   5.331   3.575   2.301  0.0793 -0.1203 -0.3294
23419SOL    HW172125   5.374   3.591   2.385  0.9739  0.8877 -0.9409
23419SOL    HW272126   5.255   3.521   2.322 -0.6567  1.4873  1.3326
23420SOL     OW72127   0.091   6.717   1.707 -0.3053 -0.7017 -0.2290
23420SOL    HW172128   0.142   6.790   1.741  0.5292 -2.0976  1.6858
23420SOL    HW272129  -0.000   6.743   1.719 -0.0358  0.2565 -0.1825
23421SOL     OW72130   0.259   3.577   4.607  0.2144  0.3576 -0.1104
23421SOL    HW172131   0.286   3.542   4.522 -1.0714  1.0200 -0.8382
23421SOL    HW272132   0.320   3.648   4.624 -0.0460  0.7945 -0.9285
23422SOL     OW72133   0.608   0.306   3.422 -0.2663 -0.0135 -0.4242
23422SOL    HW172134   0.699   0.315   3.396 -0.0478  0.2501  0.4064
23422SOL    HW272135   0.584   0.216   3.397  0.3893 -0.2729 -0.1309
23423SOL     OW72136   7.768   0.907   6.077  0.2365 -0.3506  0.2200
23423SOL    HW172137   7.781   0.946   5.991 -0.4665 -0.6043 -0.0050
23423SOL    HW272138   7.697   0.957   6.116 -0.9247 -1.6073 -0.2131
23424SOL     OW72139   1.989   1.355   2.339 -0.2444 -0.2560  0.6033
23424SOL    HW172140   1.971   1.299   2.415 -3.1030  1.3214  1.2680
23424SOL    HW272141   2.033   1.431   2.376 -1.4965  0.4417  0.7184
23425SOL     OW72142   3.029   0.694   4.652 -0.1987  0.3083  0.3393
23425SOL    HW172143   3.077   0.764   4.695 -2.0027  1.0303  1.3018
23425SOL    HW272144   2.937   0.714   4.670 -0.7734 -2.4946  0.9707
23426SOL     OW72145   6.510   3.119   1.977  0.0553 -0.2735 -0.6068
23426SOL    HW172146   6.474   3.160   2.055  0.5416 -1.3042  0.1959
23426SOL    HW272147   6.581   3.063   2.010  0.9319  0.0336 -1.8963
23427SOL     OW72148   4.438   3.260   5.858  0.7529 -0.2255 -0.4061
23427SOL    HW172149   4.471   3.172   5.875  0.5127 -0.2829 -0.2389
23427SOL    HW272150   4.466   3.279   5.768 -1.8856 -1.7161 -1.6333
23428SOL     OW72151   1.321   5.694   6.860  0.0803  0.6730  0.0559
23428SOL    HW172152   1.371   5.705   6.940  2.1824  0.5003 -1.1648
23428SOL    HW272153   1.231   5.678   6.889  0.6161  1.5203  2.3167
23429SOL     OW72154   5.592   0.458   3.726  0.2028  0.5227 -0.6349
23429SOL    HW172155   5.647   0.459   3.648  1.3742  1.4108  0.1743
23429SOL    HW272156   5.512   0.503   3.700  0.0482 -0.3061 -1.6720
23430SOL     OW72157   5.210   5.156   5.751 -0.0247  0.0007  0.0701
23430SOL    HW172158   5.223   5.161   5.656  1.1349 -0.4121  0.1852
23430SOL    HW272159   5.145   5.223   5.770  0.7122  1.0185 -0.8481
23431SOL     OW72160   4.497   2.992   5.083  0.3452  0.2677 -0.2783
23431SOL    HW172161   4.517   3.014   4.992  0.3269 -2.2532 -0.9626
23431SOL    HW272162   4.468   2.901   5.080 -1.3151  0.6273  2.0510
23432SOL     OW72163   1.748   8.222   6.862 -0.1128 -0.2982  0.6258
23432SOL    HW172164   1.749   8.284   6.935  0.3827 -0.6888  0.9532
23432SOL    HW272165   1.835   8.182   6.862  0.0963  0.1088 -0.5380
23433SOL     OW72166   6.912   2.677   0.188  0.7447  0.2376  0.0131
23433SOL    HW172167   6.889   2.614   0.256  0.1960 -1.2359 -1.4586
23433SOL    HW272168   7.000   2.652   0.160  0.2816 -0.3218 -1.0136
23434SOL     OW72169   6.277   5.254   3.564  0.4310  0.1802 -0.2782
23434SOL    HW172170   6.299   5.238   3.472 -0.8385 -0.3482 -0.5084
23434SOL    HW272171   6.355   5.228   3.612  1.6260  1.7413 -1.2803
23435SOL     OW72172   3.477   0.338   5.841 -0.1639  0.2094  0.6058
23435SOL    HW172173   3.455   0.296   5.757  2.3702 -0.8226  0.3549
23435SOL    HW272174   3.572   0.349   5.838 -0.2118  1.8467  2.6255
23436SOL     OW72175   4.137   8.589   0.640  0.0800 -0.2498  0.6043
23436SOL    HW172176   4.231   8.584   0.623 -0.0396  0.5993 -0.4068
23436SOL    HW272177   4.118   8.509   0.689  1.5461  0.1688  1.9724
23437SOL     OW72178   2.296   5.356   7.752 -0.3547  0.3594 -0.2396
23437SOL    HW172179   2.390   5.341   7.759  0.5835  3.9949 -2.3911
23437SOL    HW272180   2.264   5.350   7.842  2.3979  1.2587  0.9025
23438SOL     OW72181   4.125   8.027   0.538  0.5778 -0.4986  0.1536
23438SOL    HW172182   4.171   8.017   0.621  1.4870 -1.0192 -0.4043
23438SOL    HW272183   4.065   7.952   0.534  1.8262 -1.4937 -0.4690
23439SOL     OW72184   7.913   4.523   0.747 -0.2143  0.7195  0.7298
23439SOL    HW172185   7.904   4.618   0.756  1.4770  0.7865  2.6536
23439SOL    HW272186   7.857   4.487   0.816 -0.7916  0.2967  0.0565
23440SOL     OW72187   4.593   7.725   4.965  0.2381  0.6671  0.1289
23440SOL    HW172188   4.684   7.697   4.954  0.0369 -0.6979  1.6441
23440SOL    HW272189   4.590   7.811   4.924  1.9317  0.2767 -0.9456
23441SOL     OW72190   5.346   1.100   8.482 -0.3811  0.7107 -0.2004
23441SOL    HW172191   5.302   1.168   8.431 -1.4078  1.5728  1.6965
23441SOL    HW272192   5.287   1.025   8.477 -0.1722  0.5832 -0.7757
23442SOL     OW72193   2.683   3.883   5.269  0.0069 -0.0851 -0.1065
23442SOL    HW172194   2.714   3.931   5.345 -0.5173 -1.2058  0.8331
23442SOL    HW272195   2.736   3.804   5.266 -1.0144 -0.7938  0.0223
23443SOL     OW72196   0.078   7.081   0.595 -0.4307 -0.0390 -0.0958
23443SOL    HW172197   0.166   7.059   0.566 -1.4926 -1.9895 -2.1321
23443SOL    HW272198   0.050   7.151   0.536 -0.1884  0.7786  0.7315
23444SOL     OW72199   2.930   3.743   5.281  0.5075 -0.0825 -0.4305
23444SOL    HW172200   2.950   3.659   5.241 -1.2405 -0.9131  0.3384
23444SOL    HW272201   2.974   3.741   5.366  0.7680 -0.0564 -0.5633
23445SOL     OW72202   2.446   5.029   8.592  0.5415 -0.3595 -0.4169
23445SOL    HW172203   2.436   4.980   8.674 -0.1906  1.1729  0.4383
23445SOL    HW272204   2.400   5.111   8.607  0.8743  0.1892 -2.1859
23446SOL     OW72205   7.540   5.865   4.506 -0.0573 -0.0281  0.4675
23446SOL    HW172206   7.579   5.783   4.536 -1.3283 -0.6553  0.4725
23446SOL    HW272207   7.615   5.923   4.491  0.9414 -1.5078 -0.5454
23447SOL     OW72208   3.018   5.719   3.999  0.5870 -0.2944 -0.2502
23447SOL    HW172209   3.080   5.791   4.010  2.3961 -2.1166  3.1944
23447SOL    HW272210   2.964   5.720   4.078 -1.4528 -0.9576 -1.5294
23448SOL     OW72211   8.918   7.278   4.651  0.3186 -0.0120 -0.0433
23448SOL    HW172212   8.852   7.319   4.596  2.1785  1.2410 -1.4520
23448SOL    HW272213   8.931   7.340   4.723  0.7779  0.3292 -0.4102
23449SOL     OW72214   5.701   4.790   2.097 -0.4292 -0.1247  0.5366
23449SOL    HW172215   5.767   4.738   2.051  2.5202  2.2619  1.6935
23449SOL    HW272216   5.659   4.841   2.029  0.0654 -0.5248 -0.0802
23450SOL     OW72217   6.186   2.859   4.579 -0.2627  0.1467 -0.0046
23450SOL    HW172218   6.175   2.799   4.652  1.2884  0.6816  0.7037
23450SOL    HW272219   6.098   2.895   4.564 -0.8508 -0.9275  0.7236
23451SOL     OW72220   8.351   7.410   2.325  0.4212  0.6271  0.1519
23451SOL    HW172221   8.347   7.347   2.396 -1.0815 -1.2105 -1.4636
23451SOL    HW272222   8.272   7.463   2.335  0.9326  1.3290  0.6326
23452SOL     OW72223   0.369   0.498   6.213  0.6038 -0.3150  0.3384
23452SOL    HW172224   0.372   0.405   6.233  0.6275 -0.2721  0.5386
23452SOL    HW272225   0.381   0.541   6.297  1.6065 -0.1268  0.1246
23453SOL     OW72226   4.238   3.247   8.389 -0.3496  0.4451  0.6566
23453SOL    HW172227   4.209   3.207   8.471  0.9532  0.9520  1.3950
23453SOL    HW272228   4.203   3.189   8.321 -3.6103  1.3728  1.3753
23454SOL     OW72229   8.335   2.547   8.385  0.0904 -0.2030 -0.1554
23454SOL    HW172230   8.349   2.509   8.299 -2.6490 -1.2750 -0.2238
23454SOL    HW272231   8.320   2.472   8.443 -0.7093  0.5732  0.6900
23455SOL     OW72232   6.706   3.217   4.769 -0.2871  0.7849 -0.1143
23455SOL    HW172233   6.783   3.175   4.807 -0.6999  0.0891 -0.0341
23455SOL    HW272234   6.730   3.310   4.763 -0.3053  0.9636  2.0615
23456SOL     OW72235   1.130   0.687   1.367 -0.7420  0.3746  0.4200
23456SOL    HW172236   1.171   0.665   1.451 -0.5093 -2.2746 -0.2901
23456SOL    HW272237   1.038   0.700   1.388 -0.5988  0.2512  1.1718
23457SOL     OW72238   0.987   5.443   6.495  0.6691  0.1865 -0.2179
23457SOL    HW172239   0.996   5.474   6.405  0.8519 -0.1702 -0.3248
23457SOL    HW272240   1.076   5.443   6.529  0.3161  3.3576  1.0101
23458SOL     OW72241   7.132   7.370   8.182  0.0946  0.2357  0.8572
23458SOL    HW172242   7.190   7.325   8.121 -0.7820 -0.6626  0.6601
23458SOL    HW272243   7.187   7.438   8.222  0.4704  1.4258 -1.5208
23459SOL     OW72244   3.414   3.433   8.951 -0.0657 -0.3148 -0.6601
23459SOL    HW172245   3.466   3.507   8.921 -1.3160  0.5982 -0.6266
23459SOL    HW272246   3.477   3.375   8.995  0.6534  1.5562  0.8893
23460SOL     OW72247   5.323   2.843   0.650  0.1010 -0.1204  0.2983
23460SOL    HW172248   5.301   2.850   0.742  0.9977 -0.9902  0.6001
23460SOL    HW272249   5.316   2.750   0.630 -0.1139  0.0577 -0.5260
23461SOL     OW72250   0.572   4.937   2.739 -0.2417 -0.1803 -0.5213
23461SOL    HW172251   0.538   4.863   2.789 -1.7756  0.4115 -0.6566
23461SOL    HW272252   0.495   4.982   2.707  0.6532 -0.4897 -3.3985
23462SOL     OW72253   2.599   0.503   4.683 -0.3195 -0.4397 -0.4770
23462SOL    HW172254   2.621   0.596   4.676 -0.1858 -0.4135  0.2349
23462SOL    HW272255   2.654   0.461   4.617 -0.0009 -0.0754 -0.4515
23463SOL     OW72256   1.076   4.880   5.071  0.5681 -0.0883 -0.2045
23463SOL    HW172257   1.097   4.859   4.980  0.9876 -2.0457  0.2957
23463SOL    HW272258   1.154   4.923   5.104  0.0605  1.5209 -0.9956
23464SOL     OW72259   4.633   3.806   4.209 -0.1372  0.4914  0.0990
23464SOL    HW172260   4.693   3.823   4.137 -0.2681  0.1048 -0.1039
23464SOL    HW272261   4.602   3.716   4.194 -1.6091  1.0542 -0.4218
23465SOL     OW72262   6.794   2.865   7.915  0.1627 -0.0249  0.4701
23465SOL    HW172263   6.854   2.939   7.921  1.3363 -0.5124 -3.0462
23465SOL    HW272264   6.850   2.788   7.931 -0.0036 -0.3431 -0.4063
23466SOL     OW72265   2.464   7.018   1.677  0.2868  0.1883  0.0870
23466SOL    HW172266   2.497   7.044   1.591 -1.9243 -0.3924 -1.0182
23466SOL    HW272267   2.415   7.094   1.708  1.2340  0.4661  0.9601
23467SOL     OW72268   3.104   0.834   8.106  0.1905  0.6092 -0.6032
23467SOL    HW172269   3.187   0.878   8.124 -0.9584  2.3705  0.6490
23467SOL    HW272270   3.097   0.832   8.011  1.9702 -0.2361 -0.7618
23468SOL     OW72271   2.640   1.181   8.471  0.0342 -0.1541 -0.1747
23468SOL    HW172272   2.716   1.227   8.505  0.7070 -1.1223 -0.3235
23468SOL    HW272273   2.598   1.243   8.411 -0.9092  1.4251  1.9942
23469SOL     OW72274   8.748   2.808   4.779  0.1811  0.0246 -0.8091
23469SOL    HW172275   8.745   2.722   4.821  1.3664  0.2946 -0.1248
23469SOL    HW272276   8.762   2.870   4.850  2.2318  0.4946 -1.5351
23470SOL     OW72277   2.504   3.873   1.673 -0.5315 -0.2237  0.0369
23470SOL    HW172278   2.443   3.936   1.635  0.3009  1.3890  1.2212
23470SOL    HW272279   2.519   3.906   1.762  1.5312 -0.9301  0.0014
23471SOL     OW72280   8.270   0.160   3.760 -0.0806  0.7893 -0.2967
23471SOL    HW172281   8.189   0.115   3.737  0.2430  0.7994 -1.5135
23471SOL    HW272282   8.282   0.141   3.853 -1.7373  1.2160  0.0390
23472SOL     OW72283   1.613   4.306   4.599 -0.0200  0.0405 -0.4097
23472SOL    HW172284   1.687   4.246   4.600 -1.0320 -1.2533  0.0969
23472SOL    HW272285   1.592   4.320   4.692  0.1541  1.1387 -0.5241
23473SOL     OW72286   4.577   6.871   3.317  0.5701  0.2716  0.3383
23473SOL    HW172287   4.575   6.900   3.226 -1.7427 -0.7364 -0.0229
23473SOL    HW272288   4.572   6.775   3.311 -0.3459  0.2262  1.5000
23474SOL     OW72289   5.448   6.149   0.943 -0.0140  0.2031  0.7503
23474SOL    HW172290   5.505   6.204   0.888  0.4064 -0.3022  0.6685
23474SOL    HW272291   5.419   6.079   0.885 -0.5483  0.3362  0.8549
23475SOL     OW72292   5.610   4.036   3.179 -0.2993 -0.3617  0.2934
23475SOL    HW172293   5.580   4.115   3.134 -0.0660  1.2100  2.7314
23475SOL    HW272294   5.701   4.056   3.202 -1.2530  0.2803  4.0958
23476SOL     OW72295   4.756   0.251   3.144  0.1404  0.3668 -0.6418
23476SOL    HW172296   4.845   0.287   3.153  0.2201  0.1683 -0.6045
23476SOL    HW272297   4.704   0.301   3.206  0.4991 -0.3636  0.2897
23477SOL     OW72298   3.738   5.774   2.506 -0.3248  1.0984  0.6037
23477SOL    HW172299   3.663   5.753   2.563  0.0028  0.0549  0.6856
23477SOL    HW272300   3.700   5.781   2.419 -0.2921 -1.6704  0.2523
23478SOL     OW72301   8.889   1.174   4.365  0.0813  0.6647 -0.1769
23478SOL    HW172302   8.893   1.111   4.437 -0.4168 -0.2995 -0.9585
23478SOL    HW272303   8.801   1.211   4.370  0.2357  1.0025  0.0418
23479SOL     OW72304   3.043   7.884   2.821  0.1750 -0.1134 -0.0696
23479SOL    HW172305   3.113   7.944   2.796 -0.3545 -0.2080 -1.9634
23479SOL    HW272306   3.082   7.827   2.887  1.9998 -0.3961 -1.3181
23480SOL     OW72307   6.976   3.141   5.954 -0.3844 -0.3465  0.1800
23480SOL    HW172308   7.015   3.169   5.871 -0.8787 -2.0328 -0.6647
23480SOL    HW272309   6.887   3.175   5.952 -0.6322 -1.0032 -0.3395
23481SOL     OW72310   0.093   1.183   5.941 -0.2911 -0.3274 -0.3451
23481SOL    HW172311   0.180   1.219   5.931 -0.0220 -1.1015 -0.9133
23481SOL    HW272312   0.104   1.089   5.926 -1.3926 -0.2992 -1.5005
23482SOL     OW72313   5.445   1.594   2.919  0.3351 -0.7600 -0.1564
23482SOL    HW172314   5.456   1.581   3.014 -0.4608  0.2723  0.1064
23482SOL    HW272315   5.529   1.569   2.881  0.9627 -0.3664  0.9222
23483SOL     OW72316   0.395   5.123   6.290  0.7128 -0.4964 -0.4281
23483SOL    HW172317   0.443   5.057   6.340 -0.3625 -0.4531  0.7003
23483SOL    HW272318   0.322   5.076   6.251 -1.9933  0.4421  3.0080
23484SOL     OW72319   1.356   0.135   6.587 -0.0559  0.1492  0.2936
23484SOL    HW172320   1.268   0.167   6.572 -0.6798 -1.6005 -0.1078
23484SOL    HW272321   1.354   0.101   6.676  0.1838  0.0304  0.2546
23485SOL     OW72322   5.284   0.209   2.480 -0.2969  0.3082  0.0865
23485SOL    HW172323   5.192   0.230   2.469 -0.5698 -1.6299 -2.3429
23485SOL    HW272324   5.329   0.293   2.468 -1.6475  0.9870 -0.4750
23486SOL     OW72325   0.637   1.250   8.324 -0.2395 -0.1840  0.1370
23486SOL    HW172326   0.696   1.298   8.265  0.3069  1.5411  1.9519
23486SOL    HW272327   0.554   1.246   8.277  0.0438  1.5357 -0.6068
23487SOL     OW72328   5.123   3.709   2.114 -0.6370 -0.1450 -0.2802
23487SOL    HW172329   5.169   3.793   2.123  0.6813 -0.7501 -1.0708
23487SOL    HW272330   5.190   3.643   2.132 -1.0925 -1.0671 -1.7841
23488SOL     OW72331   0.944   8.469   1.969  0.3849 -0.5900 -0.3375
23488SOL    HW172332   0.952   8.374   1.977 -0.6165 -0.7260 -0.7793
23488SOL    HW272333   0.937   8.500   2.060  1.9663 -0.7931 -0.1237
23489SOL     OW72334   2.724   1.828   4.495  0.1068 -0.2144 -0.6576
23489SOL    HW172335   2.681   1.853   4.577 -1.4468 -3.2584 -0.3956
23489SOL    HW272336   2.659   1.847   4.427  0.0742 -0.7566 -0.7823
23490SOL     OW72337   5.739   0.614   2.518  0.1089 -0.3807 -0.2119
23490SOL    HW172338   5.692   0.676   2.462  1.3299  0.5129 -0.2913
23490SOL    HW272339   5.715   0.638   2.607  1.5968  1.1368 -0.1681
23491SOL     OW72340   3.842   2.263   1.271  0.3706 -0.0023 -0.0537
23491SOL    HW172341   3.896   2.325   1.320 -1.0983 -0.7340  2.7239
23491SOL    HW272342   3.763   2.313   1.249  0.5428  0.0010 -0.6605
23492SOL     OW72343   8.243   4.955   5.248  0.5894 -0.1137  0.5039
23492SOL    HW172344   8.205   4.971   5.161  0.0731 -0.6057  0.6318
23492SOL    HW272345   8.213   4.867   5.271 -0.2688  0.4707  1.6877
23493SOL     OW72346   0.354   2.491   8.704  0.9262 -0.3014 -0.3045
23493SOL    HW172347   0.285   2.557   8.705 -0.0251 -1.2653  1.1712
23493SOL    HW272348   0.392   2.494   8.792  0.8003 -1.7650 -0.1717
23494SOL     OW72349   5.675   2.906   0.163 -0.2241  0.0496  0.0788
23494SOL    HW172350   5.660   2.995   0.131 -1.5462 -0.0374  0.3637
23494SOL    HW272351   5.715   2.860   0.089 -1.6880  0.2957 -0.9092
23495SOL     OW72352   6.579   1.908   7.855 -0.0947  0.7171 -0.0530
23495SOL    HW172353   6.564   1.816   7.835 -0.0669  0.5095  0.8629
23495SOL    HW272354   6.548   1.954   7.777 -1.5985  0.0428  0.1126
23496SOL     OW72355   4.523   4.099   2.065  0.6805  0.1239 -0.0101
23496SOL    HW172356   4.601   4.105   2.122  0.4955  2.5978  0.1051
23496SOL    HW272357   4.524   4.181   2.016 -1.2198 -0.3394 -0.8785
23497SOL     OW72358   3.160   0.298   3.675  0.5465 -0.1156 -0.2825
23497SOL    HW172359   3.195   0.384   3.699  0.6534 -0.1819 -0.1959
23497SOL    HW272360   3.236   0.250   3.642  0.8691 -0.7760  1.3245
23498SOL     OW72361   7.488   2.975   0.956  0.0981 -0.5891  0.1400
23498SOL    HW172362   7.503   2.948   1.047  0.5774  0.0654  0.2636
23498SOL    HW272363   7.496   3.070   0.958 -1.5771 -0.4056 -0.2706
23499SOL     OW72364   1.282   5.925   1.803 -0.7605  0.0265 -0.2813
23499SOL    HW172365   1.201   5.876   1.820 -1.2080  0.9352  0.3065
23499SOL    HW272366   1.314   5.948   1.890 -1.8131  2.7354 -0.5174
23500SOL     OW72367   2.221   4.723   8.637 -0.2895  0.1911 -0.2262
23500SOL    HW172368   2.258   4.712   8.725 -2.1647 -3.3093  0.3036
23500SOL    HW272369   2.146   4.782   8.650  0.3580  0.9437  0.1792
23501SOL     OW72370   8.783   5.718   6.866 -0.2020  0.2263 -0.1262
23501SOL    HW172371   8.760   5.797   6.916  0.7441 -0.3586  1.2959
23501SOL    HW272372   8.829   5.751   6.789 -0.1113  1.0846  0.2801
23502NA      NA72373   1.580   3.553   3.288  0.0832 -0.2351  0.3213
23503NA      NA72374   4.944   5.591   3.134  0.0281 -0.1613  0.3116
23504NA      NA72375   5.523   3.139   0.577 -0.3247  0.2451  0.1840
23505NA      NA72376   1.339   0.320   2.040 -0.3790  0.0352 -0.0378
23506NA      NA72377   6.438   2.084   1.755 -0.7403 -0.0972 -0.3318
23507NA      NA72378   5.618   1.664   6.949 -0.1469 -0.0861 -0.2697
23508NA      NA72379   1.176   6.133   3.012  0.3901  0.3556  0.2053
23509NA      NA72380   0.293   0.465   3.585 -0.1101  0.0707  0.3481
23510NA      NA72381   2.563   5.597   5.338  0.0224 -0.1590  0.1246
23511NA      NA72382   3.372   0.720   0.904  0.4716 -0.3221  0.2562
23512NA      NA72383   0.430   4.008   7.642  0.0554 -0.9807 -0.2653
23513NA      NA72384   2.754   4.543   7.872  0.0331 -0.1430 -0.2491
23514NA      NA72385   5.517   6.122   1.137  0.5272 -0.2097  0.4116
23515NA      NA72386   8.224   5.837   2.292  0.2332 -0.2923 -0.1154
23516NA      NA72387   0.244   2.199   5.513  0.2912  0.5463 -0.5986
23517NA      NA72388   8.377   2.829   0.248 -0.2037  0.2217  0.4557
23518NA      NA72389   0.263   6.561   4.368 -0.0281  0.2670 -0.1055
23519NA      NA72390   3.813   5.815   6.838 -0.0556 -0.1681 -0.0347
23520NA      NA72391   7.281   3.461   5.229  0.4488  0.4542  0.2691
23521NA      NA72392   2.733   7.770   1.580 -0.4004 -0.2348 -0.2789
23522NA      NA72393   3.152   2.419   1.022  0.1329  0.6504  0.3546
23523NA      NA72394   1.335   3.638   7.317  0.1590 -0.2447  0.4968
23524NA      NA72395   4.358   4.133   4.671  0.0049 -0.1348 -0.1297
23525NA      NA72396   0.153   8.103   2.450 -0.0368 -0.0055  0.0202
23526NA      NA72397   7.440   0.759   4.371 -0.0202 -0.2518 -0.2329
23527NA      NA72398   7.343   2.976   1.666  0.2912  0.0492  0.1152
23528NA      NA72399   8.853   7.621   4.147 -0.2410 -0.0527  0.2842
23529NA      NA72400   8.030   3.872   6.562 -0.1588  0.4867 -0.2755
23530NA      NA72401   8.748   4.576   8.952 -0.1586 -0.2524 -0.0105
23531NA      NA72402   7.804   4.030   0.161 -0.1692 -0.1411  0.1053
23532NA      NA72403   0.842   8.313   4.514 -0.0063 -0.0028  0.6548
23533NA      NA72404   1.666   0.100   1.178 -0.1298 -0.0194  0.1008
23534NA      NA72405   0.624   7.208   3.947  0.0510 -0.2510  0.4191
23535NA      NA72406   2.659   7.902   4.212 -0.2622  0.3478 -0.3276
23536NA      NA72407   4.549   3.620   7.254 -0.3937 -0.2606  0.9627
23537NA      NA72408   1.053   4.034   8.226 -0.1571  0.0245 -0.5461
23538NA      NA72409   7.835   4.998   4.814 -0.0501 -0.1493 -0.0989
23539NA      NA72410   0.425   3.077   5.040 -0.2793 -0.1884  0.0307
23540NA      NA72411   4.306   7.619   7.406 -0.2421  0.2476 -0.0415
23541NA      NA72412   1.898   6.626   8.002 -0.2064 -0.7113 -0.1722
23542NA      NA72413   7.453   3.077   8.789  0.6641  0.0747  0.3386
23543NA      NA72414   1.959   7.585   2.476  0.4138 -0.0076 -0.2903
23544NA      NA72415   4.640   5.258   6.198  0.2797 -0.3809  0.3797
23545NA      NA72416   8.916   0.550   2.784 -0.6641 -0.1338  0.0330
23546NA      NA72417   2.751   7.310   6.309 -0.0527  0.7702  0.2389
23547NA      NA72418   0.007   0.974   2.064 -0.0300 -0.1575  0.5214
23548NA      NA72419   0.770   1.857   5.411  0.3562  0.0033  0.1607
23549NA      NA72420   2.644   0.048   1.458  0.1904 -0.2967  0.0667
23550NA      NA72421   8.394   4.191   3.897  0.0114  0.0041 -0.2092
23551NA      NA72422   3.958   4.997   5.537  0.4121 -0.2910 -0.0646
23552NA      NA72423   5.048   2.916   7.411  0.0670 -0.1183 -0.6824
23553NA      NA72424   7.224   1.909   8.974  0.0415 -0.0905  0.4469
23554NA      NA72425   3.353   8.363   8.446 -0.1994  0.2182  0.1772
23555NA      NA72426   6.809   4.453   1.163 -0.0902  0.4085  0.2011
23556NA      NA72427   1.996   8.456   6.745 -0.0926 -0.2285 -0.2732
23557NA      NA72428   0.354   2.974   0.602 -0.3286  0.5917 -0.8078
23558NA      NA72429   2.565   4.022   5.755  0.0148 -0.1676  0.0465
23559NA      NA72430   2.291   8.838   4.304 -0.0501 -0.1526 -0.0101
23560NA      NA72431   1.610   0.785   3.244  0.1110 -0.0377  0.1580
23561NA      NA72432   0.691   3.662   3.152 -0.2231  0.2020  0.0121
23562NA      NA72433   6.391   6.307   8.785  0.6648 -0.2765  0.3324
23563NA      NA72434   0.463   1.696   3.579  0.1165 -0.0201 -0.0357
23564NA      NA72435   2.443   3.274   3.848  0.5534 -0.9409 -0.2391
23565NA      NA72436   5.999   6.610   6.266  0.0588 -0.2751  0.2012
23566NA      NA72437   8.989   4.513   1.602 -0.2354 -0.2168 -0.2012
23567NA      NA72438   1.785   6.417   3.468  0.1271 -0.1391  0.0908
23568NA      NA72439   0.781   6.717   3.402 -0.0120 -0.0714  0.1567
23569CL      CL72440   8.443   1.908   2.433 -0.0937  0.1486 -0.5103
23570CL      CL72441   3.315   1.359   7.684  0.2074  0.2114 -0.1556
23571CL      CL72442   7.124   7.663   4.486 -0.0029 -0.2517  0.0245
23572CL      CL72443   0.762   2.308   5.565  0.4450 -0.1906 -0.2017
23573CL      CL72444   1.931   8.103   6.096  0.4541  0.1393  0.1939
23574CL      CL72445   8.159   5.086   0.607  0.0316  0.3939  0.2398
23575CL      CL72446   5.216   5.298   7.915  0.1144  0.1411 -0.1715
23576CL      CL72447   8.055   3.044   0.486  0.0990 -0.1051 -0.0528
23577CL      CL72448   7.995   0.476   0.238 -0.3156 -0.1883  0.0170
23578CL      CL72449   2.621   3.533   3.449 -0.0571 -0.1439 -0.0813
23579CL      CL72450   1.278   6.027   4.300 -0.1724  0.4261  0.1016
23580CL      CL72451   7.803   0.843   4.029 -0.1511 -0.3071 -0.0657
23581CL      CL72452   3.521   0.952   2.340 -0.1636  0.0297 -0.0402
23582CL      CL72453   1.180   0.996   0.492  0.3302  0.1574 -0.3564
23583CL      CL72454   1.423   0.733   7.083  0.0221 -0.0195  0.0107
23584CL      CL72455   7.554   1.082   4.822  0.3066  0.0326 -0.0883
23585CL      CL72456   0.420   1.104   2.089  0.3510  0.1889  0.3116
23586CL      CL72457   5.015   2.124   7.455  0.5292  0.1052  0.2408
23587CL      CL72458   4.343   8.260   6.514 -0.4903  0.3491 -0.4388
23588CL      CL72459   3.389   5.267   2.170 -0.1659 -0.0867 -0.0586
23589CL      CL72460   7.107   1.772   8.460  0.0177  0.0206  0.0707
23590CL      CL72461   4.667   1.349   6.282 -0.0033 -0.2144 -0.0259
23591CL      CL72462   3.273   7.179   3.616  0.0954  0.4065 -0.3738
23592CL      CL72463   8.345   3.154   6.994  0.0012 -0.0374 -0.8441
23593CL      CL72464   2.962   5.899   0.493 -0.3072  0.1256 -0.2803
23594CL      CL72465   0.962   6.218   3.121 -0.1335  0.0057  0.0483
23595CL      CL72466   1.886   7.101   5.079 -0.3413 -0.4390 -0.4505
23596CL      CL72467   0.375   3.630   8.635 -0.3135 -0.2190  0.2130
23597CL      CL72468   2.120   2.615   2.838 -0.3769 -0.2534  0.6544
23598CL      CL72469   7.003   2.884   8.753  0.1981 -0.0138  0.0882
23599CL      CL72470   0.193   5.992   4.783  0.0029 -0.0441  0.2439
23600CL      CL72471   8.787   7.517   0.758 -0.0569 -0.2845 -0.0399
23601CL      CL72472   0.456   7.871   4.774  0.0143  0.1256  0.3049
23602CL      CL72473   3.198   5.016   7.552  0.3481  0.2840  0.1697
23603CL      CL72474   2.739   7.373   8.173 -0.1594  0.2082  0.1016
23604CL      CL72475   3.978   5.630   6.809 -0.0361 -0.3918 -0.0522
23605CL      CL72476   4.012   6.326   4.481  0.3379  0.2184  0.1907
23606CL      CL72477   6.376   2.008   8.480  0.0860  0.3020  0.1870
23607CL      CL72478   8.650   2.052   4.968  0.1726  0.2629 -0.0615
23608CL      CL72479   2.590   3.640   0.841  0.3796  0.1417  0.2615
23609CL      CL72480   2.352   1.317   8.938 -0.1737  0.3539 -0.1620
23610CL      CL72481   7.394   5.289   3.719 -0.1449 -0.1019 -0.1728
23611CL      CL72482   5.541   4.622   8.722 -0.2693 -0.7378  0.1925
23612CL      CL72483   3.447   6.482   5.655  0.0448  0.2082  0.2481
23613CL      CL72484   3.948   7.587   8.045 -0.1206  0.0593  0.0247
23614CL      CL72485   0.610   5.557   3.743 -0.1613 -0.3023 -0.7069
23615CL      CL72486   1.160   6.534   1.414  0.0974 -0.1027 -0.3341
23616CL      CL72487   1.330   6.248   7.872 -0.0118  0.3363 -0.0751
23617CL      CL72488   3.089   8.721   2.889  0.3992 -0.1460  0.2226
23618CL      CL72489   7.126   6.307   7.752 -0.0117  0.5300 -0.2840
23619CL      CL72490   0.038   4.321   6.825  0.2504 -0.5387 -0.3061
23620CL      CL72491   4.133   1.087   2.840 -0.1735 -0.2017 -0.0316
23621CL      CL72492   4.423   3.063   4.490 -0.5131  0.3304 -0.0690
23622CL      CL72493   2.160   3.088   7.933 -0.1546  0.2435  0.3457
23623CL      CL72494   5.140   2.885   1.821 -0.0655 -0.0170 -0.2997
23624CL      CL72495   7.830   4.226   2.553  0.2517 -0.6364  0.3735
23625CL      CL72496   7.664   6.023   3.115  0.0953  0.0281  0.1690
23626CL      CL72497   3.928   2.113   0.278  0.1307 -0.5484  0.0593
23627CL      CL72498   7.801   3.356   5.189 -0.1245  0.0096  0.1459
23628CL      CL72499   7.816   4.421   1.627 -0.1815 -0.0471 -0.3127
23629CL      CL72500   2.883   8.373   1.013  0.2153  0.0478 -0.2819
23630CL      CL72501   8.761   0.542   4.753 -0.5567 -0.1814 -0.3813
23631CL      CL72502   8.059   5.004   4.937  0.2812  0.0647  0.3522
23632CL      CL72503   2.615   0.566   5.833  0.0837 -0.1870 -0.1699
23633CL      CL72504   4.622   5.454   5.290  0.3285  0.2956 -0.2858
23634CL      CL72505   8.244   6.453   6.762  0.0032 -0.6314 -0.6167
23635CL      CL72506   8.404   0.236   2.372 -0.1696 -0.1603 -0.1073
   8.99998   8.99998   8.99998
