;
;   File g4pocore_petim.itp  was generated
;   By user: sairam (1000)
;   On host: sairam
;   At date: Wed. August  3 16:47:02 2023
;
;   This is a standalone topology file
;
;   Created by:
;   ParmEd:       amb2gro_top_gro.py, VERSION 3.4.1
;   Executable:   amb2gro_top_gro.py
;   Library dir:  /usr/local/gromacs/share/gromacs/top
;   Command line:
;     ./amb2gro_top_gro.py -p g4pocore_petim.prmtop -c g4pocore_petim.inpcrd -t g4pocore_petim.itp -g g4pocore_petim.gro -b g4pocore_petim.pdb
;

;[ defaults ]
;; nbfunc        comb-rule       gen-pairs       fudgeLJ fudgeQQ
;1               2               yes             0.5          0.83333333  
;
;[ atomtypes ]
;; name    at.num    mass    charge ptype  sigma      epsilon
;os             8  16.000000  0.00000000  A     0.30000123        0.71128
;c3             6  12.010000  0.00000000  A     0.33996695      0.4577296
;h1             1   1.008000  0.00000000  A      0.2471353      0.0656888
;hc             1   1.008000  0.00000000  A     0.26495328      0.0656888
;n3             7  14.010000  0.00000000  A     0.32499985        0.71128
;hx             1   1.008000  0.00000000  A     0.19599772      0.0656888
;n4             7  14.010000  0.00000000  A     0.32499985        0.71128
;hn             1   1.008000  0.00000000  A     0.10690785      0.0656888


[ moleculetype ]
; Name            nrexcl
g4pocore_petim   3

[ atoms ]
;   nr       type  resnr residue  atom   cgnr    charge       mass  typeB    chargeB      massB
; residue    1 aaa rtp aaa q -0.0
    1         os      1    aaa     O1      1 -0.43807400  16.000000   ; qtot -0.438074
    2         c3      1    aaa     C1      2 0.04509800  12.010000   ; qtot -0.392976
    3         h1      1    aaa     H1      3 0.04771700   1.008000   ; qtot -0.345259
    4         h1      1    aaa     H2      4 0.04771700   1.008000   ; qtot -0.297542
    5         c3      1    aaa     C2      5 0.04509800  12.010000   ; qtot -0.252444
    6         h1      1    aaa     H3      6 0.04771700   1.008000   ; qtot -0.204727
    7         h1      1    aaa     H4      7 0.04771700   1.008000   ; qtot -0.157010
    8         c3      1    aaa     C3      8 0.05658600  12.010000   ; qtot -0.100424
    9         hc      1    aaa     H5      9 0.04933800   1.008000   ; qtot -0.051086
   10         hc      1    aaa     H6     10 0.04933800   1.008000   ; qtot -0.001748
   11         c3      1    aaa     C4     11 0.05658600  12.010000   ; qtot 0.054838
   12         hc      1    aaa     H7     12 0.04933800   1.008000   ; qtot 0.104176
   13         hc      1    aaa     H8     13 0.04933800   1.008000   ; qtot 0.153514
   14         c3      1    aaa     C5     14 0.00989700  12.010000   ; qtot 0.163411
   15         h1      1    aaa     H9     15 0.04845500   1.008000   ; qtot 0.211866
   16         h1      1    aaa    H10     16 0.04845500   1.008000   ; qtot 0.260321
   17         c3      1    aaa     C6     17 0.00989700  12.010000   ; qtot 0.270218
   18         h1      1    aaa    H11     18 0.04845500   1.008000   ; qtot 0.318673
   19         h1      1    aaa    H12     19 0.04845500   1.008000   ; qtot 0.367128
   20         n3      1    aaa     N1     20 -0.59936800  14.010000   ; qtot -0.232240
   21         n3      1    aaa     N2     21 -0.59936800  14.010000   ; qtot -0.831608
   22         c3      1    aaa     C7     22 0.08030200  12.010000   ; qtot -0.751306
   23         h1      1    aaa    H13     23 0.05071600   1.008000   ; qtot -0.700590
   24         h1      1    aaa    H14     24 0.05071600   1.008000   ; qtot -0.649874
   25         c3      1    aaa     C8     25 0.08030200  12.010000   ; qtot -0.569572
   26         h1      1    aaa    H15     26 0.05071600   1.008000   ; qtot -0.518856
   27         h1      1    aaa    H16     27 0.05071600   1.008000   ; qtot -0.468140
   28         c3      1    aaa     C9     28 0.08030200  12.010000   ; qtot -0.387838
   29         h1      1    aaa    H17     29 0.05071600   1.008000   ; qtot -0.337122
   30         h1      1    aaa    H18     30 0.05071600   1.008000   ; qtot -0.286406
   31         c3      1    aaa    C10     31 0.08030200  12.010000   ; qtot -0.206104
   32         h1      1    aaa    H19     32 0.05071600   1.008000   ; qtot -0.155388
   33         h1      1    aaa    H20     33 0.05071600   1.008000   ; qtot -0.104672
   34         c3      1    aaa    C11     34 0.10287800  12.010000   ; qtot -0.001794
   35         hc      1    aaa    H21     35 0.06787400   1.008000   ; qtot 0.066080
   36         hc      1    aaa    H22     36 0.06787400   1.008000   ; qtot 0.133954
   37         c3      1    aaa    C12     37 0.10287800  12.010000   ; qtot 0.236832
   38         hc      1    aaa    H23     38 0.06787400   1.008000   ; qtot 0.304706
   39         hc      1    aaa    H24     39 0.06787400   1.008000   ; qtot 0.372580
   40         c3      1    aaa    C13     40 0.10287800  12.010000   ; qtot 0.475458
   41         hc      1    aaa    H25     41 0.06787400   1.008000   ; qtot 0.543332
   42         hc      1    aaa    H26     42 0.06787400   1.008000   ; qtot 0.611206
   43         c3      1    aaa    C14     43 0.10287800  12.010000   ; qtot 0.714084
   44         hc      1    aaa    H27     44 0.06787400   1.008000   ; qtot 0.781958
   45         hc      1    aaa    H28     45 0.06787400   1.008000   ; qtot 0.849832
   46         c3      1    aaa    C15     46 -0.72585200  12.010000   ; qtot 0.123980
   47         h1      1    aaa    H29     47 0.25669700   1.008000   ; qtot 0.380677
   48         h1      1    aaa    H30     48 0.25669700   1.008000   ; qtot 0.637374
   49         c3      1    aaa    C16     49 -0.72585200  12.010000   ; qtot -0.088478
   50         h1      1    aaa    H31     50 0.25669700   1.008000   ; qtot 0.168219
   51         h1      1    aaa    H32     51 0.25669700   1.008000   ; qtot 0.424916
   52         c3      1    aaa    C17     52 -0.72585200  12.010000   ; qtot -0.300936
   53         h1      1    aaa    H33     53 0.25669700   1.008000   ; qtot -0.044239
   54         h1      1    aaa    H34     54 0.25669700   1.008000   ; qtot 0.212458
   55         c3      1    aaa    C18     55 -0.72585200  12.010000   ; qtot -0.513394
   56         h1      1    aaa    H35     56 0.25669700   1.008000   ; qtot -0.256697
   57         h1      1    aaa    H36     57 0.25669700   1.008000   ; qtot -0.000000
; residue    2 bbb rtp bbb q -0.0
   58         n3      2    bbb     N1     58 -0.59685800  14.010000   ; qtot -0.596858
   59         c3      2    bbb     C1     59 0.10137000  12.010000   ; qtot -0.495488
   60         h1      2    bbb     H1     60 0.04411300   1.008000   ; qtot -0.451375
   61         h1      2    bbb     H2     61 0.04411300   1.008000   ; qtot -0.407262
   62         c3      2    bbb     C2     62 0.10137000  12.010000   ; qtot -0.305892
   63         h1      2    bbb     H3     63 0.04411300   1.008000   ; qtot -0.261779
   64         h1      2    bbb     H4     64 0.04411300   1.008000   ; qtot -0.217666
   65         c3      2    bbb     C3     65 -0.00195300  12.010000   ; qtot -0.219619
   66         h1      2    bbb     H5     66 0.05064400   1.008000   ; qtot -0.168975
   67         h1      2    bbb     H6     67 0.05064400   1.008000   ; qtot -0.118331
   68         c3      2    bbb     C4     68 -0.01612100  12.010000   ; qtot -0.134452
   69         hc      2    bbb     H7     69 0.04936100   1.008000   ; qtot -0.085091
   70         hc      2    bbb     H8     70 0.04936100   1.008000   ; qtot -0.035730
   71         c3      2    bbb     C5     71 0.11363000  12.010000   ; qtot 0.077900
   72         hc      2    bbb     H9     72 0.06265900   1.008000   ; qtot 0.140559
   73         hc      2    bbb    H10     73 0.06265900   1.008000   ; qtot 0.203218
   74         c3      2    bbb     C6     74 0.11363000  12.010000   ; qtot 0.316848
   75         hc      2    bbb    H11     75 0.06265900   1.008000   ; qtot 0.379507
   76         hc      2    bbb    H12     76 0.06265900   1.008000   ; qtot 0.442166
   77         c3      2    bbb     C7     77 0.05858200  12.010000   ; qtot 0.500748
   78         h1      2    bbb    H13     78 0.06123400   1.008000   ; qtot 0.561982
   79         h1      2    bbb    H14     79 0.06123400   1.008000   ; qtot 0.623216
   80         c3      2    bbb     C8     80 -0.72423400  12.010000   ; qtot -0.101018
   81         h1      2    bbb    H15     81 0.25637600   1.008000   ; qtot 0.155358
   82         h1      2    bbb    H16     82 0.25637600   1.008000   ; qtot 0.411734
   83         c3      2    bbb     C9     83 -0.72423400  12.010000   ; qtot -0.312500
   84         h1      2    bbb    H17     84 0.25637600   1.008000   ; qtot -0.056124
   85         h1      2    bbb    H18     85 0.25637600   1.008000   ; qtot 0.200252
   86         os      2    bbb     O1     86 -0.20025300  16.000000   ; qtot -0.000001
; residue    3 bbb rtp bbb q -0.0
   87         n3      3    bbb     N1     87 -0.59685800  14.010000   ; qtot -0.596859
   88         c3      3    bbb     C1     88 0.10137000  12.010000   ; qtot -0.495489
   89         h1      3    bbb     H1     89 0.04411300   1.008000   ; qtot -0.451376
   90         h1      3    bbb     H2     90 0.04411300   1.008000   ; qtot -0.407263
   91         c3      3    bbb     C2     91 0.10137000  12.010000   ; qtot -0.305893
   92         h1      3    bbb     H3     92 0.04411300   1.008000   ; qtot -0.261780
   93         h1      3    bbb     H4     93 0.04411300   1.008000   ; qtot -0.217667
   94         c3      3    bbb     C3     94 -0.00195300  12.010000   ; qtot -0.219620
   95         h1      3    bbb     H5     95 0.05064400   1.008000   ; qtot -0.168976
   96         h1      3    bbb     H6     96 0.05064400   1.008000   ; qtot -0.118332
   97         c3      3    bbb     C4     97 -0.01612100  12.010000   ; qtot -0.134453
   98         hc      3    bbb     H7     98 0.04936100   1.008000   ; qtot -0.085092
   99         hc      3    bbb     H8     99 0.04936100   1.008000   ; qtot -0.035731
  100         c3      3    bbb     C5    100 0.11363000  12.010000   ; qtot 0.077899
  101         hc      3    bbb     H9    101 0.06265900   1.008000   ; qtot 0.140558
  102         hc      3    bbb    H10    102 0.06265900   1.008000   ; qtot 0.203217
  103         c3      3    bbb     C6    103 0.11363000  12.010000   ; qtot 0.316847
  104         hc      3    bbb    H11    104 0.06265900   1.008000   ; qtot 0.379506
  105         hc      3    bbb    H12    105 0.06265900   1.008000   ; qtot 0.442165
  106         c3      3    bbb     C7    106 0.05858200  12.010000   ; qtot 0.500747
  107         h1      3    bbb    H13    107 0.06123400   1.008000   ; qtot 0.561981
  108         h1      3    bbb    H14    108 0.06123400   1.008000   ; qtot 0.623215
  109         c3      3    bbb     C8    109 -0.72423400  12.010000   ; qtot -0.101019
  110         h1      3    bbb    H15    110 0.25637600   1.008000   ; qtot 0.155357
  111         h1      3    bbb    H16    111 0.25637600   1.008000   ; qtot 0.411733
  112         c3      3    bbb     C9    112 -0.72423400  12.010000   ; qtot -0.312501
  113         h1      3    bbb    H17    113 0.25637600   1.008000   ; qtot -0.056125
  114         h1      3    bbb    H18    114 0.25637600   1.008000   ; qtot 0.200251
  115         os      3    bbb     O1    115 -0.20025300  16.000000   ; qtot -0.000002
; residue    4 bbb rtp bbb q -0.0
  116         n3      4    bbb     N1    116 -0.59685800  14.010000   ; qtot -0.596860
  117         c3      4    bbb     C1    117 0.10137000  12.010000   ; qtot -0.495490
  118         h1      4    bbb     H1    118 0.04411300   1.008000   ; qtot -0.451377
  119         h1      4    bbb     H2    119 0.04411300   1.008000   ; qtot -0.407264
  120         c3      4    bbb     C2    120 0.10137000  12.010000   ; qtot -0.305894
  121         h1      4    bbb     H3    121 0.04411300   1.008000   ; qtot -0.261781
  122         h1      4    bbb     H4    122 0.04411300   1.008000   ; qtot -0.217668
  123         c3      4    bbb     C3    123 -0.00195300  12.010000   ; qtot -0.219621
  124         h1      4    bbb     H5    124 0.05064400   1.008000   ; qtot -0.168977
  125         h1      4    bbb     H6    125 0.05064400   1.008000   ; qtot -0.118333
  126         c3      4    bbb     C4    126 -0.01612100  12.010000   ; qtot -0.134454
  127         hc      4    bbb     H7    127 0.04936100   1.008000   ; qtot -0.085093
  128         hc      4    bbb     H8    128 0.04936100   1.008000   ; qtot -0.035732
  129         c3      4    bbb     C5    129 0.11363000  12.010000   ; qtot 0.077898
  130         hc      4    bbb     H9    130 0.06265900   1.008000   ; qtot 0.140557
  131         hc      4    bbb    H10    131 0.06265900   1.008000   ; qtot 0.203216
  132         c3      4    bbb     C6    132 0.11363000  12.010000   ; qtot 0.316846
  133         hc      4    bbb    H11    133 0.06265900   1.008000   ; qtot 0.379505
  134         hc      4    bbb    H12    134 0.06265900   1.008000   ; qtot 0.442164
  135         c3      4    bbb     C7    135 0.05858200  12.010000   ; qtot 0.500746
  136         h1      4    bbb    H13    136 0.06123400   1.008000   ; qtot 0.561980
  137         h1      4    bbb    H14    137 0.06123400   1.008000   ; qtot 0.623214
  138         c3      4    bbb     C8    138 -0.72423400  12.010000   ; qtot -0.101020
  139         h1      4    bbb    H15    139 0.25637600   1.008000   ; qtot 0.155356
  140         h1      4    bbb    H16    140 0.25637600   1.008000   ; qtot 0.411732
  141         c3      4    bbb     C9    141 -0.72423400  12.010000   ; qtot -0.312502
  142         h1      4    bbb    H17    142 0.25637600   1.008000   ; qtot -0.056126
  143         h1      4    bbb    H18    143 0.25637600   1.008000   ; qtot 0.200250
  144         os      4    bbb     O1    144 -0.20025300  16.000000   ; qtot -0.000003
; residue    5 bbb rtp bbb q -0.0
  145         n3      5    bbb     N1    145 -0.59685800  14.010000   ; qtot -0.596861
  146         c3      5    bbb     C1    146 0.10137000  12.010000   ; qtot -0.495491
  147         h1      5    bbb     H1    147 0.04411300   1.008000   ; qtot -0.451378
  148         h1      5    bbb     H2    148 0.04411300   1.008000   ; qtot -0.407265
  149         c3      5    bbb     C2    149 0.10137000  12.010000   ; qtot -0.305895
  150         h1      5    bbb     H3    150 0.04411300   1.008000   ; qtot -0.261782
  151         h1      5    bbb     H4    151 0.04411300   1.008000   ; qtot -0.217669
  152         c3      5    bbb     C3    152 -0.00195300  12.010000   ; qtot -0.219622
  153         h1      5    bbb     H5    153 0.05064400   1.008000   ; qtot -0.168978
  154         h1      5    bbb     H6    154 0.05064400   1.008000   ; qtot -0.118334
  155         c3      5    bbb     C4    155 -0.01612100  12.010000   ; qtot -0.134455
  156         hc      5    bbb     H7    156 0.04936100   1.008000   ; qtot -0.085094
  157         hc      5    bbb     H8    157 0.04936100   1.008000   ; qtot -0.035733
  158         c3      5    bbb     C5    158 0.11363000  12.010000   ; qtot 0.077897
  159         hc      5    bbb     H9    159 0.06265900   1.008000   ; qtot 0.140556
  160         hc      5    bbb    H10    160 0.06265900   1.008000   ; qtot 0.203215
  161         c3      5    bbb     C6    161 0.11363000  12.010000   ; qtot 0.316845
  162         hc      5    bbb    H11    162 0.06265900   1.008000   ; qtot 0.379504
  163         hc      5    bbb    H12    163 0.06265900   1.008000   ; qtot 0.442163
  164         c3      5    bbb     C7    164 0.05858200  12.010000   ; qtot 0.500745
  165         h1      5    bbb    H13    165 0.06123400   1.008000   ; qtot 0.561979
  166         h1      5    bbb    H14    166 0.06123400   1.008000   ; qtot 0.623213
  167         c3      5    bbb     C8    167 -0.72423400  12.010000   ; qtot -0.101021
  168         h1      5    bbb    H15    168 0.25637600   1.008000   ; qtot 0.155355
  169         h1      5    bbb    H16    169 0.25637600   1.008000   ; qtot 0.411731
  170         c3      5    bbb     C9    170 -0.72423400  12.010000   ; qtot -0.312503
  171         h1      5    bbb    H17    171 0.25637600   1.008000   ; qtot -0.056127
  172         h1      5    bbb    H18    172 0.25637600   1.008000   ; qtot 0.200249
  173         os      5    bbb     O1    173 -0.20025300  16.000000   ; qtot -0.000004
; residue    6 bbb rtp bbb q -0.0
  174         n3      6    bbb     N1    174 -0.59685800  14.010000   ; qtot -0.596862
  175         c3      6    bbb     C1    175 0.10137000  12.010000   ; qtot -0.495492
  176         h1      6    bbb     H1    176 0.04411300   1.008000   ; qtot -0.451379
  177         h1      6    bbb     H2    177 0.04411300   1.008000   ; qtot -0.407266
  178         c3      6    bbb     C2    178 0.10137000  12.010000   ; qtot -0.305896
  179         h1      6    bbb     H3    179 0.04411300   1.008000   ; qtot -0.261783
  180         h1      6    bbb     H4    180 0.04411300   1.008000   ; qtot -0.217670
  181         c3      6    bbb     C3    181 -0.00195300  12.010000   ; qtot -0.219623
  182         h1      6    bbb     H5    182 0.05064400   1.008000   ; qtot -0.168979
  183         h1      6    bbb     H6    183 0.05064400   1.008000   ; qtot -0.118335
  184         c3      6    bbb     C4    184 -0.01612100  12.010000   ; qtot -0.134456
  185         hc      6    bbb     H7    185 0.04936100   1.008000   ; qtot -0.085095
  186         hc      6    bbb     H8    186 0.04936100   1.008000   ; qtot -0.035734
  187         c3      6    bbb     C5    187 0.11363000  12.010000   ; qtot 0.077896
  188         hc      6    bbb     H9    188 0.06265900   1.008000   ; qtot 0.140555
  189         hc      6    bbb    H10    189 0.06265900   1.008000   ; qtot 0.203214
  190         c3      6    bbb     C6    190 0.11363000  12.010000   ; qtot 0.316844
  191         hc      6    bbb    H11    191 0.06265900   1.008000   ; qtot 0.379503
  192         hc      6    bbb    H12    192 0.06265900   1.008000   ; qtot 0.442162
  193         c3      6    bbb     C7    193 0.05858200  12.010000   ; qtot 0.500744
  194         h1      6    bbb    H13    194 0.06123400   1.008000   ; qtot 0.561978
  195         h1      6    bbb    H14    195 0.06123400   1.008000   ; qtot 0.623212
  196         c3      6    bbb     C8    196 -0.72423400  12.010000   ; qtot -0.101022
  197         h1      6    bbb    H15    197 0.25637600   1.008000   ; qtot 0.155354
  198         h1      6    bbb    H16    198 0.25637600   1.008000   ; qtot 0.411730
  199         c3      6    bbb     C9    199 -0.72423400  12.010000   ; qtot -0.312504
  200         h1      6    bbb    H17    200 0.25637600   1.008000   ; qtot -0.056128
  201         h1      6    bbb    H18    201 0.25637600   1.008000   ; qtot 0.200248
  202         os      6    bbb     O1    202 -0.20025300  16.000000   ; qtot -0.000005
; residue    7 bbb rtp bbb q -0.0
  203         n3      7    bbb     N1    203 -0.59685800  14.010000   ; qtot -0.596863
  204         c3      7    bbb     C1    204 0.10137000  12.010000   ; qtot -0.495493
  205         h1      7    bbb     H1    205 0.04411300   1.008000   ; qtot -0.451380
  206         h1      7    bbb     H2    206 0.04411300   1.008000   ; qtot -0.407267
  207         c3      7    bbb     C2    207 0.10137000  12.010000   ; qtot -0.305897
  208         h1      7    bbb     H3    208 0.04411300   1.008000   ; qtot -0.261784
  209         h1      7    bbb     H4    209 0.04411300   1.008000   ; qtot -0.217671
  210         c3      7    bbb     C3    210 -0.00195300  12.010000   ; qtot -0.219624
  211         h1      7    bbb     H5    211 0.05064400   1.008000   ; qtot -0.168980
  212         h1      7    bbb     H6    212 0.05064400   1.008000   ; qtot -0.118336
  213         c3      7    bbb     C4    213 -0.01612100  12.010000   ; qtot -0.134457
  214         hc      7    bbb     H7    214 0.04936100   1.008000   ; qtot -0.085096
  215         hc      7    bbb     H8    215 0.04936100   1.008000   ; qtot -0.035735
  216         c3      7    bbb     C5    216 0.11363000  12.010000   ; qtot 0.077895
  217         hc      7    bbb     H9    217 0.06265900   1.008000   ; qtot 0.140554
  218         hc      7    bbb    H10    218 0.06265900   1.008000   ; qtot 0.203213
  219         c3      7    bbb     C6    219 0.11363000  12.010000   ; qtot 0.316843
  220         hc      7    bbb    H11    220 0.06265900   1.008000   ; qtot 0.379502
  221         hc      7    bbb    H12    221 0.06265900   1.008000   ; qtot 0.442161
  222         c3      7    bbb     C7    222 0.05858200  12.010000   ; qtot 0.500743
  223         h1      7    bbb    H13    223 0.06123400   1.008000   ; qtot 0.561977
  224         h1      7    bbb    H14    224 0.06123400   1.008000   ; qtot 0.623211
  225         c3      7    bbb     C8    225 -0.72423400  12.010000   ; qtot -0.101023
  226         h1      7    bbb    H15    226 0.25637600   1.008000   ; qtot 0.155353
  227         h1      7    bbb    H16    227 0.25637600   1.008000   ; qtot 0.411729
  228         c3      7    bbb     C9    228 -0.72423400  12.010000   ; qtot -0.312505
  229         h1      7    bbb    H17    229 0.25637600   1.008000   ; qtot -0.056129
  230         h1      7    bbb    H18    230 0.25637600   1.008000   ; qtot 0.200247
  231         os      7    bbb     O1    231 -0.20025300  16.000000   ; qtot -0.000006
; residue    8 bbb rtp bbb q -0.0
  232         n3      8    bbb     N1    232 -0.59685800  14.010000   ; qtot -0.596864
  233         c3      8    bbb     C1    233 0.10137000  12.010000   ; qtot -0.495494
  234         h1      8    bbb     H1    234 0.04411300   1.008000   ; qtot -0.451381
  235         h1      8    bbb     H2    235 0.04411300   1.008000   ; qtot -0.407268
  236         c3      8    bbb     C2    236 0.10137000  12.010000   ; qtot -0.305898
  237         h1      8    bbb     H3    237 0.04411300   1.008000   ; qtot -0.261785
  238         h1      8    bbb     H4    238 0.04411300   1.008000   ; qtot -0.217672
  239         c3      8    bbb     C3    239 -0.00195300  12.010000   ; qtot -0.219625
  240         h1      8    bbb     H5    240 0.05064400   1.008000   ; qtot -0.168981
  241         h1      8    bbb     H6    241 0.05064400   1.008000   ; qtot -0.118337
  242         c3      8    bbb     C4    242 -0.01612100  12.010000   ; qtot -0.134458
  243         hc      8    bbb     H7    243 0.04936100   1.008000   ; qtot -0.085097
  244         hc      8    bbb     H8    244 0.04936100   1.008000   ; qtot -0.035736
  245         c3      8    bbb     C5    245 0.11363000  12.010000   ; qtot 0.077894
  246         hc      8    bbb     H9    246 0.06265900   1.008000   ; qtot 0.140553
  247         hc      8    bbb    H10    247 0.06265900   1.008000   ; qtot 0.203212
  248         c3      8    bbb     C6    248 0.11363000  12.010000   ; qtot 0.316842
  249         hc      8    bbb    H11    249 0.06265900   1.008000   ; qtot 0.379501
  250         hc      8    bbb    H12    250 0.06265900   1.008000   ; qtot 0.442160
  251         c3      8    bbb     C7    251 0.05858200  12.010000   ; qtot 0.500742
  252         h1      8    bbb    H13    252 0.06123400   1.008000   ; qtot 0.561976
  253         h1      8    bbb    H14    253 0.06123400   1.008000   ; qtot 0.623210
  254         c3      8    bbb     C8    254 -0.72423400  12.010000   ; qtot -0.101024
  255         h1      8    bbb    H15    255 0.25637600   1.008000   ; qtot 0.155352
  256         h1      8    bbb    H16    256 0.25637600   1.008000   ; qtot 0.411728
  257         c3      8    bbb     C9    257 -0.72423400  12.010000   ; qtot -0.312506
  258         h1      8    bbb    H17    258 0.25637600   1.008000   ; qtot -0.056130
  259         h1      8    bbb    H18    259 0.25637600   1.008000   ; qtot 0.200246
  260         os      8    bbb     O1    260 -0.20025300  16.000000   ; qtot -0.000007
; residue    9 bbb rtp bbb q -0.0
  261         n3      9    bbb     N1    261 -0.59685800  14.010000   ; qtot -0.596865
  262         c3      9    bbb     C1    262 0.10137000  12.010000   ; qtot -0.495495
  263         h1      9    bbb     H1    263 0.04411300   1.008000   ; qtot -0.451382
  264         h1      9    bbb     H2    264 0.04411300   1.008000   ; qtot -0.407269
  265         c3      9    bbb     C2    265 0.10137000  12.010000   ; qtot -0.305899
  266         h1      9    bbb     H3    266 0.04411300   1.008000   ; qtot -0.261786
  267         h1      9    bbb     H4    267 0.04411300   1.008000   ; qtot -0.217673
  268         c3      9    bbb     C3    268 -0.00195300  12.010000   ; qtot -0.219626
  269         h1      9    bbb     H5    269 0.05064400   1.008000   ; qtot -0.168982
  270         h1      9    bbb     H6    270 0.05064400   1.008000   ; qtot -0.118338
  271         c3      9    bbb     C4    271 -0.01612100  12.010000   ; qtot -0.134459
  272         hc      9    bbb     H7    272 0.04936100   1.008000   ; qtot -0.085098
  273         hc      9    bbb     H8    273 0.04936100   1.008000   ; qtot -0.035737
  274         c3      9    bbb     C5    274 0.11363000  12.010000   ; qtot 0.077893
  275         hc      9    bbb     H9    275 0.06265900   1.008000   ; qtot 0.140552
  276         hc      9    bbb    H10    276 0.06265900   1.008000   ; qtot 0.203211
  277         c3      9    bbb     C6    277 0.11363000  12.010000   ; qtot 0.316841
  278         hc      9    bbb    H11    278 0.06265900   1.008000   ; qtot 0.379500
  279         hc      9    bbb    H12    279 0.06265900   1.008000   ; qtot 0.442159
  280         c3      9    bbb     C7    280 0.05858200  12.010000   ; qtot 0.500741
  281         h1      9    bbb    H13    281 0.06123400   1.008000   ; qtot 0.561975
  282         h1      9    bbb    H14    282 0.06123400   1.008000   ; qtot 0.623209
  283         c3      9    bbb     C8    283 -0.72423400  12.010000   ; qtot -0.101025
  284         h1      9    bbb    H15    284 0.25637600   1.008000   ; qtot 0.155351
  285         h1      9    bbb    H16    285 0.25637600   1.008000   ; qtot 0.411727
  286         c3      9    bbb     C9    286 -0.72423400  12.010000   ; qtot -0.312507
  287         h1      9    bbb    H17    287 0.25637600   1.008000   ; qtot -0.056131
  288         h1      9    bbb    H18    288 0.25637600   1.008000   ; qtot 0.200245
  289         os      9    bbb     O1    289 -0.20025300  16.000000   ; qtot -0.000008
; residue   10 bbb rtp bbb q -0.0
  290         n3     10    bbb     N1    290 -0.59685800  14.010000   ; qtot -0.596866
  291         c3     10    bbb     C1    291 0.10137000  12.010000   ; qtot -0.495496
  292         h1     10    bbb     H1    292 0.04411300   1.008000   ; qtot -0.451383
  293         h1     10    bbb     H2    293 0.04411300   1.008000   ; qtot -0.407270
  294         c3     10    bbb     C2    294 0.10137000  12.010000   ; qtot -0.305900
  295         h1     10    bbb     H3    295 0.04411300   1.008000   ; qtot -0.261787
  296         h1     10    bbb     H4    296 0.04411300   1.008000   ; qtot -0.217674
  297         c3     10    bbb     C3    297 -0.00195300  12.010000   ; qtot -0.219627
  298         h1     10    bbb     H5    298 0.05064400   1.008000   ; qtot -0.168983
  299         h1     10    bbb     H6    299 0.05064400   1.008000   ; qtot -0.118339
  300         c3     10    bbb     C4    300 -0.01612100  12.010000   ; qtot -0.134460
  301         hc     10    bbb     H7    301 0.04936100   1.008000   ; qtot -0.085099
  302         hc     10    bbb     H8    302 0.04936100   1.008000   ; qtot -0.035738
  303         c3     10    bbb     C5    303 0.11363000  12.010000   ; qtot 0.077892
  304         hc     10    bbb     H9    304 0.06265900   1.008000   ; qtot 0.140551
  305         hc     10    bbb    H10    305 0.06265900   1.008000   ; qtot 0.203210
  306         c3     10    bbb     C6    306 0.11363000  12.010000   ; qtot 0.316840
  307         hc     10    bbb    H11    307 0.06265900   1.008000   ; qtot 0.379499
  308         hc     10    bbb    H12    308 0.06265900   1.008000   ; qtot 0.442158
  309         c3     10    bbb     C7    309 0.05858200  12.010000   ; qtot 0.500740
  310         h1     10    bbb    H13    310 0.06123400   1.008000   ; qtot 0.561974
  311         h1     10    bbb    H14    311 0.06123400   1.008000   ; qtot 0.623208
  312         c3     10    bbb     C8    312 -0.72423400  12.010000   ; qtot -0.101026
  313         h1     10    bbb    H15    313 0.25637600   1.008000   ; qtot 0.155350
  314         h1     10    bbb    H16    314 0.25637600   1.008000   ; qtot 0.411726
  315         c3     10    bbb     C9    315 -0.72423400  12.010000   ; qtot -0.312508
  316         h1     10    bbb    H17    316 0.25637600   1.008000   ; qtot -0.056132
  317         h1     10    bbb    H18    317 0.25637600   1.008000   ; qtot 0.200244
  318         os     10    bbb     O1    318 -0.20025300  16.000000   ; qtot -0.000009
; residue   11 bbb rtp bbb q -0.0
  319         n3     11    bbb     N1    319 -0.59685800  14.010000   ; qtot -0.596867
  320         c3     11    bbb     C1    320 0.10137000  12.010000   ; qtot -0.495497
  321         h1     11    bbb     H1    321 0.04411300   1.008000   ; qtot -0.451384
  322         h1     11    bbb     H2    322 0.04411300   1.008000   ; qtot -0.407271
  323         c3     11    bbb     C2    323 0.10137000  12.010000   ; qtot -0.305901
  324         h1     11    bbb     H3    324 0.04411300   1.008000   ; qtot -0.261788
  325         h1     11    bbb     H4    325 0.04411300   1.008000   ; qtot -0.217675
  326         c3     11    bbb     C3    326 -0.00195300  12.010000   ; qtot -0.219628
  327         h1     11    bbb     H5    327 0.05064400   1.008000   ; qtot -0.168984
  328         h1     11    bbb     H6    328 0.05064400   1.008000   ; qtot -0.118340
  329         c3     11    bbb     C4    329 -0.01612100  12.010000   ; qtot -0.134461
  330         hc     11    bbb     H7    330 0.04936100   1.008000   ; qtot -0.085100
  331         hc     11    bbb     H8    331 0.04936100   1.008000   ; qtot -0.035739
  332         c3     11    bbb     C5    332 0.11363000  12.010000   ; qtot 0.077891
  333         hc     11    bbb     H9    333 0.06265900   1.008000   ; qtot 0.140550
  334         hc     11    bbb    H10    334 0.06265900   1.008000   ; qtot 0.203209
  335         c3     11    bbb     C6    335 0.11363000  12.010000   ; qtot 0.316839
  336         hc     11    bbb    H11    336 0.06265900   1.008000   ; qtot 0.379498
  337         hc     11    bbb    H12    337 0.06265900   1.008000   ; qtot 0.442157
  338         c3     11    bbb     C7    338 0.05858200  12.010000   ; qtot 0.500739
  339         h1     11    bbb    H13    339 0.06123400   1.008000   ; qtot 0.561973
  340         h1     11    bbb    H14    340 0.06123400   1.008000   ; qtot 0.623207
  341         c3     11    bbb     C8    341 -0.72423400  12.010000   ; qtot -0.101027
  342         h1     11    bbb    H15    342 0.25637600   1.008000   ; qtot 0.155349
  343         h1     11    bbb    H16    343 0.25637600   1.008000   ; qtot 0.411725
  344         c3     11    bbb     C9    344 -0.72423400  12.010000   ; qtot -0.312509
  345         h1     11    bbb    H17    345 0.25637600   1.008000   ; qtot -0.056133
  346         h1     11    bbb    H18    346 0.25637600   1.008000   ; qtot 0.200243
  347         os     11    bbb     O1    347 -0.20025300  16.000000   ; qtot -0.000010
; residue   12 bbb rtp bbb q -0.0
  348         n3     12    bbb     N1    348 -0.59685800  14.010000   ; qtot -0.596868
  349         c3     12    bbb     C1    349 0.10137000  12.010000   ; qtot -0.495498
  350         h1     12    bbb     H1    350 0.04411300   1.008000   ; qtot -0.451385
  351         h1     12    bbb     H2    351 0.04411300   1.008000   ; qtot -0.407272
  352         c3     12    bbb     C2    352 0.10137000  12.010000   ; qtot -0.305902
  353         h1     12    bbb     H3    353 0.04411300   1.008000   ; qtot -0.261789
  354         h1     12    bbb     H4    354 0.04411300   1.008000   ; qtot -0.217676
  355         c3     12    bbb     C3    355 -0.00195300  12.010000   ; qtot -0.219629
  356         h1     12    bbb     H5    356 0.05064400   1.008000   ; qtot -0.168985
  357         h1     12    bbb     H6    357 0.05064400   1.008000   ; qtot -0.118341
  358         c3     12    bbb     C4    358 -0.01612100  12.010000   ; qtot -0.134462
  359         hc     12    bbb     H7    359 0.04936100   1.008000   ; qtot -0.085101
  360         hc     12    bbb     H8    360 0.04936100   1.008000   ; qtot -0.035740
  361         c3     12    bbb     C5    361 0.11363000  12.010000   ; qtot 0.077890
  362         hc     12    bbb     H9    362 0.06265900   1.008000   ; qtot 0.140549
  363         hc     12    bbb    H10    363 0.06265900   1.008000   ; qtot 0.203208
  364         c3     12    bbb     C6    364 0.11363000  12.010000   ; qtot 0.316838
  365         hc     12    bbb    H11    365 0.06265900   1.008000   ; qtot 0.379497
  366         hc     12    bbb    H12    366 0.06265900   1.008000   ; qtot 0.442156
  367         c3     12    bbb     C7    367 0.05858200  12.010000   ; qtot 0.500738
  368         h1     12    bbb    H13    368 0.06123400   1.008000   ; qtot 0.561972
  369         h1     12    bbb    H14    369 0.06123400   1.008000   ; qtot 0.623206
  370         c3     12    bbb     C8    370 -0.72423400  12.010000   ; qtot -0.101028
  371         h1     12    bbb    H15    371 0.25637600   1.008000   ; qtot 0.155348
  372         h1     12    bbb    H16    372 0.25637600   1.008000   ; qtot 0.411724
  373         c3     12    bbb     C9    373 -0.72423400  12.010000   ; qtot -0.312510
  374         h1     12    bbb    H17    374 0.25637600   1.008000   ; qtot -0.056134
  375         h1     12    bbb    H18    375 0.25637600   1.008000   ; qtot 0.200242
  376         os     12    bbb     O1    376 -0.20025300  16.000000   ; qtot -0.000011
; residue   13 bbb rtp bbb q -0.0
  377         n3     13    bbb     N1    377 -0.59685800  14.010000   ; qtot -0.596869
  378         c3     13    bbb     C1    378 0.10137000  12.010000   ; qtot -0.495499
  379         h1     13    bbb     H1    379 0.04411300   1.008000   ; qtot -0.451386
  380         h1     13    bbb     H2    380 0.04411300   1.008000   ; qtot -0.407273
  381         c3     13    bbb     C2    381 0.10137000  12.010000   ; qtot -0.305903
  382         h1     13    bbb     H3    382 0.04411300   1.008000   ; qtot -0.261790
  383         h1     13    bbb     H4    383 0.04411300   1.008000   ; qtot -0.217677
  384         c3     13    bbb     C3    384 -0.00195300  12.010000   ; qtot -0.219630
  385         h1     13    bbb     H5    385 0.05064400   1.008000   ; qtot -0.168986
  386         h1     13    bbb     H6    386 0.05064400   1.008000   ; qtot -0.118342
  387         c3     13    bbb     C4    387 -0.01612100  12.010000   ; qtot -0.134463
  388         hc     13    bbb     H7    388 0.04936100   1.008000   ; qtot -0.085102
  389         hc     13    bbb     H8    389 0.04936100   1.008000   ; qtot -0.035741
  390         c3     13    bbb     C5    390 0.11363000  12.010000   ; qtot 0.077889
  391         hc     13    bbb     H9    391 0.06265900   1.008000   ; qtot 0.140548
  392         hc     13    bbb    H10    392 0.06265900   1.008000   ; qtot 0.203207
  393         c3     13    bbb     C6    393 0.11363000  12.010000   ; qtot 0.316837
  394         hc     13    bbb    H11    394 0.06265900   1.008000   ; qtot 0.379496
  395         hc     13    bbb    H12    395 0.06265900   1.008000   ; qtot 0.442155
  396         c3     13    bbb     C7    396 0.05858200  12.010000   ; qtot 0.500737
  397         h1     13    bbb    H13    397 0.06123400   1.008000   ; qtot 0.561971
  398         h1     13    bbb    H14    398 0.06123400   1.008000   ; qtot 0.623205
  399         c3     13    bbb     C8    399 -0.72423400  12.010000   ; qtot -0.101029
  400         h1     13    bbb    H15    400 0.25637600   1.008000   ; qtot 0.155347
  401         h1     13    bbb    H16    401 0.25637600   1.008000   ; qtot 0.411723
  402         c3     13    bbb     C9    402 -0.72423400  12.010000   ; qtot -0.312511
  403         h1     13    bbb    H17    403 0.25637600   1.008000   ; qtot -0.056135
  404         h1     13    bbb    H18    404 0.25637600   1.008000   ; qtot 0.200241
  405         os     13    bbb     O1    405 -0.20025300  16.000000   ; qtot -0.000012
; residue   14 bbb rtp bbb q -0.0
  406         n3     14    bbb     N1    406 -0.59685800  14.010000   ; qtot -0.596870
  407         c3     14    bbb     C1    407 0.10137000  12.010000   ; qtot -0.495500
  408         h1     14    bbb     H1    408 0.04411300   1.008000   ; qtot -0.451387
  409         h1     14    bbb     H2    409 0.04411300   1.008000   ; qtot -0.407274
  410         c3     14    bbb     C2    410 0.10137000  12.010000   ; qtot -0.305904
  411         h1     14    bbb     H3    411 0.04411300   1.008000   ; qtot -0.261791
  412         h1     14    bbb     H4    412 0.04411300   1.008000   ; qtot -0.217678
  413         c3     14    bbb     C3    413 -0.00195300  12.010000   ; qtot -0.219631
  414         h1     14    bbb     H5    414 0.05064400   1.008000   ; qtot -0.168987
  415         h1     14    bbb     H6    415 0.05064400   1.008000   ; qtot -0.118343
  416         c3     14    bbb     C4    416 -0.01612100  12.010000   ; qtot -0.134464
  417         hc     14    bbb     H7    417 0.04936100   1.008000   ; qtot -0.085103
  418         hc     14    bbb     H8    418 0.04936100   1.008000   ; qtot -0.035742
  419         c3     14    bbb     C5    419 0.11363000  12.010000   ; qtot 0.077888
  420         hc     14    bbb     H9    420 0.06265900   1.008000   ; qtot 0.140547
  421         hc     14    bbb    H10    421 0.06265900   1.008000   ; qtot 0.203206
  422         c3     14    bbb     C6    422 0.11363000  12.010000   ; qtot 0.316836
  423         hc     14    bbb    H11    423 0.06265900   1.008000   ; qtot 0.379495
  424         hc     14    bbb    H12    424 0.06265900   1.008000   ; qtot 0.442154
  425         c3     14    bbb     C7    425 0.05858200  12.010000   ; qtot 0.500736
  426         h1     14    bbb    H13    426 0.06123400   1.008000   ; qtot 0.561970
  427         h1     14    bbb    H14    427 0.06123400   1.008000   ; qtot 0.623204
  428         c3     14    bbb     C8    428 -0.72423400  12.010000   ; qtot -0.101030
  429         h1     14    bbb    H15    429 0.25637600   1.008000   ; qtot 0.155346
  430         h1     14    bbb    H16    430 0.25637600   1.008000   ; qtot 0.411722
  431         c3     14    bbb     C9    431 -0.72423400  12.010000   ; qtot -0.312512
  432         h1     14    bbb    H17    432 0.25637600   1.008000   ; qtot -0.056136
  433         h1     14    bbb    H18    433 0.25637600   1.008000   ; qtot 0.200240
  434         os     14    bbb     O1    434 -0.20025300  16.000000   ; qtot -0.000013
; residue   15 bbb rtp bbb q -0.0
  435         n3     15    bbb     N1    435 -0.59685800  14.010000   ; qtot -0.596871
  436         c3     15    bbb     C1    436 0.10137000  12.010000   ; qtot -0.495501
  437         h1     15    bbb     H1    437 0.04411300   1.008000   ; qtot -0.451388
  438         h1     15    bbb     H2    438 0.04411300   1.008000   ; qtot -0.407275
  439         c3     15    bbb     C2    439 0.10137000  12.010000   ; qtot -0.305905
  440         h1     15    bbb     H3    440 0.04411300   1.008000   ; qtot -0.261792
  441         h1     15    bbb     H4    441 0.04411300   1.008000   ; qtot -0.217679
  442         c3     15    bbb     C3    442 -0.00195300  12.010000   ; qtot -0.219632
  443         h1     15    bbb     H5    443 0.05064400   1.008000   ; qtot -0.168988
  444         h1     15    bbb     H6    444 0.05064400   1.008000   ; qtot -0.118344
  445         c3     15    bbb     C4    445 -0.01612100  12.010000   ; qtot -0.134465
  446         hc     15    bbb     H7    446 0.04936100   1.008000   ; qtot -0.085104
  447         hc     15    bbb     H8    447 0.04936100   1.008000   ; qtot -0.035743
  448         c3     15    bbb     C5    448 0.11363000  12.010000   ; qtot 0.077887
  449         hc     15    bbb     H9    449 0.06265900   1.008000   ; qtot 0.140546
  450         hc     15    bbb    H10    450 0.06265900   1.008000   ; qtot 0.203205
  451         c3     15    bbb     C6    451 0.11363000  12.010000   ; qtot 0.316835
  452         hc     15    bbb    H11    452 0.06265900   1.008000   ; qtot 0.379494
  453         hc     15    bbb    H12    453 0.06265900   1.008000   ; qtot 0.442153
  454         c3     15    bbb     C7    454 0.05858200  12.010000   ; qtot 0.500735
  455         h1     15    bbb    H13    455 0.06123400   1.008000   ; qtot 0.561969
  456         h1     15    bbb    H14    456 0.06123400   1.008000   ; qtot 0.623203
  457         c3     15    bbb     C8    457 -0.72423400  12.010000   ; qtot -0.101031
  458         h1     15    bbb    H15    458 0.25637600   1.008000   ; qtot 0.155345
  459         h1     15    bbb    H16    459 0.25637600   1.008000   ; qtot 0.411721
  460         c3     15    bbb     C9    460 -0.72423400  12.010000   ; qtot -0.312513
  461         h1     15    bbb    H17    461 0.25637600   1.008000   ; qtot -0.056137
  462         h1     15    bbb    H18    462 0.25637600   1.008000   ; qtot 0.200239
  463         os     15    bbb     O1    463 -0.20025300  16.000000   ; qtot -0.000014
; residue   16 bbb rtp bbb q -0.0
  464         n3     16    bbb     N1    464 -0.59685800  14.010000   ; qtot -0.596872
  465         c3     16    bbb     C1    465 0.10137000  12.010000   ; qtot -0.495502
  466         h1     16    bbb     H1    466 0.04411300   1.008000   ; qtot -0.451389
  467         h1     16    bbb     H2    467 0.04411300   1.008000   ; qtot -0.407276
  468         c3     16    bbb     C2    468 0.10137000  12.010000   ; qtot -0.305906
  469         h1     16    bbb     H3    469 0.04411300   1.008000   ; qtot -0.261793
  470         h1     16    bbb     H4    470 0.04411300   1.008000   ; qtot -0.217680
  471         c3     16    bbb     C3    471 -0.00195300  12.010000   ; qtot -0.219633
  472         h1     16    bbb     H5    472 0.05064400   1.008000   ; qtot -0.168989
  473         h1     16    bbb     H6    473 0.05064400   1.008000   ; qtot -0.118345
  474         c3     16    bbb     C4    474 -0.01612100  12.010000   ; qtot -0.134466
  475         hc     16    bbb     H7    475 0.04936100   1.008000   ; qtot -0.085105
  476         hc     16    bbb     H8    476 0.04936100   1.008000   ; qtot -0.035744
  477         c3     16    bbb     C5    477 0.11363000  12.010000   ; qtot 0.077886
  478         hc     16    bbb     H9    478 0.06265900   1.008000   ; qtot 0.140545
  479         hc     16    bbb    H10    479 0.06265900   1.008000   ; qtot 0.203204
  480         c3     16    bbb     C6    480 0.11363000  12.010000   ; qtot 0.316834
  481         hc     16    bbb    H11    481 0.06265900   1.008000   ; qtot 0.379493
  482         hc     16    bbb    H12    482 0.06265900   1.008000   ; qtot 0.442152
  483         c3     16    bbb     C7    483 0.05858200  12.010000   ; qtot 0.500734
  484         h1     16    bbb    H13    484 0.06123400   1.008000   ; qtot 0.561968
  485         h1     16    bbb    H14    485 0.06123400   1.008000   ; qtot 0.623202
  486         c3     16    bbb     C8    486 -0.72423400  12.010000   ; qtot -0.101032
  487         h1     16    bbb    H15    487 0.25637600   1.008000   ; qtot 0.155344
  488         h1     16    bbb    H16    488 0.25637600   1.008000   ; qtot 0.411720
  489         c3     16    bbb     C9    489 -0.72423400  12.010000   ; qtot -0.312514
  490         h1     16    bbb    H17    490 0.25637600   1.008000   ; qtot -0.056138
  491         h1     16    bbb    H18    491 0.25637600   1.008000   ; qtot 0.200238
  492         os     16    bbb     O1    492 -0.20025300  16.000000   ; qtot -0.000015
; residue   17 bbb rtp bbb q -0.0
  493         n3     17    bbb     N1    493 -0.59685800  14.010000   ; qtot -0.596873
  494         c3     17    bbb     C1    494 0.10137000  12.010000   ; qtot -0.495503
  495         h1     17    bbb     H1    495 0.04411300   1.008000   ; qtot -0.451390
  496         h1     17    bbb     H2    496 0.04411300   1.008000   ; qtot -0.407277
  497         c3     17    bbb     C2    497 0.10137000  12.010000   ; qtot -0.305907
  498         h1     17    bbb     H3    498 0.04411300   1.008000   ; qtot -0.261794
  499         h1     17    bbb     H4    499 0.04411300   1.008000   ; qtot -0.217681
  500         c3     17    bbb     C3    500 -0.00195300  12.010000   ; qtot -0.219634
  501         h1     17    bbb     H5    501 0.05064400   1.008000   ; qtot -0.168990
  502         h1     17    bbb     H6    502 0.05064400   1.008000   ; qtot -0.118346
  503         c3     17    bbb     C4    503 -0.01612100  12.010000   ; qtot -0.134467
  504         hc     17    bbb     H7    504 0.04936100   1.008000   ; qtot -0.085106
  505         hc     17    bbb     H8    505 0.04936100   1.008000   ; qtot -0.035745
  506         c3     17    bbb     C5    506 0.11363000  12.010000   ; qtot 0.077885
  507         hc     17    bbb     H9    507 0.06265900   1.008000   ; qtot 0.140544
  508         hc     17    bbb    H10    508 0.06265900   1.008000   ; qtot 0.203203
  509         c3     17    bbb     C6    509 0.11363000  12.010000   ; qtot 0.316833
  510         hc     17    bbb    H11    510 0.06265900   1.008000   ; qtot 0.379492
  511         hc     17    bbb    H12    511 0.06265900   1.008000   ; qtot 0.442151
  512         c3     17    bbb     C7    512 0.05858200  12.010000   ; qtot 0.500733
  513         h1     17    bbb    H13    513 0.06123400   1.008000   ; qtot 0.561967
  514         h1     17    bbb    H14    514 0.06123400   1.008000   ; qtot 0.623201
  515         c3     17    bbb     C8    515 -0.72423400  12.010000   ; qtot -0.101033
  516         h1     17    bbb    H15    516 0.25637600   1.008000   ; qtot 0.155343
  517         h1     17    bbb    H16    517 0.25637600   1.008000   ; qtot 0.411719
  518         c3     17    bbb     C9    518 -0.72423400  12.010000   ; qtot -0.312515
  519         h1     17    bbb    H17    519 0.25637600   1.008000   ; qtot -0.056139
  520         h1     17    bbb    H18    520 0.25637600   1.008000   ; qtot 0.200237
  521         os     17    bbb     O1    521 -0.20025300  16.000000   ; qtot -0.000016
; residue   18 bbb rtp bbb q -0.0
  522         n3     18    bbb     N1    522 -0.59685800  14.010000   ; qtot -0.596874
  523         c3     18    bbb     C1    523 0.10137000  12.010000   ; qtot -0.495504
  524         h1     18    bbb     H1    524 0.04411300   1.008000   ; qtot -0.451391
  525         h1     18    bbb     H2    525 0.04411300   1.008000   ; qtot -0.407278
  526         c3     18    bbb     C2    526 0.10137000  12.010000   ; qtot -0.305908
  527         h1     18    bbb     H3    527 0.04411300   1.008000   ; qtot -0.261795
  528         h1     18    bbb     H4    528 0.04411300   1.008000   ; qtot -0.217682
  529         c3     18    bbb     C3    529 -0.00195300  12.010000   ; qtot -0.219635
  530         h1     18    bbb     H5    530 0.05064400   1.008000   ; qtot -0.168991
  531         h1     18    bbb     H6    531 0.05064400   1.008000   ; qtot -0.118347
  532         c3     18    bbb     C4    532 -0.01612100  12.010000   ; qtot -0.134468
  533         hc     18    bbb     H7    533 0.04936100   1.008000   ; qtot -0.085107
  534         hc     18    bbb     H8    534 0.04936100   1.008000   ; qtot -0.035746
  535         c3     18    bbb     C5    535 0.11363000  12.010000   ; qtot 0.077884
  536         hc     18    bbb     H9    536 0.06265900   1.008000   ; qtot 0.140543
  537         hc     18    bbb    H10    537 0.06265900   1.008000   ; qtot 0.203202
  538         c3     18    bbb     C6    538 0.11363000  12.010000   ; qtot 0.316832
  539         hc     18    bbb    H11    539 0.06265900   1.008000   ; qtot 0.379491
  540         hc     18    bbb    H12    540 0.06265900   1.008000   ; qtot 0.442150
  541         c3     18    bbb     C7    541 0.05858200  12.010000   ; qtot 0.500732
  542         h1     18    bbb    H13    542 0.06123400   1.008000   ; qtot 0.561966
  543         h1     18    bbb    H14    543 0.06123400   1.008000   ; qtot 0.623200
  544         c3     18    bbb     C8    544 -0.72423400  12.010000   ; qtot -0.101034
  545         h1     18    bbb    H15    545 0.25637600   1.008000   ; qtot 0.155342
  546         h1     18    bbb    H16    546 0.25637600   1.008000   ; qtot 0.411718
  547         c3     18    bbb     C9    547 -0.72423400  12.010000   ; qtot -0.312516
  548         h1     18    bbb    H17    548 0.25637600   1.008000   ; qtot -0.056140
  549         h1     18    bbb    H18    549 0.25637600   1.008000   ; qtot 0.200236
  550         os     18    bbb     O1    550 -0.20025300  16.000000   ; qtot -0.000017
; residue   19 bbb rtp bbb q -0.0
  551         n3     19    bbb     N1    551 -0.59685800  14.010000   ; qtot -0.596875
  552         c3     19    bbb     C1    552 0.10137000  12.010000   ; qtot -0.495505
  553         h1     19    bbb     H1    553 0.04411300   1.008000   ; qtot -0.451392
  554         h1     19    bbb     H2    554 0.04411300   1.008000   ; qtot -0.407279
  555         c3     19    bbb     C2    555 0.10137000  12.010000   ; qtot -0.305909
  556         h1     19    bbb     H3    556 0.04411300   1.008000   ; qtot -0.261796
  557         h1     19    bbb     H4    557 0.04411300   1.008000   ; qtot -0.217683
  558         c3     19    bbb     C3    558 -0.00195300  12.010000   ; qtot -0.219636
  559         h1     19    bbb     H5    559 0.05064400   1.008000   ; qtot -0.168992
  560         h1     19    bbb     H6    560 0.05064400   1.008000   ; qtot -0.118348
  561         c3     19    bbb     C4    561 -0.01612100  12.010000   ; qtot -0.134469
  562         hc     19    bbb     H7    562 0.04936100   1.008000   ; qtot -0.085108
  563         hc     19    bbb     H8    563 0.04936100   1.008000   ; qtot -0.035747
  564         c3     19    bbb     C5    564 0.11363000  12.010000   ; qtot 0.077883
  565         hc     19    bbb     H9    565 0.06265900   1.008000   ; qtot 0.140542
  566         hc     19    bbb    H10    566 0.06265900   1.008000   ; qtot 0.203201
  567         c3     19    bbb     C6    567 0.11363000  12.010000   ; qtot 0.316831
  568         hc     19    bbb    H11    568 0.06265900   1.008000   ; qtot 0.379490
  569         hc     19    bbb    H12    569 0.06265900   1.008000   ; qtot 0.442149
  570         c3     19    bbb     C7    570 0.05858200  12.010000   ; qtot 0.500731
  571         h1     19    bbb    H13    571 0.06123400   1.008000   ; qtot 0.561965
  572         h1     19    bbb    H14    572 0.06123400   1.008000   ; qtot 0.623199
  573         c3     19    bbb     C8    573 -0.72423400  12.010000   ; qtot -0.101035
  574         h1     19    bbb    H15    574 0.25637600   1.008000   ; qtot 0.155341
  575         h1     19    bbb    H16    575 0.25637600   1.008000   ; qtot 0.411717
  576         c3     19    bbb     C9    576 -0.72423400  12.010000   ; qtot -0.312517
  577         h1     19    bbb    H17    577 0.25637600   1.008000   ; qtot -0.056141
  578         h1     19    bbb    H18    578 0.25637600   1.008000   ; qtot 0.200235
  579         os     19    bbb     O1    579 -0.20025300  16.000000   ; qtot -0.000018
; residue   20 bbb rtp bbb q -0.0
  580         n3     20    bbb     N1    580 -0.59685800  14.010000   ; qtot -0.596876
  581         c3     20    bbb     C1    581 0.10137000  12.010000   ; qtot -0.495506
  582         h1     20    bbb     H1    582 0.04411300   1.008000   ; qtot -0.451393
  583         h1     20    bbb     H2    583 0.04411300   1.008000   ; qtot -0.407280
  584         c3     20    bbb     C2    584 0.10137000  12.010000   ; qtot -0.305910
  585         h1     20    bbb     H3    585 0.04411300   1.008000   ; qtot -0.261797
  586         h1     20    bbb     H4    586 0.04411300   1.008000   ; qtot -0.217684
  587         c3     20    bbb     C3    587 -0.00195300  12.010000   ; qtot -0.219637
  588         h1     20    bbb     H5    588 0.05064400   1.008000   ; qtot -0.168993
  589         h1     20    bbb     H6    589 0.05064400   1.008000   ; qtot -0.118349
  590         c3     20    bbb     C4    590 -0.01612100  12.010000   ; qtot -0.134470
  591         hc     20    bbb     H7    591 0.04936100   1.008000   ; qtot -0.085109
  592         hc     20    bbb     H8    592 0.04936100   1.008000   ; qtot -0.035748
  593         c3     20    bbb     C5    593 0.11363000  12.010000   ; qtot 0.077882
  594         hc     20    bbb     H9    594 0.06265900   1.008000   ; qtot 0.140541
  595         hc     20    bbb    H10    595 0.06265900   1.008000   ; qtot 0.203200
  596         c3     20    bbb     C6    596 0.11363000  12.010000   ; qtot 0.316830
  597         hc     20    bbb    H11    597 0.06265900   1.008000   ; qtot 0.379489
  598         hc     20    bbb    H12    598 0.06265900   1.008000   ; qtot 0.442148
  599         c3     20    bbb     C7    599 0.05858200  12.010000   ; qtot 0.500730
  600         h1     20    bbb    H13    600 0.06123400   1.008000   ; qtot 0.561964
  601         h1     20    bbb    H14    601 0.06123400   1.008000   ; qtot 0.623198
  602         c3     20    bbb     C8    602 -0.72423400  12.010000   ; qtot -0.101036
  603         h1     20    bbb    H15    603 0.25637600   1.008000   ; qtot 0.155340
  604         h1     20    bbb    H16    604 0.25637600   1.008000   ; qtot 0.411716
  605         c3     20    bbb     C9    605 -0.72423400  12.010000   ; qtot -0.312518
  606         h1     20    bbb    H17    606 0.25637600   1.008000   ; qtot -0.056142
  607         h1     20    bbb    H18    607 0.25637600   1.008000   ; qtot 0.200234
  608         os     20    bbb     O1    608 -0.20025300  16.000000   ; qtot -0.000019
; residue   21 bbb rtp bbb q -0.0
  609         n3     21    bbb     N1    609 -0.59685800  14.010000   ; qtot -0.596877
  610         c3     21    bbb     C1    610 0.10137000  12.010000   ; qtot -0.495507
  611         h1     21    bbb     H1    611 0.04411300   1.008000   ; qtot -0.451394
  612         h1     21    bbb     H2    612 0.04411300   1.008000   ; qtot -0.407281
  613         c3     21    bbb     C2    613 0.10137000  12.010000   ; qtot -0.305911
  614         h1     21    bbb     H3    614 0.04411300   1.008000   ; qtot -0.261798
  615         h1     21    bbb     H4    615 0.04411300   1.008000   ; qtot -0.217685
  616         c3     21    bbb     C3    616 -0.00195300  12.010000   ; qtot -0.219638
  617         h1     21    bbb     H5    617 0.05064400   1.008000   ; qtot -0.168994
  618         h1     21    bbb     H6    618 0.05064400   1.008000   ; qtot -0.118350
  619         c3     21    bbb     C4    619 -0.01612100  12.010000   ; qtot -0.134471
  620         hc     21    bbb     H7    620 0.04936100   1.008000   ; qtot -0.085110
  621         hc     21    bbb     H8    621 0.04936100   1.008000   ; qtot -0.035749
  622         c3     21    bbb     C5    622 0.11363000  12.010000   ; qtot 0.077881
  623         hc     21    bbb     H9    623 0.06265900   1.008000   ; qtot 0.140540
  624         hc     21    bbb    H10    624 0.06265900   1.008000   ; qtot 0.203199
  625         c3     21    bbb     C6    625 0.11363000  12.010000   ; qtot 0.316829
  626         hc     21    bbb    H11    626 0.06265900   1.008000   ; qtot 0.379488
  627         hc     21    bbb    H12    627 0.06265900   1.008000   ; qtot 0.442147
  628         c3     21    bbb     C7    628 0.05858200  12.010000   ; qtot 0.500729
  629         h1     21    bbb    H13    629 0.06123400   1.008000   ; qtot 0.561963
  630         h1     21    bbb    H14    630 0.06123400   1.008000   ; qtot 0.623197
  631         c3     21    bbb     C8    631 -0.72423400  12.010000   ; qtot -0.101037
  632         h1     21    bbb    H15    632 0.25637600   1.008000   ; qtot 0.155339
  633         h1     21    bbb    H16    633 0.25637600   1.008000   ; qtot 0.411715
  634         c3     21    bbb     C9    634 -0.72423400  12.010000   ; qtot -0.312519
  635         h1     21    bbb    H17    635 0.25637600   1.008000   ; qtot -0.056143
  636         h1     21    bbb    H18    636 0.25637600   1.008000   ; qtot 0.200233
  637         os     21    bbb     O1    637 -0.20025300  16.000000   ; qtot -0.000020
; residue   22 bbb rtp bbb q -0.0
  638         n3     22    bbb     N1    638 -0.59685800  14.010000   ; qtot -0.596878
  639         c3     22    bbb     C1    639 0.10137000  12.010000   ; qtot -0.495508
  640         h1     22    bbb     H1    640 0.04411300   1.008000   ; qtot -0.451395
  641         h1     22    bbb     H2    641 0.04411300   1.008000   ; qtot -0.407282
  642         c3     22    bbb     C2    642 0.10137000  12.010000   ; qtot -0.305912
  643         h1     22    bbb     H3    643 0.04411300   1.008000   ; qtot -0.261799
  644         h1     22    bbb     H4    644 0.04411300   1.008000   ; qtot -0.217686
  645         c3     22    bbb     C3    645 -0.00195300  12.010000   ; qtot -0.219639
  646         h1     22    bbb     H5    646 0.05064400   1.008000   ; qtot -0.168995
  647         h1     22    bbb     H6    647 0.05064400   1.008000   ; qtot -0.118351
  648         c3     22    bbb     C4    648 -0.01612100  12.010000   ; qtot -0.134472
  649         hc     22    bbb     H7    649 0.04936100   1.008000   ; qtot -0.085111
  650         hc     22    bbb     H8    650 0.04936100   1.008000   ; qtot -0.035750
  651         c3     22    bbb     C5    651 0.11363000  12.010000   ; qtot 0.077880
  652         hc     22    bbb     H9    652 0.06265900   1.008000   ; qtot 0.140539
  653         hc     22    bbb    H10    653 0.06265900   1.008000   ; qtot 0.203198
  654         c3     22    bbb     C6    654 0.11363000  12.010000   ; qtot 0.316828
  655         hc     22    bbb    H11    655 0.06265900   1.008000   ; qtot 0.379487
  656         hc     22    bbb    H12    656 0.06265900   1.008000   ; qtot 0.442146
  657         c3     22    bbb     C7    657 0.05858200  12.010000   ; qtot 0.500728
  658         h1     22    bbb    H13    658 0.06123400   1.008000   ; qtot 0.561962
  659         h1     22    bbb    H14    659 0.06123400   1.008000   ; qtot 0.623196
  660         c3     22    bbb     C8    660 -0.72423400  12.010000   ; qtot -0.101038
  661         h1     22    bbb    H15    661 0.25637600   1.008000   ; qtot 0.155338
  662         h1     22    bbb    H16    662 0.25637600   1.008000   ; qtot 0.411714
  663         c3     22    bbb     C9    663 -0.72423400  12.010000   ; qtot -0.312520
  664         h1     22    bbb    H17    664 0.25637600   1.008000   ; qtot -0.056144
  665         h1     22    bbb    H18    665 0.25637600   1.008000   ; qtot 0.200232
  666         os     22    bbb     O1    666 -0.20025300  16.000000   ; qtot -0.000021
; residue   23 bbb rtp bbb q -0.0
  667         n3     23    bbb     N1    667 -0.59685800  14.010000   ; qtot -0.596879
  668         c3     23    bbb     C1    668 0.10137000  12.010000   ; qtot -0.495509
  669         h1     23    bbb     H1    669 0.04411300   1.008000   ; qtot -0.451396
  670         h1     23    bbb     H2    670 0.04411300   1.008000   ; qtot -0.407283
  671         c3     23    bbb     C2    671 0.10137000  12.010000   ; qtot -0.305913
  672         h1     23    bbb     H3    672 0.04411300   1.008000   ; qtot -0.261800
  673         h1     23    bbb     H4    673 0.04411300   1.008000   ; qtot -0.217687
  674         c3     23    bbb     C3    674 -0.00195300  12.010000   ; qtot -0.219640
  675         h1     23    bbb     H5    675 0.05064400   1.008000   ; qtot -0.168996
  676         h1     23    bbb     H6    676 0.05064400   1.008000   ; qtot -0.118352
  677         c3     23    bbb     C4    677 -0.01612100  12.010000   ; qtot -0.134473
  678         hc     23    bbb     H7    678 0.04936100   1.008000   ; qtot -0.085112
  679         hc     23    bbb     H8    679 0.04936100   1.008000   ; qtot -0.035751
  680         c3     23    bbb     C5    680 0.11363000  12.010000   ; qtot 0.077879
  681         hc     23    bbb     H9    681 0.06265900   1.008000   ; qtot 0.140538
  682         hc     23    bbb    H10    682 0.06265900   1.008000   ; qtot 0.203197
  683         c3     23    bbb     C6    683 0.11363000  12.010000   ; qtot 0.316827
  684         hc     23    bbb    H11    684 0.06265900   1.008000   ; qtot 0.379486
  685         hc     23    bbb    H12    685 0.06265900   1.008000   ; qtot 0.442145
  686         c3     23    bbb     C7    686 0.05858200  12.010000   ; qtot 0.500727
  687         h1     23    bbb    H13    687 0.06123400   1.008000   ; qtot 0.561961
  688         h1     23    bbb    H14    688 0.06123400   1.008000   ; qtot 0.623195
  689         c3     23    bbb     C8    689 -0.72423400  12.010000   ; qtot -0.101039
  690         h1     23    bbb    H15    690 0.25637600   1.008000   ; qtot 0.155337
  691         h1     23    bbb    H16    691 0.25637600   1.008000   ; qtot 0.411713
  692         c3     23    bbb     C9    692 -0.72423400  12.010000   ; qtot -0.312521
  693         h1     23    bbb    H17    693 0.25637600   1.008000   ; qtot -0.056145
  694         h1     23    bbb    H18    694 0.25637600   1.008000   ; qtot 0.200231
  695         os     23    bbb     O1    695 -0.20025300  16.000000   ; qtot -0.000022
; residue   24 bbb rtp bbb q -0.0
  696         n3     24    bbb     N1    696 -0.59685800  14.010000   ; qtot -0.596880
  697         c3     24    bbb     C1    697 0.10137000  12.010000   ; qtot -0.495510
  698         h1     24    bbb     H1    698 0.04411300   1.008000   ; qtot -0.451397
  699         h1     24    bbb     H2    699 0.04411300   1.008000   ; qtot -0.407284
  700         c3     24    bbb     C2    700 0.10137000  12.010000   ; qtot -0.305914
  701         h1     24    bbb     H3    701 0.04411300   1.008000   ; qtot -0.261801
  702         h1     24    bbb     H4    702 0.04411300   1.008000   ; qtot -0.217688
  703         c3     24    bbb     C3    703 -0.00195300  12.010000   ; qtot -0.219641
  704         h1     24    bbb     H5    704 0.05064400   1.008000   ; qtot -0.168997
  705         h1     24    bbb     H6    705 0.05064400   1.008000   ; qtot -0.118353
  706         c3     24    bbb     C4    706 -0.01612100  12.010000   ; qtot -0.134474
  707         hc     24    bbb     H7    707 0.04936100   1.008000   ; qtot -0.085113
  708         hc     24    bbb     H8    708 0.04936100   1.008000   ; qtot -0.035752
  709         c3     24    bbb     C5    709 0.11363000  12.010000   ; qtot 0.077878
  710         hc     24    bbb     H9    710 0.06265900   1.008000   ; qtot 0.140537
  711         hc     24    bbb    H10    711 0.06265900   1.008000   ; qtot 0.203196
  712         c3     24    bbb     C6    712 0.11363000  12.010000   ; qtot 0.316826
  713         hc     24    bbb    H11    713 0.06265900   1.008000   ; qtot 0.379485
  714         hc     24    bbb    H12    714 0.06265900   1.008000   ; qtot 0.442144
  715         c3     24    bbb     C7    715 0.05858200  12.010000   ; qtot 0.500726
  716         h1     24    bbb    H13    716 0.06123400   1.008000   ; qtot 0.561960
  717         h1     24    bbb    H14    717 0.06123400   1.008000   ; qtot 0.623194
  718         c3     24    bbb     C8    718 -0.72423400  12.010000   ; qtot -0.101040
  719         h1     24    bbb    H15    719 0.25637600   1.008000   ; qtot 0.155336
  720         h1     24    bbb    H16    720 0.25637600   1.008000   ; qtot 0.411712
  721         c3     24    bbb     C9    721 -0.72423400  12.010000   ; qtot -0.312522
  722         h1     24    bbb    H17    722 0.25637600   1.008000   ; qtot -0.056146
  723         h1     24    bbb    H18    723 0.25637600   1.008000   ; qtot 0.200230
  724         os     24    bbb     O1    724 -0.20025300  16.000000   ; qtot -0.000023
; residue   25 bbb rtp bbb q -0.0
  725         n3     25    bbb     N1    725 -0.59685800  14.010000   ; qtot -0.596881
  726         c3     25    bbb     C1    726 0.10137000  12.010000   ; qtot -0.495511
  727         h1     25    bbb     H1    727 0.04411300   1.008000   ; qtot -0.451398
  728         h1     25    bbb     H2    728 0.04411300   1.008000   ; qtot -0.407285
  729         c3     25    bbb     C2    729 0.10137000  12.010000   ; qtot -0.305915
  730         h1     25    bbb     H3    730 0.04411300   1.008000   ; qtot -0.261802
  731         h1     25    bbb     H4    731 0.04411300   1.008000   ; qtot -0.217689
  732         c3     25    bbb     C3    732 -0.00195300  12.010000   ; qtot -0.219642
  733         h1     25    bbb     H5    733 0.05064400   1.008000   ; qtot -0.168998
  734         h1     25    bbb     H6    734 0.05064400   1.008000   ; qtot -0.118354
  735         c3     25    bbb     C4    735 -0.01612100  12.010000   ; qtot -0.134475
  736         hc     25    bbb     H7    736 0.04936100   1.008000   ; qtot -0.085114
  737         hc     25    bbb     H8    737 0.04936100   1.008000   ; qtot -0.035753
  738         c3     25    bbb     C5    738 0.11363000  12.010000   ; qtot 0.077877
  739         hc     25    bbb     H9    739 0.06265900   1.008000   ; qtot 0.140536
  740         hc     25    bbb    H10    740 0.06265900   1.008000   ; qtot 0.203195
  741         c3     25    bbb     C6    741 0.11363000  12.010000   ; qtot 0.316825
  742         hc     25    bbb    H11    742 0.06265900   1.008000   ; qtot 0.379484
  743         hc     25    bbb    H12    743 0.06265900   1.008000   ; qtot 0.442143
  744         c3     25    bbb     C7    744 0.05858200  12.010000   ; qtot 0.500725
  745         h1     25    bbb    H13    745 0.06123400   1.008000   ; qtot 0.561959
  746         h1     25    bbb    H14    746 0.06123400   1.008000   ; qtot 0.623193
  747         c3     25    bbb     C8    747 -0.72423400  12.010000   ; qtot -0.101041
  748         h1     25    bbb    H15    748 0.25637600   1.008000   ; qtot 0.155335
  749         h1     25    bbb    H16    749 0.25637600   1.008000   ; qtot 0.411711
  750         c3     25    bbb     C9    750 -0.72423400  12.010000   ; qtot -0.312523
  751         h1     25    bbb    H17    751 0.25637600   1.008000   ; qtot -0.056147
  752         h1     25    bbb    H18    752 0.25637600   1.008000   ; qtot 0.200229
  753         os     25    bbb     O1    753 -0.20025300  16.000000   ; qtot -0.000024
; residue   26 bbb rtp bbb q -0.0
  754         n3     26    bbb     N1    754 -0.59685800  14.010000   ; qtot -0.596882
  755         c3     26    bbb     C1    755 0.10137000  12.010000   ; qtot -0.495512
  756         h1     26    bbb     H1    756 0.04411300   1.008000   ; qtot -0.451399
  757         h1     26    bbb     H2    757 0.04411300   1.008000   ; qtot -0.407286
  758         c3     26    bbb     C2    758 0.10137000  12.010000   ; qtot -0.305916
  759         h1     26    bbb     H3    759 0.04411300   1.008000   ; qtot -0.261803
  760         h1     26    bbb     H4    760 0.04411300   1.008000   ; qtot -0.217690
  761         c3     26    bbb     C3    761 -0.00195300  12.010000   ; qtot -0.219643
  762         h1     26    bbb     H5    762 0.05064400   1.008000   ; qtot -0.168999
  763         h1     26    bbb     H6    763 0.05064400   1.008000   ; qtot -0.118355
  764         c3     26    bbb     C4    764 -0.01612100  12.010000   ; qtot -0.134476
  765         hc     26    bbb     H7    765 0.04936100   1.008000   ; qtot -0.085115
  766         hc     26    bbb     H8    766 0.04936100   1.008000   ; qtot -0.035754
  767         c3     26    bbb     C5    767 0.11363000  12.010000   ; qtot 0.077876
  768         hc     26    bbb     H9    768 0.06265900   1.008000   ; qtot 0.140535
  769         hc     26    bbb    H10    769 0.06265900   1.008000   ; qtot 0.203194
  770         c3     26    bbb     C6    770 0.11363000  12.010000   ; qtot 0.316824
  771         hc     26    bbb    H11    771 0.06265900   1.008000   ; qtot 0.379483
  772         hc     26    bbb    H12    772 0.06265900   1.008000   ; qtot 0.442142
  773         c3     26    bbb     C7    773 0.05858200  12.010000   ; qtot 0.500724
  774         h1     26    bbb    H13    774 0.06123400   1.008000   ; qtot 0.561958
  775         h1     26    bbb    H14    775 0.06123400   1.008000   ; qtot 0.623192
  776         c3     26    bbb     C8    776 -0.72423400  12.010000   ; qtot -0.101042
  777         h1     26    bbb    H15    777 0.25637600   1.008000   ; qtot 0.155334
  778         h1     26    bbb    H16    778 0.25637600   1.008000   ; qtot 0.411710
  779         c3     26    bbb     C9    779 -0.72423400  12.010000   ; qtot -0.312524
  780         h1     26    bbb    H17    780 0.25637600   1.008000   ; qtot -0.056148
  781         h1     26    bbb    H18    781 0.25637600   1.008000   ; qtot 0.200228
  782         os     26    bbb     O1    782 -0.20025300  16.000000   ; qtot -0.000025
; residue   27 bbb rtp bbb q -0.0
  783         n3     27    bbb     N1    783 -0.59685800  14.010000   ; qtot -0.596883
  784         c3     27    bbb     C1    784 0.10137000  12.010000   ; qtot -0.495513
  785         h1     27    bbb     H1    785 0.04411300   1.008000   ; qtot -0.451400
  786         h1     27    bbb     H2    786 0.04411300   1.008000   ; qtot -0.407287
  787         c3     27    bbb     C2    787 0.10137000  12.010000   ; qtot -0.305917
  788         h1     27    bbb     H3    788 0.04411300   1.008000   ; qtot -0.261804
  789         h1     27    bbb     H4    789 0.04411300   1.008000   ; qtot -0.217691
  790         c3     27    bbb     C3    790 -0.00195300  12.010000   ; qtot -0.219644
  791         h1     27    bbb     H5    791 0.05064400   1.008000   ; qtot -0.169000
  792         h1     27    bbb     H6    792 0.05064400   1.008000   ; qtot -0.118356
  793         c3     27    bbb     C4    793 -0.01612100  12.010000   ; qtot -0.134477
  794         hc     27    bbb     H7    794 0.04936100   1.008000   ; qtot -0.085116
  795         hc     27    bbb     H8    795 0.04936100   1.008000   ; qtot -0.035755
  796         c3     27    bbb     C5    796 0.11363000  12.010000   ; qtot 0.077875
  797         hc     27    bbb     H9    797 0.06265900   1.008000   ; qtot 0.140534
  798         hc     27    bbb    H10    798 0.06265900   1.008000   ; qtot 0.203193
  799         c3     27    bbb     C6    799 0.11363000  12.010000   ; qtot 0.316823
  800         hc     27    bbb    H11    800 0.06265900   1.008000   ; qtot 0.379482
  801         hc     27    bbb    H12    801 0.06265900   1.008000   ; qtot 0.442141
  802         c3     27    bbb     C7    802 0.05858200  12.010000   ; qtot 0.500723
  803         h1     27    bbb    H13    803 0.06123400   1.008000   ; qtot 0.561957
  804         h1     27    bbb    H14    804 0.06123400   1.008000   ; qtot 0.623191
  805         c3     27    bbb     C8    805 -0.72423400  12.010000   ; qtot -0.101043
  806         h1     27    bbb    H15    806 0.25637600   1.008000   ; qtot 0.155333
  807         h1     27    bbb    H16    807 0.25637600   1.008000   ; qtot 0.411709
  808         c3     27    bbb     C9    808 -0.72423400  12.010000   ; qtot -0.312525
  809         h1     27    bbb    H17    809 0.25637600   1.008000   ; qtot -0.056149
  810         h1     27    bbb    H18    810 0.25637600   1.008000   ; qtot 0.200227
  811         os     27    bbb     O1    811 -0.20025300  16.000000   ; qtot -0.000026
; residue   28 bbb rtp bbb q -0.0
  812         n3     28    bbb     N1    812 -0.59685800  14.010000   ; qtot -0.596884
  813         c3     28    bbb     C1    813 0.10137000  12.010000   ; qtot -0.495514
  814         h1     28    bbb     H1    814 0.04411300   1.008000   ; qtot -0.451401
  815         h1     28    bbb     H2    815 0.04411300   1.008000   ; qtot -0.407288
  816         c3     28    bbb     C2    816 0.10137000  12.010000   ; qtot -0.305918
  817         h1     28    bbb     H3    817 0.04411300   1.008000   ; qtot -0.261805
  818         h1     28    bbb     H4    818 0.04411300   1.008000   ; qtot -0.217692
  819         c3     28    bbb     C3    819 -0.00195300  12.010000   ; qtot -0.219645
  820         h1     28    bbb     H5    820 0.05064400   1.008000   ; qtot -0.169001
  821         h1     28    bbb     H6    821 0.05064400   1.008000   ; qtot -0.118357
  822         c3     28    bbb     C4    822 -0.01612100  12.010000   ; qtot -0.134478
  823         hc     28    bbb     H7    823 0.04936100   1.008000   ; qtot -0.085117
  824         hc     28    bbb     H8    824 0.04936100   1.008000   ; qtot -0.035756
  825         c3     28    bbb     C5    825 0.11363000  12.010000   ; qtot 0.077874
  826         hc     28    bbb     H9    826 0.06265900   1.008000   ; qtot 0.140533
  827         hc     28    bbb    H10    827 0.06265900   1.008000   ; qtot 0.203192
  828         c3     28    bbb     C6    828 0.11363000  12.010000   ; qtot 0.316822
  829         hc     28    bbb    H11    829 0.06265900   1.008000   ; qtot 0.379481
  830         hc     28    bbb    H12    830 0.06265900   1.008000   ; qtot 0.442140
  831         c3     28    bbb     C7    831 0.05858200  12.010000   ; qtot 0.500722
  832         h1     28    bbb    H13    832 0.06123400   1.008000   ; qtot 0.561956
  833         h1     28    bbb    H14    833 0.06123400   1.008000   ; qtot 0.623190
  834         c3     28    bbb     C8    834 -0.72423400  12.010000   ; qtot -0.101044
  835         h1     28    bbb    H15    835 0.25637600   1.008000   ; qtot 0.155332
  836         h1     28    bbb    H16    836 0.25637600   1.008000   ; qtot 0.411708
  837         c3     28    bbb     C9    837 -0.72423400  12.010000   ; qtot -0.312526
  838         h1     28    bbb    H17    838 0.25637600   1.008000   ; qtot -0.056150
  839         h1     28    bbb    H18    839 0.25637600   1.008000   ; qtot 0.200226
  840         os     28    bbb     O1    840 -0.20025300  16.000000   ; qtot -0.000027
; residue   29 bbb rtp bbb q -0.0
  841         n3     29    bbb     N1    841 -0.59685800  14.010000   ; qtot -0.596885
  842         c3     29    bbb     C1    842 0.10137000  12.010000   ; qtot -0.495515
  843         h1     29    bbb     H1    843 0.04411300   1.008000   ; qtot -0.451402
  844         h1     29    bbb     H2    844 0.04411300   1.008000   ; qtot -0.407289
  845         c3     29    bbb     C2    845 0.10137000  12.010000   ; qtot -0.305919
  846         h1     29    bbb     H3    846 0.04411300   1.008000   ; qtot -0.261806
  847         h1     29    bbb     H4    847 0.04411300   1.008000   ; qtot -0.217693
  848         c3     29    bbb     C3    848 -0.00195300  12.010000   ; qtot -0.219646
  849         h1     29    bbb     H5    849 0.05064400   1.008000   ; qtot -0.169002
  850         h1     29    bbb     H6    850 0.05064400   1.008000   ; qtot -0.118358
  851         c3     29    bbb     C4    851 -0.01612100  12.010000   ; qtot -0.134479
  852         hc     29    bbb     H7    852 0.04936100   1.008000   ; qtot -0.085118
  853         hc     29    bbb     H8    853 0.04936100   1.008000   ; qtot -0.035757
  854         c3     29    bbb     C5    854 0.11363000  12.010000   ; qtot 0.077873
  855         hc     29    bbb     H9    855 0.06265900   1.008000   ; qtot 0.140532
  856         hc     29    bbb    H10    856 0.06265900   1.008000   ; qtot 0.203191
  857         c3     29    bbb     C6    857 0.11363000  12.010000   ; qtot 0.316821
  858         hc     29    bbb    H11    858 0.06265900   1.008000   ; qtot 0.379480
  859         hc     29    bbb    H12    859 0.06265900   1.008000   ; qtot 0.442139
  860         c3     29    bbb     C7    860 0.05858200  12.010000   ; qtot 0.500721
  861         h1     29    bbb    H13    861 0.06123400   1.008000   ; qtot 0.561955
  862         h1     29    bbb    H14    862 0.06123400   1.008000   ; qtot 0.623189
  863         c3     29    bbb     C8    863 -0.72423400  12.010000   ; qtot -0.101045
  864         h1     29    bbb    H15    864 0.25637600   1.008000   ; qtot 0.155331
  865         h1     29    bbb    H16    865 0.25637600   1.008000   ; qtot 0.411707
  866         c3     29    bbb     C9    866 -0.72423400  12.010000   ; qtot -0.312527
  867         h1     29    bbb    H17    867 0.25637600   1.008000   ; qtot -0.056151
  868         h1     29    bbb    H18    868 0.25637600   1.008000   ; qtot 0.200225
  869         os     29    bbb     O1    869 -0.20025300  16.000000   ; qtot -0.000028
; residue   30 ccc rtp ccc q 1.0
  870         c3     30    ccc     C1    870 0.17060900  12.010000   ; qtot 0.170581
  871         hx     30    ccc     H1    871 0.04213200   1.008000   ; qtot 0.212713
  872         hx     30    ccc     H2    872 0.04213200   1.008000   ; qtot 0.254845
  873         c3     30    ccc     C2    873 -0.04496700  12.010000   ; qtot 0.209878
  874         hc     30    ccc     H3    874 0.02647500   1.008000   ; qtot 0.236353
  875         hc     30    ccc     H4    875 0.02647500   1.008000   ; qtot 0.262828
  876         c3     30    ccc     C3    876 0.04732600  12.010000   ; qtot 0.310154
  877         h1     30    ccc     H5    877 0.07030200   1.008000   ; qtot 0.380456
  878         h1     30    ccc     H6    878 0.07030200   1.008000   ; qtot 0.450758
  879         n4     30    ccc     N1    879 -0.21077700  14.010000   ; qtot 0.239981
  880         hn     30    ccc     H7    880 0.28399900   1.008000   ; qtot 0.523980
  881         hn     30    ccc     H8    881 0.28399900   1.008000   ; qtot 0.807979
  882         os     30    ccc     O1    882 -0.09200600  16.000000   ; qtot 0.715973
  883         hn     30    ccc    H17    883 0.28399900   1.008000   ; qtot 0.999972
; residue   31 ccc rtp ccc q 1.0
  884         c3     31    ccc     C1    884 0.17060900  12.010000   ; qtot 1.170581
  885         hx     31    ccc     H1    885 0.04213200   1.008000   ; qtot 1.212713
  886         hx     31    ccc     H2    886 0.04213200   1.008000   ; qtot 1.254845
  887         c3     31    ccc     C2    887 -0.04496700  12.010000   ; qtot 1.209878
  888         hc     31    ccc     H3    888 0.02647500   1.008000   ; qtot 1.236353
  889         hc     31    ccc     H4    889 0.02647500   1.008000   ; qtot 1.262828
  890         c3     31    ccc     C3    890 0.04732600  12.010000   ; qtot 1.310154
  891         h1     31    ccc     H5    891 0.07030200   1.008000   ; qtot 1.380456
  892         h1     31    ccc     H6    892 0.07030200   1.008000   ; qtot 1.450758
  893         n4     31    ccc     N1    893 -0.21077700  14.010000   ; qtot 1.239981
  894         hn     31    ccc     H7    894 0.28399900   1.008000   ; qtot 1.523980
  895         hn     31    ccc     H8    895 0.28399900   1.008000   ; qtot 1.807979
  896         os     31    ccc     O1    896 -0.09200600  16.000000   ; qtot 1.715973
  897         hn     31    ccc    H17    897 0.28399900   1.008000   ; qtot 1.999972
; residue   32 ccc rtp ccc q 1.0
  898         c3     32    ccc     C1    898 0.17060900  12.010000   ; qtot 2.170581
  899         hx     32    ccc     H1    899 0.04213200   1.008000   ; qtot 2.212713
  900         hx     32    ccc     H2    900 0.04213200   1.008000   ; qtot 2.254845
  901         c3     32    ccc     C2    901 -0.04496700  12.010000   ; qtot 2.209878
  902         hc     32    ccc     H3    902 0.02647500   1.008000   ; qtot 2.236353
  903         hc     32    ccc     H4    903 0.02647500   1.008000   ; qtot 2.262828
  904         c3     32    ccc     C3    904 0.04732600  12.010000   ; qtot 2.310154
  905         h1     32    ccc     H5    905 0.07030200   1.008000   ; qtot 2.380456
  906         h1     32    ccc     H6    906 0.07030200   1.008000   ; qtot 2.450758
  907         n4     32    ccc     N1    907 -0.21077700  14.010000   ; qtot 2.239981
  908         hn     32    ccc     H7    908 0.28399900   1.008000   ; qtot 2.523980
  909         hn     32    ccc     H8    909 0.28399900   1.008000   ; qtot 2.807979
  910         os     32    ccc     O1    910 -0.09200600  16.000000   ; qtot 2.715973
  911         hn     32    ccc    H17    911 0.28399900   1.008000   ; qtot 2.999972
; residue   33 ccc rtp ccc q 1.0
  912         c3     33    ccc     C1    912 0.17060900  12.010000   ; qtot 3.170581
  913         hx     33    ccc     H1    913 0.04213200   1.008000   ; qtot 3.212713
  914         hx     33    ccc     H2    914 0.04213200   1.008000   ; qtot 3.254845
  915         c3     33    ccc     C2    915 -0.04496700  12.010000   ; qtot 3.209878
  916         hc     33    ccc     H3    916 0.02647500   1.008000   ; qtot 3.236353
  917         hc     33    ccc     H4    917 0.02647500   1.008000   ; qtot 3.262828
  918         c3     33    ccc     C3    918 0.04732600  12.010000   ; qtot 3.310154
  919         h1     33    ccc     H5    919 0.07030200   1.008000   ; qtot 3.380456
  920         h1     33    ccc     H6    920 0.07030200   1.008000   ; qtot 3.450758
  921         n4     33    ccc     N1    921 -0.21077700  14.010000   ; qtot 3.239981
  922         hn     33    ccc     H7    922 0.28399900   1.008000   ; qtot 3.523980
  923         hn     33    ccc     H8    923 0.28399900   1.008000   ; qtot 3.807979
  924         os     33    ccc     O1    924 -0.09200600  16.000000   ; qtot 3.715973
  925         hn     33    ccc    H17    925 0.28399900   1.008000   ; qtot 3.999972
; residue   34 ccc rtp ccc q 1.0
  926         c3     34    ccc     C1    926 0.17060900  12.010000   ; qtot 4.170581
  927         hx     34    ccc     H1    927 0.04213200   1.008000   ; qtot 4.212713
  928         hx     34    ccc     H2    928 0.04213200   1.008000   ; qtot 4.254845
  929         c3     34    ccc     C2    929 -0.04496700  12.010000   ; qtot 4.209878
  930         hc     34    ccc     H3    930 0.02647500   1.008000   ; qtot 4.236353
  931         hc     34    ccc     H4    931 0.02647500   1.008000   ; qtot 4.262828
  932         c3     34    ccc     C3    932 0.04732600  12.010000   ; qtot 4.310154
  933         h1     34    ccc     H5    933 0.07030200   1.008000   ; qtot 4.380456
  934         h1     34    ccc     H6    934 0.07030200   1.008000   ; qtot 4.450758
  935         n4     34    ccc     N1    935 -0.21077700  14.010000   ; qtot 4.239981
  936         hn     34    ccc     H7    936 0.28399900   1.008000   ; qtot 4.523980
  937         hn     34    ccc     H8    937 0.28399900   1.008000   ; qtot 4.807979
  938         os     34    ccc     O1    938 -0.09200600  16.000000   ; qtot 4.715973
  939         hn     34    ccc    H17    939 0.28399900   1.008000   ; qtot 4.999972
; residue   35 ccc rtp ccc q 1.0
  940         c3     35    ccc     C1    940 0.17060900  12.010000   ; qtot 5.170581
  941         hx     35    ccc     H1    941 0.04213200   1.008000   ; qtot 5.212713
  942         hx     35    ccc     H2    942 0.04213200   1.008000   ; qtot 5.254845
  943         c3     35    ccc     C2    943 -0.04496700  12.010000   ; qtot 5.209878
  944         hc     35    ccc     H3    944 0.02647500   1.008000   ; qtot 5.236353
  945         hc     35    ccc     H4    945 0.02647500   1.008000   ; qtot 5.262828
  946         c3     35    ccc     C3    946 0.04732600  12.010000   ; qtot 5.310154
  947         h1     35    ccc     H5    947 0.07030200   1.008000   ; qtot 5.380456
  948         h1     35    ccc     H6    948 0.07030200   1.008000   ; qtot 5.450758
  949         n4     35    ccc     N1    949 -0.21077700  14.010000   ; qtot 5.239981
  950         hn     35    ccc     H7    950 0.28399900   1.008000   ; qtot 5.523980
  951         hn     35    ccc     H8    951 0.28399900   1.008000   ; qtot 5.807979
  952         os     35    ccc     O1    952 -0.09200600  16.000000   ; qtot 5.715973
  953         hn     35    ccc    H17    953 0.28399900   1.008000   ; qtot 5.999972
; residue   36 ccc rtp ccc q 1.0
  954         c3     36    ccc     C1    954 0.17060900  12.010000   ; qtot 6.170581
  955         hx     36    ccc     H1    955 0.04213200   1.008000   ; qtot 6.212713
  956         hx     36    ccc     H2    956 0.04213200   1.008000   ; qtot 6.254845
  957         c3     36    ccc     C2    957 -0.04496700  12.010000   ; qtot 6.209878
  958         hc     36    ccc     H3    958 0.02647500   1.008000   ; qtot 6.236353
  959         hc     36    ccc     H4    959 0.02647500   1.008000   ; qtot 6.262828
  960         c3     36    ccc     C3    960 0.04732600  12.010000   ; qtot 6.310154
  961         h1     36    ccc     H5    961 0.07030200   1.008000   ; qtot 6.380456
  962         h1     36    ccc     H6    962 0.07030200   1.008000   ; qtot 6.450758
  963         n4     36    ccc     N1    963 -0.21077700  14.010000   ; qtot 6.239981
  964         hn     36    ccc     H7    964 0.28399900   1.008000   ; qtot 6.523980
  965         hn     36    ccc     H8    965 0.28399900   1.008000   ; qtot 6.807979
  966         os     36    ccc     O1    966 -0.09200600  16.000000   ; qtot 6.715973
  967         hn     36    ccc    H17    967 0.28399900   1.008000   ; qtot 6.999972
; residue   37 ccc rtp ccc q 1.0
  968         c3     37    ccc     C1    968 0.17060900  12.010000   ; qtot 7.170581
  969         hx     37    ccc     H1    969 0.04213200   1.008000   ; qtot 7.212713
  970         hx     37    ccc     H2    970 0.04213200   1.008000   ; qtot 7.254845
  971         c3     37    ccc     C2    971 -0.04496700  12.010000   ; qtot 7.209878
  972         hc     37    ccc     H3    972 0.02647500   1.008000   ; qtot 7.236353
  973         hc     37    ccc     H4    973 0.02647500   1.008000   ; qtot 7.262828
  974         c3     37    ccc     C3    974 0.04732600  12.010000   ; qtot 7.310154
  975         h1     37    ccc     H5    975 0.07030200   1.008000   ; qtot 7.380456
  976         h1     37    ccc     H6    976 0.07030200   1.008000   ; qtot 7.450758
  977         n4     37    ccc     N1    977 -0.21077700  14.010000   ; qtot 7.239981
  978         hn     37    ccc     H7    978 0.28399900   1.008000   ; qtot 7.523980
  979         hn     37    ccc     H8    979 0.28399900   1.008000   ; qtot 7.807979
  980         os     37    ccc     O1    980 -0.09200600  16.000000   ; qtot 7.715973
  981         hn     37    ccc    H17    981 0.28399900   1.008000   ; qtot 7.999972
; residue   38 ccc rtp ccc q 1.0
  982         c3     38    ccc     C1    982 0.17060900  12.010000   ; qtot 8.170581
  983         hx     38    ccc     H1    983 0.04213200   1.008000   ; qtot 8.212713
  984         hx     38    ccc     H2    984 0.04213200   1.008000   ; qtot 8.254845
  985         c3     38    ccc     C2    985 -0.04496700  12.010000   ; qtot 8.209878
  986         hc     38    ccc     H3    986 0.02647500   1.008000   ; qtot 8.236353
  987         hc     38    ccc     H4    987 0.02647500   1.008000   ; qtot 8.262828
  988         c3     38    ccc     C3    988 0.04732600  12.010000   ; qtot 8.310154
  989         h1     38    ccc     H5    989 0.07030200   1.008000   ; qtot 8.380456
  990         h1     38    ccc     H6    990 0.07030200   1.008000   ; qtot 8.450758
  991         n4     38    ccc     N1    991 -0.21077700  14.010000   ; qtot 8.239981
  992         hn     38    ccc     H7    992 0.28399900   1.008000   ; qtot 8.523980
  993         hn     38    ccc     H8    993 0.28399900   1.008000   ; qtot 8.807979
  994         os     38    ccc     O1    994 -0.09200600  16.000000   ; qtot 8.715973
  995         hn     38    ccc    H17    995 0.28399900   1.008000   ; qtot 8.999972
; residue   39 ccc rtp ccc q 1.0
  996         c3     39    ccc     C1    996 0.17060900  12.010000   ; qtot 9.170581
  997         hx     39    ccc     H1    997 0.04213200   1.008000   ; qtot 9.212713
  998         hx     39    ccc     H2    998 0.04213200   1.008000   ; qtot 9.254845
  999         c3     39    ccc     C2    999 -0.04496700  12.010000   ; qtot 9.209878
 1000         hc     39    ccc     H3   1000 0.02647500   1.008000   ; qtot 9.236353
 1001         hc     39    ccc     H4   1001 0.02647500   1.008000   ; qtot 9.262828
 1002         c3     39    ccc     C3   1002 0.04732600  12.010000   ; qtot 9.310154
 1003         h1     39    ccc     H5   1003 0.07030200   1.008000   ; qtot 9.380456
 1004         h1     39    ccc     H6   1004 0.07030200   1.008000   ; qtot 9.450758
 1005         n4     39    ccc     N1   1005 -0.21077700  14.010000   ; qtot 9.239981
 1006         hn     39    ccc     H7   1006 0.28399900   1.008000   ; qtot 9.523980
 1007         hn     39    ccc     H8   1007 0.28399900   1.008000   ; qtot 9.807979
 1008         os     39    ccc     O1   1008 -0.09200600  16.000000   ; qtot 9.715973
 1009         hn     39    ccc    H17   1009 0.28399900   1.008000   ; qtot 9.999972
; residue   40 ccc rtp ccc q 1.0
 1010         c3     40    ccc     C1   1010 0.17060900  12.010000   ; qtot 10.170581
 1011         hx     40    ccc     H1   1011 0.04213200   1.008000   ; qtot 10.212713
 1012         hx     40    ccc     H2   1012 0.04213200   1.008000   ; qtot 10.254845
 1013         c3     40    ccc     C2   1013 -0.04496700  12.010000   ; qtot 10.209878
 1014         hc     40    ccc     H3   1014 0.02647500   1.008000   ; qtot 10.236353
 1015         hc     40    ccc     H4   1015 0.02647500   1.008000   ; qtot 10.262828
 1016         c3     40    ccc     C3   1016 0.04732600  12.010000   ; qtot 10.310154
 1017         h1     40    ccc     H5   1017 0.07030200   1.008000   ; qtot 10.380456
 1018         h1     40    ccc     H6   1018 0.07030200   1.008000   ; qtot 10.450758
 1019         n4     40    ccc     N1   1019 -0.21077700  14.010000   ; qtot 10.239981
 1020         hn     40    ccc     H7   1020 0.28399900   1.008000   ; qtot 10.523980
 1021         hn     40    ccc     H8   1021 0.28399900   1.008000   ; qtot 10.807979
 1022         os     40    ccc     O1   1022 -0.09200600  16.000000   ; qtot 10.715973
 1023         hn     40    ccc    H17   1023 0.28399900   1.008000   ; qtot 10.999972
; residue   41 ccc rtp ccc q 1.0
 1024         c3     41    ccc     C1   1024 0.17060900  12.010000   ; qtot 11.170581
 1025         hx     41    ccc     H1   1025 0.04213200   1.008000   ; qtot 11.212713
 1026         hx     41    ccc     H2   1026 0.04213200   1.008000   ; qtot 11.254845
 1027         c3     41    ccc     C2   1027 -0.04496700  12.010000   ; qtot 11.209878
 1028         hc     41    ccc     H3   1028 0.02647500   1.008000   ; qtot 11.236353
 1029         hc     41    ccc     H4   1029 0.02647500   1.008000   ; qtot 11.262828
 1030         c3     41    ccc     C3   1030 0.04732600  12.010000   ; qtot 11.310154
 1031         h1     41    ccc     H5   1031 0.07030200   1.008000   ; qtot 11.380456
 1032         h1     41    ccc     H6   1032 0.07030200   1.008000   ; qtot 11.450758
 1033         n4     41    ccc     N1   1033 -0.21077700  14.010000   ; qtot 11.239981
 1034         hn     41    ccc     H7   1034 0.28399900   1.008000   ; qtot 11.523980
 1035         hn     41    ccc     H8   1035 0.28399900   1.008000   ; qtot 11.807979
 1036         os     41    ccc     O1   1036 -0.09200600  16.000000   ; qtot 11.715973
 1037         hn     41    ccc    H17   1037 0.28399900   1.008000   ; qtot 11.999972
; residue   42 ccc rtp ccc q 1.0
 1038         c3     42    ccc     C1   1038 0.17060900  12.010000   ; qtot 12.170581
 1039         hx     42    ccc     H1   1039 0.04213200   1.008000   ; qtot 12.212713
 1040         hx     42    ccc     H2   1040 0.04213200   1.008000   ; qtot 12.254845
 1041         c3     42    ccc     C2   1041 -0.04496700  12.010000   ; qtot 12.209878
 1042         hc     42    ccc     H3   1042 0.02647500   1.008000   ; qtot 12.236353
 1043         hc     42    ccc     H4   1043 0.02647500   1.008000   ; qtot 12.262828
 1044         c3     42    ccc     C3   1044 0.04732600  12.010000   ; qtot 12.310154
 1045         h1     42    ccc     H5   1045 0.07030200   1.008000   ; qtot 12.380456
 1046         h1     42    ccc     H6   1046 0.07030200   1.008000   ; qtot 12.450758
 1047         n4     42    ccc     N1   1047 -0.21077700  14.010000   ; qtot 12.239981
 1048         hn     42    ccc     H7   1048 0.28399900   1.008000   ; qtot 12.523980
 1049         hn     42    ccc     H8   1049 0.28399900   1.008000   ; qtot 12.807979
 1050         os     42    ccc     O1   1050 -0.09200600  16.000000   ; qtot 12.715973
 1051         hn     42    ccc    H17   1051 0.28399900   1.008000   ; qtot 12.999972
; residue   43 ccc rtp ccc q 1.0
 1052         c3     43    ccc     C1   1052 0.17060900  12.010000   ; qtot 13.170581
 1053         hx     43    ccc     H1   1053 0.04213200   1.008000   ; qtot 13.212713
 1054         hx     43    ccc     H2   1054 0.04213200   1.008000   ; qtot 13.254845
 1055         c3     43    ccc     C2   1055 -0.04496700  12.010000   ; qtot 13.209878
 1056         hc     43    ccc     H3   1056 0.02647500   1.008000   ; qtot 13.236353
 1057         hc     43    ccc     H4   1057 0.02647500   1.008000   ; qtot 13.262828
 1058         c3     43    ccc     C3   1058 0.04732600  12.010000   ; qtot 13.310154
 1059         h1     43    ccc     H5   1059 0.07030200   1.008000   ; qtot 13.380456
 1060         h1     43    ccc     H6   1060 0.07030200   1.008000   ; qtot 13.450758
 1061         n4     43    ccc     N1   1061 -0.21077700  14.010000   ; qtot 13.239981
 1062         hn     43    ccc     H7   1062 0.28399900   1.008000   ; qtot 13.523980
 1063         hn     43    ccc     H8   1063 0.28399900   1.008000   ; qtot 13.807979
 1064         os     43    ccc     O1   1064 -0.09200600  16.000000   ; qtot 13.715973
 1065         hn     43    ccc    H17   1065 0.28399900   1.008000   ; qtot 13.999972
; residue   44 ccc rtp ccc q 1.0
 1066         c3     44    ccc     C1   1066 0.17060900  12.010000   ; qtot 14.170581
 1067         hx     44    ccc     H1   1067 0.04213200   1.008000   ; qtot 14.212713
 1068         hx     44    ccc     H2   1068 0.04213200   1.008000   ; qtot 14.254845
 1069         c3     44    ccc     C2   1069 -0.04496700  12.010000   ; qtot 14.209878
 1070         hc     44    ccc     H3   1070 0.02647500   1.008000   ; qtot 14.236353
 1071         hc     44    ccc     H4   1071 0.02647500   1.008000   ; qtot 14.262828
 1072         c3     44    ccc     C3   1072 0.04732600  12.010000   ; qtot 14.310154
 1073         h1     44    ccc     H5   1073 0.07030200   1.008000   ; qtot 14.380456
 1074         h1     44    ccc     H6   1074 0.07030200   1.008000   ; qtot 14.450758
 1075         n4     44    ccc     N1   1075 -0.21077700  14.010000   ; qtot 14.239981
 1076         hn     44    ccc     H7   1076 0.28399900   1.008000   ; qtot 14.523980
 1077         hn     44    ccc     H8   1077 0.28399900   1.008000   ; qtot 14.807979
 1078         os     44    ccc     O1   1078 -0.09200600  16.000000   ; qtot 14.715973
 1079         hn     44    ccc    H17   1079 0.28399900   1.008000   ; qtot 14.999972
; residue   45 ccc rtp ccc q 1.0
 1080         c3     45    ccc     C1   1080 0.17060900  12.010000   ; qtot 15.170581
 1081         hx     45    ccc     H1   1081 0.04213200   1.008000   ; qtot 15.212713
 1082         hx     45    ccc     H2   1082 0.04213200   1.008000   ; qtot 15.254845
 1083         c3     45    ccc     C2   1083 -0.04496700  12.010000   ; qtot 15.209878
 1084         hc     45    ccc     H3   1084 0.02647500   1.008000   ; qtot 15.236353
 1085         hc     45    ccc     H4   1085 0.02647500   1.008000   ; qtot 15.262828
 1086         c3     45    ccc     C3   1086 0.04732600  12.010000   ; qtot 15.310154
 1087         h1     45    ccc     H5   1087 0.07030200   1.008000   ; qtot 15.380456
 1088         h1     45    ccc     H6   1088 0.07030200   1.008000   ; qtot 15.450758
 1089         n4     45    ccc     N1   1089 -0.21077700  14.010000   ; qtot 15.239981
 1090         hn     45    ccc     H7   1090 0.28399900   1.008000   ; qtot 15.523980
 1091         hn     45    ccc     H8   1091 0.28399900   1.008000   ; qtot 15.807979
 1092         os     45    ccc     O1   1092 -0.09200600  16.000000   ; qtot 15.715973
 1093         hn     45    ccc    H17   1093 0.28399900   1.008000   ; qtot 15.999972
; residue   46 ccc rtp ccc q 1.0
 1094         c3     46    ccc     C1   1094 0.17060900  12.010000   ; qtot 16.170581
 1095         hx     46    ccc     H1   1095 0.04213200   1.008000   ; qtot 16.212713
 1096         hx     46    ccc     H2   1096 0.04213200   1.008000   ; qtot 16.254845
 1097         c3     46    ccc     C2   1097 -0.04496700  12.010000   ; qtot 16.209878
 1098         hc     46    ccc     H3   1098 0.02647500   1.008000   ; qtot 16.236353
 1099         hc     46    ccc     H4   1099 0.02647500   1.008000   ; qtot 16.262828
 1100         c3     46    ccc     C3   1100 0.04732600  12.010000   ; qtot 16.310154
 1101         h1     46    ccc     H5   1101 0.07030200   1.008000   ; qtot 16.380456
 1102         h1     46    ccc     H6   1102 0.07030200   1.008000   ; qtot 16.450758
 1103         n4     46    ccc     N1   1103 -0.21077700  14.010000   ; qtot 16.239981
 1104         hn     46    ccc     H7   1104 0.28399900   1.008000   ; qtot 16.523980
 1105         hn     46    ccc     H8   1105 0.28399900   1.008000   ; qtot 16.807979
 1106         os     46    ccc     O1   1106 -0.09200600  16.000000   ; qtot 16.715973
 1107         hn     46    ccc    H17   1107 0.28399900   1.008000   ; qtot 16.999972
; residue   47 ccc rtp ccc q 1.0
 1108         c3     47    ccc     C1   1108 0.17060900  12.010000   ; qtot 17.170581
 1109         hx     47    ccc     H1   1109 0.04213200   1.008000   ; qtot 17.212713
 1110         hx     47    ccc     H2   1110 0.04213200   1.008000   ; qtot 17.254845
 1111         c3     47    ccc     C2   1111 -0.04496700  12.010000   ; qtot 17.209878
 1112         hc     47    ccc     H3   1112 0.02647500   1.008000   ; qtot 17.236353
 1113         hc     47    ccc     H4   1113 0.02647500   1.008000   ; qtot 17.262828
 1114         c3     47    ccc     C3   1114 0.04732600  12.010000   ; qtot 17.310154
 1115         h1     47    ccc     H5   1115 0.07030200   1.008000   ; qtot 17.380456
 1116         h1     47    ccc     H6   1116 0.07030200   1.008000   ; qtot 17.450758
 1117         n4     47    ccc     N1   1117 -0.21077700  14.010000   ; qtot 17.239981
 1118         hn     47    ccc     H7   1118 0.28399900   1.008000   ; qtot 17.523980
 1119         hn     47    ccc     H8   1119 0.28399900   1.008000   ; qtot 17.807979
 1120         os     47    ccc     O1   1120 -0.09200600  16.000000   ; qtot 17.715973
 1121         hn     47    ccc    H17   1121 0.28399900   1.008000   ; qtot 17.999972
; residue   48 ccc rtp ccc q 1.0
 1122         c3     48    ccc     C1   1122 0.17060900  12.010000   ; qtot 18.170581
 1123         hx     48    ccc     H1   1123 0.04213200   1.008000   ; qtot 18.212713
 1124         hx     48    ccc     H2   1124 0.04213200   1.008000   ; qtot 18.254845
 1125         c3     48    ccc     C2   1125 -0.04496700  12.010000   ; qtot 18.209878
 1126         hc     48    ccc     H3   1126 0.02647500   1.008000   ; qtot 18.236353
 1127         hc     48    ccc     H4   1127 0.02647500   1.008000   ; qtot 18.262828
 1128         c3     48    ccc     C3   1128 0.04732600  12.010000   ; qtot 18.310154
 1129         h1     48    ccc     H5   1129 0.07030200   1.008000   ; qtot 18.380456
 1130         h1     48    ccc     H6   1130 0.07030200   1.008000   ; qtot 18.450758
 1131         n4     48    ccc     N1   1131 -0.21077700  14.010000   ; qtot 18.239981
 1132         hn     48    ccc     H7   1132 0.28399900   1.008000   ; qtot 18.523980
 1133         hn     48    ccc     H8   1133 0.28399900   1.008000   ; qtot 18.807979
 1134         os     48    ccc     O1   1134 -0.09200600  16.000000   ; qtot 18.715973
 1135         hn     48    ccc    H17   1135 0.28399900   1.008000   ; qtot 18.999972
; residue   49 ccc rtp ccc q 1.0
 1136         c3     49    ccc     C1   1136 0.17060900  12.010000   ; qtot 19.170581
 1137         hx     49    ccc     H1   1137 0.04213200   1.008000   ; qtot 19.212713
 1138         hx     49    ccc     H2   1138 0.04213200   1.008000   ; qtot 19.254845
 1139         c3     49    ccc     C2   1139 -0.04496700  12.010000   ; qtot 19.209878
 1140         hc     49    ccc     H3   1140 0.02647500   1.008000   ; qtot 19.236353
 1141         hc     49    ccc     H4   1141 0.02647500   1.008000   ; qtot 19.262828
 1142         c3     49    ccc     C3   1142 0.04732600  12.010000   ; qtot 19.310154
 1143         h1     49    ccc     H5   1143 0.07030200   1.008000   ; qtot 19.380456
 1144         h1     49    ccc     H6   1144 0.07030200   1.008000   ; qtot 19.450758
 1145         n4     49    ccc     N1   1145 -0.21077700  14.010000   ; qtot 19.239981
 1146         hn     49    ccc     H7   1146 0.28399900   1.008000   ; qtot 19.523980
 1147         hn     49    ccc     H8   1147 0.28399900   1.008000   ; qtot 19.807979
 1148         os     49    ccc     O1   1148 -0.09200600  16.000000   ; qtot 19.715973
 1149         hn     49    ccc    H17   1149 0.28399900   1.008000   ; qtot 19.999972
; residue   50 ccc rtp ccc q 1.0
 1150         c3     50    ccc     C1   1150 0.17060900  12.010000   ; qtot 20.170581
 1151         hx     50    ccc     H1   1151 0.04213200   1.008000   ; qtot 20.212713
 1152         hx     50    ccc     H2   1152 0.04213200   1.008000   ; qtot 20.254845
 1153         c3     50    ccc     C2   1153 -0.04496700  12.010000   ; qtot 20.209878
 1154         hc     50    ccc     H3   1154 0.02647500   1.008000   ; qtot 20.236353
 1155         hc     50    ccc     H4   1155 0.02647500   1.008000   ; qtot 20.262828
 1156         c3     50    ccc     C3   1156 0.04732600  12.010000   ; qtot 20.310154
 1157         h1     50    ccc     H5   1157 0.07030200   1.008000   ; qtot 20.380456
 1158         h1     50    ccc     H6   1158 0.07030200   1.008000   ; qtot 20.450758
 1159         n4     50    ccc     N1   1159 -0.21077700  14.010000   ; qtot 20.239981
 1160         hn     50    ccc     H7   1160 0.28399900   1.008000   ; qtot 20.523980
 1161         hn     50    ccc     H8   1161 0.28399900   1.008000   ; qtot 20.807979
 1162         os     50    ccc     O1   1162 -0.09200600  16.000000   ; qtot 20.715973
 1163         hn     50    ccc    H17   1163 0.28399900   1.008000   ; qtot 20.999972
; residue   51 ccc rtp ccc q 1.0
 1164         c3     51    ccc     C1   1164 0.17060900  12.010000   ; qtot 21.170581
 1165         hx     51    ccc     H1   1165 0.04213200   1.008000   ; qtot 21.212713
 1166         hx     51    ccc     H2   1166 0.04213200   1.008000   ; qtot 21.254845
 1167         c3     51    ccc     C2   1167 -0.04496700  12.010000   ; qtot 21.209878
 1168         hc     51    ccc     H3   1168 0.02647500   1.008000   ; qtot 21.236353
 1169         hc     51    ccc     H4   1169 0.02647500   1.008000   ; qtot 21.262828
 1170         c3     51    ccc     C3   1170 0.04732600  12.010000   ; qtot 21.310154
 1171         h1     51    ccc     H5   1171 0.07030200   1.008000   ; qtot 21.380456
 1172         h1     51    ccc     H6   1172 0.07030200   1.008000   ; qtot 21.450758
 1173         n4     51    ccc     N1   1173 -0.21077700  14.010000   ; qtot 21.239981
 1174         hn     51    ccc     H7   1174 0.28399900   1.008000   ; qtot 21.523980
 1175         hn     51    ccc     H8   1175 0.28399900   1.008000   ; qtot 21.807979
 1176         os     51    ccc     O1   1176 -0.09200600  16.000000   ; qtot 21.715973
 1177         hn     51    ccc    H17   1177 0.28399900   1.008000   ; qtot 21.999972
; residue   52 ccc rtp ccc q 1.0
 1178         c3     52    ccc     C1   1178 0.17060900  12.010000   ; qtot 22.170581
 1179         hx     52    ccc     H1   1179 0.04213200   1.008000   ; qtot 22.212713
 1180         hx     52    ccc     H2   1180 0.04213200   1.008000   ; qtot 22.254845
 1181         c3     52    ccc     C2   1181 -0.04496700  12.010000   ; qtot 22.209878
 1182         hc     52    ccc     H3   1182 0.02647500   1.008000   ; qtot 22.236353
 1183         hc     52    ccc     H4   1183 0.02647500   1.008000   ; qtot 22.262828
 1184         c3     52    ccc     C3   1184 0.04732600  12.010000   ; qtot 22.310154
 1185         h1     52    ccc     H5   1185 0.07030200   1.008000   ; qtot 22.380456
 1186         h1     52    ccc     H6   1186 0.07030200   1.008000   ; qtot 22.450758
 1187         n4     52    ccc     N1   1187 -0.21077700  14.010000   ; qtot 22.239981
 1188         hn     52    ccc     H7   1188 0.28399900   1.008000   ; qtot 22.523980
 1189         hn     52    ccc     H8   1189 0.28399900   1.008000   ; qtot 22.807979
 1190         os     52    ccc     O1   1190 -0.09200600  16.000000   ; qtot 22.715973
 1191         hn     52    ccc    H17   1191 0.28399900   1.008000   ; qtot 22.999972
; residue   53 ccc rtp ccc q 1.0
 1192         c3     53    ccc     C1   1192 0.17060900  12.010000   ; qtot 23.170581
 1193         hx     53    ccc     H1   1193 0.04213200   1.008000   ; qtot 23.212713
 1194         hx     53    ccc     H2   1194 0.04213200   1.008000   ; qtot 23.254845
 1195         c3     53    ccc     C2   1195 -0.04496700  12.010000   ; qtot 23.209878
 1196         hc     53    ccc     H3   1196 0.02647500   1.008000   ; qtot 23.236353
 1197         hc     53    ccc     H4   1197 0.02647500   1.008000   ; qtot 23.262828
 1198         c3     53    ccc     C3   1198 0.04732600  12.010000   ; qtot 23.310154
 1199         h1     53    ccc     H5   1199 0.07030200   1.008000   ; qtot 23.380456
 1200         h1     53    ccc     H6   1200 0.07030200   1.008000   ; qtot 23.450758
 1201         n4     53    ccc     N1   1201 -0.21077700  14.010000   ; qtot 23.239981
 1202         hn     53    ccc     H7   1202 0.28399900   1.008000   ; qtot 23.523980
 1203         hn     53    ccc     H8   1203 0.28399900   1.008000   ; qtot 23.807979
 1204         os     53    ccc     O1   1204 -0.09200600  16.000000   ; qtot 23.715973
 1205         hn     53    ccc    H17   1205 0.28399900   1.008000   ; qtot 23.999972
; residue   54 ccc rtp ccc q 1.0
 1206         c3     54    ccc     C1   1206 0.17060900  12.010000   ; qtot 24.170581
 1207         hx     54    ccc     H1   1207 0.04213200   1.008000   ; qtot 24.212713
 1208         hx     54    ccc     H2   1208 0.04213200   1.008000   ; qtot 24.254845
 1209         c3     54    ccc     C2   1209 -0.04496700  12.010000   ; qtot 24.209878
 1210         hc     54    ccc     H3   1210 0.02647500   1.008000   ; qtot 24.236353
 1211         hc     54    ccc     H4   1211 0.02647500   1.008000   ; qtot 24.262828
 1212         c3     54    ccc     C3   1212 0.04732600  12.010000   ; qtot 24.310154
 1213         h1     54    ccc     H5   1213 0.07030200   1.008000   ; qtot 24.380456
 1214         h1     54    ccc     H6   1214 0.07030200   1.008000   ; qtot 24.450758
 1215         n4     54    ccc     N1   1215 -0.21077700  14.010000   ; qtot 24.239981
 1216         hn     54    ccc     H7   1216 0.28399900   1.008000   ; qtot 24.523980
 1217         hn     54    ccc     H8   1217 0.28399900   1.008000   ; qtot 24.807979
 1218         os     54    ccc     O1   1218 -0.09200600  16.000000   ; qtot 24.715973
 1219         hn     54    ccc    H17   1219 0.28399900   1.008000   ; qtot 24.999972
; residue   55 ccc rtp ccc q 1.0
 1220         c3     55    ccc     C1   1220 0.17060900  12.010000   ; qtot 25.170581
 1221         hx     55    ccc     H1   1221 0.04213200   1.008000   ; qtot 25.212713
 1222         hx     55    ccc     H2   1222 0.04213200   1.008000   ; qtot 25.254845
 1223         c3     55    ccc     C2   1223 -0.04496700  12.010000   ; qtot 25.209878
 1224         hc     55    ccc     H3   1224 0.02647500   1.008000   ; qtot 25.236353
 1225         hc     55    ccc     H4   1225 0.02647500   1.008000   ; qtot 25.262828
 1226         c3     55    ccc     C3   1226 0.04732600  12.010000   ; qtot 25.310154
 1227         h1     55    ccc     H5   1227 0.07030200   1.008000   ; qtot 25.380456
 1228         h1     55    ccc     H6   1228 0.07030200   1.008000   ; qtot 25.450758
 1229         n4     55    ccc     N1   1229 -0.21077700  14.010000   ; qtot 25.239981
 1230         hn     55    ccc     H7   1230 0.28399900   1.008000   ; qtot 25.523980
 1231         hn     55    ccc     H8   1231 0.28399900   1.008000   ; qtot 25.807979
 1232         os     55    ccc     O1   1232 -0.09200600  16.000000   ; qtot 25.715973
 1233         hn     55    ccc    H17   1233 0.28399900   1.008000   ; qtot 25.999972
; residue   56 ccc rtp ccc q 1.0
 1234         c3     56    ccc     C1   1234 0.17060900  12.010000   ; qtot 26.170581
 1235         hx     56    ccc     H1   1235 0.04213200   1.008000   ; qtot 26.212713
 1236         hx     56    ccc     H2   1236 0.04213200   1.008000   ; qtot 26.254845
 1237         c3     56    ccc     C2   1237 -0.04496700  12.010000   ; qtot 26.209878
 1238         hc     56    ccc     H3   1238 0.02647500   1.008000   ; qtot 26.236353
 1239         hc     56    ccc     H4   1239 0.02647500   1.008000   ; qtot 26.262828
 1240         c3     56    ccc     C3   1240 0.04732600  12.010000   ; qtot 26.310154
 1241         h1     56    ccc     H5   1241 0.07030200   1.008000   ; qtot 26.380456
 1242         h1     56    ccc     H6   1242 0.07030200   1.008000   ; qtot 26.450758
 1243         n4     56    ccc     N1   1243 -0.21077700  14.010000   ; qtot 26.239981
 1244         hn     56    ccc     H7   1244 0.28399900   1.008000   ; qtot 26.523980
 1245         hn     56    ccc     H8   1245 0.28399900   1.008000   ; qtot 26.807979
 1246         os     56    ccc     O1   1246 -0.09200600  16.000000   ; qtot 26.715973
 1247         hn     56    ccc    H17   1247 0.28399900   1.008000   ; qtot 26.999972
; residue   57 ccc rtp ccc q 1.0
 1248         c3     57    ccc     C1   1248 0.17060900  12.010000   ; qtot 27.170581
 1249         hx     57    ccc     H1   1249 0.04213200   1.008000   ; qtot 27.212713
 1250         hx     57    ccc     H2   1250 0.04213200   1.008000   ; qtot 27.254845
 1251         c3     57    ccc     C2   1251 -0.04496700  12.010000   ; qtot 27.209878
 1252         hc     57    ccc     H3   1252 0.02647500   1.008000   ; qtot 27.236353
 1253         hc     57    ccc     H4   1253 0.02647500   1.008000   ; qtot 27.262828
 1254         c3     57    ccc     C3   1254 0.04732600  12.010000   ; qtot 27.310154
 1255         h1     57    ccc     H5   1255 0.07030200   1.008000   ; qtot 27.380456
 1256         h1     57    ccc     H6   1256 0.07030200   1.008000   ; qtot 27.450758
 1257         n4     57    ccc     N1   1257 -0.21077700  14.010000   ; qtot 27.239981
 1258         hn     57    ccc     H7   1258 0.28399900   1.008000   ; qtot 27.523980
 1259         hn     57    ccc     H8   1259 0.28399900   1.008000   ; qtot 27.807979
 1260         os     57    ccc     O1   1260 -0.09200600  16.000000   ; qtot 27.715973
 1261         hn     57    ccc    H17   1261 0.28399900   1.008000   ; qtot 27.999972
; residue   58 ccc rtp ccc q 1.0
 1262         c3     58    ccc     C1   1262 0.17060900  12.010000   ; qtot 28.170581
 1263         hx     58    ccc     H1   1263 0.04213200   1.008000   ; qtot 28.212713
 1264         hx     58    ccc     H2   1264 0.04213200   1.008000   ; qtot 28.254845
 1265         c3     58    ccc     C2   1265 -0.04496700  12.010000   ; qtot 28.209878
 1266         hc     58    ccc     H3   1266 0.02647500   1.008000   ; qtot 28.236353
 1267         hc     58    ccc     H4   1267 0.02647500   1.008000   ; qtot 28.262828
 1268         c3     58    ccc     C3   1268 0.04732600  12.010000   ; qtot 28.310154
 1269         h1     58    ccc     H5   1269 0.07030200   1.008000   ; qtot 28.380456
 1270         h1     58    ccc     H6   1270 0.07030200   1.008000   ; qtot 28.450758
 1271         n4     58    ccc     N1   1271 -0.21077700  14.010000   ; qtot 28.239981
 1272         hn     58    ccc     H7   1272 0.28399900   1.008000   ; qtot 28.523980
 1273         hn     58    ccc     H8   1273 0.28399900   1.008000   ; qtot 28.807979
 1274         os     58    ccc     O1   1274 -0.09200600  16.000000   ; qtot 28.715973
 1275         hn     58    ccc    H17   1275 0.28399900   1.008000   ; qtot 28.999972
; residue   59 ccc rtp ccc q 1.0
 1276         c3     59    ccc     C1   1276 0.17060900  12.010000   ; qtot 29.170581
 1277         hx     59    ccc     H1   1277 0.04213200   1.008000   ; qtot 29.212713
 1278         hx     59    ccc     H2   1278 0.04213200   1.008000   ; qtot 29.254845
 1279         c3     59    ccc     C2   1279 -0.04496700  12.010000   ; qtot 29.209878
 1280         hc     59    ccc     H3   1280 0.02647500   1.008000   ; qtot 29.236353
 1281         hc     59    ccc     H4   1281 0.02647500   1.008000   ; qtot 29.262828
 1282         c3     59    ccc     C3   1282 0.04732600  12.010000   ; qtot 29.310154
 1283         h1     59    ccc     H5   1283 0.07030200   1.008000   ; qtot 29.380456
 1284         h1     59    ccc     H6   1284 0.07030200   1.008000   ; qtot 29.450758
 1285         n4     59    ccc     N1   1285 -0.21077700  14.010000   ; qtot 29.239981
 1286         hn     59    ccc     H7   1286 0.28399900   1.008000   ; qtot 29.523980
 1287         hn     59    ccc     H8   1287 0.28399900   1.008000   ; qtot 29.807979
 1288         os     59    ccc     O1   1288 -0.09200600  16.000000   ; qtot 29.715973
 1289         hn     59    ccc    H17   1289 0.28399900   1.008000   ; qtot 29.999972
; residue   60 ccc rtp ccc q 1.0
 1290         c3     60    ccc     C1   1290 0.17060900  12.010000   ; qtot 30.170581
 1291         hx     60    ccc     H1   1291 0.04213200   1.008000   ; qtot 30.212713
 1292         hx     60    ccc     H2   1292 0.04213200   1.008000   ; qtot 30.254845
 1293         c3     60    ccc     C2   1293 -0.04496700  12.010000   ; qtot 30.209878
 1294         hc     60    ccc     H3   1294 0.02647500   1.008000   ; qtot 30.236353
 1295         hc     60    ccc     H4   1295 0.02647500   1.008000   ; qtot 30.262828
 1296         c3     60    ccc     C3   1296 0.04732600  12.010000   ; qtot 30.310154
 1297         h1     60    ccc     H5   1297 0.07030200   1.008000   ; qtot 30.380456
 1298         h1     60    ccc     H6   1298 0.07030200   1.008000   ; qtot 30.450758
 1299         n4     60    ccc     N1   1299 -0.21077700  14.010000   ; qtot 30.239981
 1300         hn     60    ccc     H7   1300 0.28399900   1.008000   ; qtot 30.523980
 1301         hn     60    ccc     H8   1301 0.28399900   1.008000   ; qtot 30.807979
 1302         os     60    ccc     O1   1302 -0.09200600  16.000000   ; qtot 30.715973
 1303         hn     60    ccc    H17   1303 0.28399900   1.008000   ; qtot 30.999972
; residue   61 ccc rtp ccc q 1.0
 1304         c3     61    ccc     C1   1304 0.17060900  12.010000   ; qtot 31.170581
 1305         hx     61    ccc     H1   1305 0.04213200   1.008000   ; qtot 31.212713
 1306         hx     61    ccc     H2   1306 0.04213200   1.008000   ; qtot 31.254845
 1307         c3     61    ccc     C2   1307 -0.04496700  12.010000   ; qtot 31.209878
 1308         hc     61    ccc     H3   1308 0.02647500   1.008000   ; qtot 31.236353
 1309         hc     61    ccc     H4   1309 0.02647500   1.008000   ; qtot 31.262828
 1310         c3     61    ccc     C3   1310 0.04732600  12.010000   ; qtot 31.310154
 1311         h1     61    ccc     H5   1311 0.07030200   1.008000   ; qtot 31.380456
 1312         h1     61    ccc     H6   1312 0.07030200   1.008000   ; qtot 31.450758
 1313         n4     61    ccc     N1   1313 -0.21077700  14.010000   ; qtot 31.239981
 1314         hn     61    ccc     H7   1314 0.28399900   1.008000   ; qtot 31.523980
 1315         hn     61    ccc     H8   1315 0.28399900   1.008000   ; qtot 31.807979
 1316         os     61    ccc     O1   1316 -0.09200600  16.000000   ; qtot 31.715973
 1317         hn     61    ccc    H17   1317 0.28399900   1.008000   ; qtot 31.999972

[ bonds ]
;    ai     aj funct         c0         c1         c2         c3
      1      2     1   0.14316 258236.480000
      1      5     1   0.14316 258236.480000
      2      8     1   0.15375 251793.120000
      5     11     1   0.15375 251793.120000
      8     14     1   0.15375 251793.120000
     11     17     1   0.15375 251793.120000
     14     20     1   0.14647 272713.120000
     17     21     1   0.14647 272713.120000
     20     28     1   0.14647 272713.120000
     20     31     1   0.14647 272713.120000
     21     22     1   0.14647 272713.120000
     21     25     1   0.14647 272713.120000
     22     34     1   0.15375 251793.120000
     25     37     1   0.15375 251793.120000
     28     40     1   0.15375 251793.120000
     31     43     1   0.15375 251793.120000
     34     55     1   0.15375 251793.120000
     37     52     1   0.15375 251793.120000
     40     49     1   0.15375 251793.120000
     43     46     1   0.15375 251793.120000
     46     86     1   0.14316 258236.480000
     49    115     1   0.14316 258236.480000
     52    144     1   0.14316 258236.480000
     55    173     1   0.14316 258236.480000
     58     59     1   0.14647 272713.120000
     58     62     1   0.14647 272713.120000
     58     65     1   0.14647 272713.120000
     59     71     1   0.15375 251793.120000
     62     74     1   0.15375 251793.120000
     65     68     1   0.15375 251793.120000
     68     77     1   0.15375 251793.120000
     71     83     1   0.15375 251793.120000
     74     80     1   0.15375 251793.120000
     77     86     1   0.14316 258236.480000
     80    202     1   0.14316 258236.480000
     83    231     1   0.14316 258236.480000
     87     88     1   0.14647 272713.120000
     87     91     1   0.14647 272713.120000
     87     94     1   0.14647 272713.120000
     88    100     1   0.15375 251793.120000
     91    103     1   0.15375 251793.120000
     94     97     1   0.15375 251793.120000
     97    106     1   0.15375 251793.120000
    100    112     1   0.15375 251793.120000
    103    109     1   0.15375 251793.120000
    106    115     1   0.14316 258236.480000
    109    260     1   0.14316 258236.480000
    112    289     1   0.14316 258236.480000
    116    117     1   0.14647 272713.120000
    116    120     1   0.14647 272713.120000
    116    123     1   0.14647 272713.120000
    117    129     1   0.15375 251793.120000
    120    132     1   0.15375 251793.120000
    123    126     1   0.15375 251793.120000
    126    135     1   0.15375 251793.120000
    129    141     1   0.15375 251793.120000
    132    138     1   0.15375 251793.120000
    135    144     1   0.14316 258236.480000
    138    318     1   0.14316 258236.480000
    141    347     1   0.14316 258236.480000
    145    146     1   0.14647 272713.120000
    145    149     1   0.14647 272713.120000
    145    152     1   0.14647 272713.120000
    146    158     1   0.15375 251793.120000
    149    161     1   0.15375 251793.120000
    152    155     1   0.15375 251793.120000
    155    164     1   0.15375 251793.120000
    158    170     1   0.15375 251793.120000
    161    167     1   0.15375 251793.120000
    164    173     1   0.14316 258236.480000
    167    376     1   0.14316 258236.480000
    170    405     1   0.14316 258236.480000
    174    175     1   0.14647 272713.120000
    174    178     1   0.14647 272713.120000
    174    181     1   0.14647 272713.120000
    175    187     1   0.15375 251793.120000
    178    190     1   0.15375 251793.120000
    181    184     1   0.15375 251793.120000
    184    193     1   0.15375 251793.120000
    187    199     1   0.15375 251793.120000
    190    196     1   0.15375 251793.120000
    193    202     1   0.14316 258236.480000
    196    434     1   0.14316 258236.480000
    199    463     1   0.14316 258236.480000
    203    204     1   0.14647 272713.120000
    203    207     1   0.14647 272713.120000
    203    210     1   0.14647 272713.120000
    204    216     1   0.15375 251793.120000
    207    219     1   0.15375 251793.120000
    210    213     1   0.15375 251793.120000
    213    222     1   0.15375 251793.120000
    216    228     1   0.15375 251793.120000
    219    225     1   0.15375 251793.120000
    222    231     1   0.14316 258236.480000
    225    492     1   0.14316 258236.480000
    228    521     1   0.14316 258236.480000
    232    233     1   0.14647 272713.120000
    232    236     1   0.14647 272713.120000
    232    239     1   0.14647 272713.120000
    233    245     1   0.15375 251793.120000
    236    248     1   0.15375 251793.120000
    239    242     1   0.15375 251793.120000
    242    251     1   0.15375 251793.120000
    245    257     1   0.15375 251793.120000
    248    254     1   0.15375 251793.120000
    251    260     1   0.14316 258236.480000
    254    550     1   0.14316 258236.480000
    257    579     1   0.14316 258236.480000
    261    262     1   0.14647 272713.120000
    261    265     1   0.14647 272713.120000
    261    268     1   0.14647 272713.120000
    262    274     1   0.15375 251793.120000
    265    277     1   0.15375 251793.120000
    268    271     1   0.15375 251793.120000
    271    280     1   0.15375 251793.120000
    274    286     1   0.15375 251793.120000
    277    283     1   0.15375 251793.120000
    280    289     1   0.14316 258236.480000
    283    608     1   0.14316 258236.480000
    286    637     1   0.14316 258236.480000
    290    291     1   0.14647 272713.120000
    290    294     1   0.14647 272713.120000
    290    297     1   0.14647 272713.120000
    291    303     1   0.15375 251793.120000
    294    306     1   0.15375 251793.120000
    297    300     1   0.15375 251793.120000
    300    309     1   0.15375 251793.120000
    303    315     1   0.15375 251793.120000
    306    312     1   0.15375 251793.120000
    309    318     1   0.14316 258236.480000
    312    666     1   0.14316 258236.480000
    315    695     1   0.14316 258236.480000
    319    320     1   0.14647 272713.120000
    319    323     1   0.14647 272713.120000
    319    326     1   0.14647 272713.120000
    320    332     1   0.15375 251793.120000
    323    335     1   0.15375 251793.120000
    326    329     1   0.15375 251793.120000
    329    338     1   0.15375 251793.120000
    332    344     1   0.15375 251793.120000
    335    341     1   0.15375 251793.120000
    338    347     1   0.14316 258236.480000
    341    724     1   0.14316 258236.480000
    344    753     1   0.14316 258236.480000
    348    349     1   0.14647 272713.120000
    348    352     1   0.14647 272713.120000
    348    355     1   0.14647 272713.120000
    349    361     1   0.15375 251793.120000
    352    364     1   0.15375 251793.120000
    355    358     1   0.15375 251793.120000
    358    367     1   0.15375 251793.120000
    361    373     1   0.15375 251793.120000
    364    370     1   0.15375 251793.120000
    367    376     1   0.14316 258236.480000
    370    782     1   0.14316 258236.480000
    373    811     1   0.14316 258236.480000
    377    378     1   0.14647 272713.120000
    377    381     1   0.14647 272713.120000
    377    384     1   0.14647 272713.120000
    378    390     1   0.15375 251793.120000
    381    393     1   0.15375 251793.120000
    384    387     1   0.15375 251793.120000
    387    396     1   0.15375 251793.120000
    390    402     1   0.15375 251793.120000
    393    399     1   0.15375 251793.120000
    396    405     1   0.14316 258236.480000
    399    840     1   0.14316 258236.480000
    402    869     1   0.14316 258236.480000
    406    407     1   0.14647 272713.120000
    406    410     1   0.14647 272713.120000
    406    413     1   0.14647 272713.120000
    407    419     1   0.15375 251793.120000
    410    422     1   0.15375 251793.120000
    413    416     1   0.15375 251793.120000
    416    425     1   0.15375 251793.120000
    419    431     1   0.15375 251793.120000
    422    428     1   0.15375 251793.120000
    425    434     1   0.14316 258236.480000
    428    882     1   0.14316 258236.480000
    431    896     1   0.14316 258236.480000
    435    436     1   0.14647 272713.120000
    435    439     1   0.14647 272713.120000
    435    442     1   0.14647 272713.120000
    436    448     1   0.15375 251793.120000
    439    451     1   0.15375 251793.120000
    442    445     1   0.15375 251793.120000
    445    454     1   0.15375 251793.120000
    448    460     1   0.15375 251793.120000
    451    457     1   0.15375 251793.120000
    454    463     1   0.14316 258236.480000
    457    910     1   0.14316 258236.480000
    460    924     1   0.14316 258236.480000
    464    465     1   0.14647 272713.120000
    464    468     1   0.14647 272713.120000
    464    471     1   0.14647 272713.120000
    465    477     1   0.15375 251793.120000
    468    480     1   0.15375 251793.120000
    471    474     1   0.15375 251793.120000
    474    483     1   0.15375 251793.120000
    477    489     1   0.15375 251793.120000
    480    486     1   0.15375 251793.120000
    483    492     1   0.14316 258236.480000
    486    938     1   0.14316 258236.480000
    489    952     1   0.14316 258236.480000
    493    494     1   0.14647 272713.120000
    493    497     1   0.14647 272713.120000
    493    500     1   0.14647 272713.120000
    494    506     1   0.15375 251793.120000
    497    509     1   0.15375 251793.120000
    500    503     1   0.15375 251793.120000
    503    512     1   0.15375 251793.120000
    506    518     1   0.15375 251793.120000
    509    515     1   0.15375 251793.120000
    512    521     1   0.14316 258236.480000
    515    966     1   0.14316 258236.480000
    518    980     1   0.14316 258236.480000
    522    523     1   0.14647 272713.120000
    522    526     1   0.14647 272713.120000
    522    529     1   0.14647 272713.120000
    523    535     1   0.15375 251793.120000
    526    538     1   0.15375 251793.120000
    529    532     1   0.15375 251793.120000
    532    541     1   0.15375 251793.120000
    535    547     1   0.15375 251793.120000
    538    544     1   0.15375 251793.120000
    541    550     1   0.14316 258236.480000
    544    994     1   0.14316 258236.480000
    547   1008     1   0.14316 258236.480000
    551    552     1   0.14647 272713.120000
    551    555     1   0.14647 272713.120000
    551    558     1   0.14647 272713.120000
    552    564     1   0.15375 251793.120000
    555    567     1   0.15375 251793.120000
    558    561     1   0.15375 251793.120000
    561    570     1   0.15375 251793.120000
    564    576     1   0.15375 251793.120000
    567    573     1   0.15375 251793.120000
    570    579     1   0.14316 258236.480000
    573   1022     1   0.14316 258236.480000
    576   1036     1   0.14316 258236.480000
    580    581     1   0.14647 272713.120000
    580    584     1   0.14647 272713.120000
    580    587     1   0.14647 272713.120000
    581    593     1   0.15375 251793.120000
    584    596     1   0.15375 251793.120000
    587    590     1   0.15375 251793.120000
    590    599     1   0.15375 251793.120000
    593    605     1   0.15375 251793.120000
    596    602     1   0.15375 251793.120000
    599    608     1   0.14316 258236.480000
    602   1050     1   0.14316 258236.480000
    605   1064     1   0.14316 258236.480000
    609    610     1   0.14647 272713.120000
    609    613     1   0.14647 272713.120000
    609    616     1   0.14647 272713.120000
    610    622     1   0.15375 251793.120000
    613    625     1   0.15375 251793.120000
    616    619     1   0.15375 251793.120000
    619    628     1   0.15375 251793.120000
    622    634     1   0.15375 251793.120000
    625    631     1   0.15375 251793.120000
    628    637     1   0.14316 258236.480000
    631   1078     1   0.14316 258236.480000
    634   1092     1   0.14316 258236.480000
    638    639     1   0.14647 272713.120000
    638    642     1   0.14647 272713.120000
    638    645     1   0.14647 272713.120000
    639    651     1   0.15375 251793.120000
    642    654     1   0.15375 251793.120000
    645    648     1   0.15375 251793.120000
    648    657     1   0.15375 251793.120000
    651    663     1   0.15375 251793.120000
    654    660     1   0.15375 251793.120000
    657    666     1   0.14316 258236.480000
    660   1106     1   0.14316 258236.480000
    663   1120     1   0.14316 258236.480000
    667    668     1   0.14647 272713.120000
    667    671     1   0.14647 272713.120000
    667    674     1   0.14647 272713.120000
    668    680     1   0.15375 251793.120000
    671    683     1   0.15375 251793.120000
    674    677     1   0.15375 251793.120000
    677    686     1   0.15375 251793.120000
    680    692     1   0.15375 251793.120000
    683    689     1   0.15375 251793.120000
    686    695     1   0.14316 258236.480000
    689   1134     1   0.14316 258236.480000
    692   1148     1   0.14316 258236.480000
    696    697     1   0.14647 272713.120000
    696    700     1   0.14647 272713.120000
    696    703     1   0.14647 272713.120000
    697    709     1   0.15375 251793.120000
    700    712     1   0.15375 251793.120000
    703    706     1   0.15375 251793.120000
    706    715     1   0.15375 251793.120000
    709    721     1   0.15375 251793.120000
    712    718     1   0.15375 251793.120000
    715    724     1   0.14316 258236.480000
    718   1162     1   0.14316 258236.480000
    721   1176     1   0.14316 258236.480000
    725    726     1   0.14647 272713.120000
    725    729     1   0.14647 272713.120000
    725    732     1   0.14647 272713.120000
    726    738     1   0.15375 251793.120000
    729    741     1   0.15375 251793.120000
    732    735     1   0.15375 251793.120000
    735    744     1   0.15375 251793.120000
    738    750     1   0.15375 251793.120000
    741    747     1   0.15375 251793.120000
    744    753     1   0.14316 258236.480000
    747   1190     1   0.14316 258236.480000
    750   1204     1   0.14316 258236.480000
    754    755     1   0.14647 272713.120000
    754    758     1   0.14647 272713.120000
    754    761     1   0.14647 272713.120000
    755    767     1   0.15375 251793.120000
    758    770     1   0.15375 251793.120000
    761    764     1   0.15375 251793.120000
    764    773     1   0.15375 251793.120000
    767    779     1   0.15375 251793.120000
    770    776     1   0.15375 251793.120000
    773    782     1   0.14316 258236.480000
    776   1218     1   0.14316 258236.480000
    779   1232     1   0.14316 258236.480000
    783    784     1   0.14647 272713.120000
    783    787     1   0.14647 272713.120000
    783    790     1   0.14647 272713.120000
    784    796     1   0.15375 251793.120000
    787    799     1   0.15375 251793.120000
    790    793     1   0.15375 251793.120000
    793    802     1   0.15375 251793.120000
    796    808     1   0.15375 251793.120000
    799    805     1   0.15375 251793.120000
    802    811     1   0.14316 258236.480000
    805   1246     1   0.14316 258236.480000
    808   1260     1   0.14316 258236.480000
    812    813     1   0.14647 272713.120000
    812    816     1   0.14647 272713.120000
    812    819     1   0.14647 272713.120000
    813    825     1   0.15375 251793.120000
    816    828     1   0.15375 251793.120000
    819    822     1   0.15375 251793.120000
    822    831     1   0.15375 251793.120000
    825    837     1   0.15375 251793.120000
    828    834     1   0.15375 251793.120000
    831    840     1   0.14316 258236.480000
    834   1274     1   0.14316 258236.480000
    837   1288     1   0.14316 258236.480000
    841    842     1   0.14647 272713.120000
    841    845     1   0.14647 272713.120000
    841    848     1   0.14647 272713.120000
    842    854     1   0.15375 251793.120000
    845    857     1   0.15375 251793.120000
    848    851     1   0.15375 251793.120000
    851    860     1   0.15375 251793.120000
    854    866     1   0.15375 251793.120000
    857    863     1   0.15375 251793.120000
    860    869     1   0.14316 258236.480000
    863   1302     1   0.14316 258236.480000
    866   1316     1   0.14316 258236.480000
    870    873     1   0.15375 251793.120000
    870    879     1   0.15110 237065.440000
    873    876     1   0.15375 251793.120000
    876    882     1   0.14316 258236.480000
    884    887     1   0.15375 251793.120000
    884    893     1   0.15110 237065.440000
    887    890     1   0.15375 251793.120000
    890    896     1   0.14316 258236.480000
    898    901     1   0.15375 251793.120000
    898    907     1   0.15110 237065.440000
    901    904     1   0.15375 251793.120000
    904    910     1   0.14316 258236.480000
    912    915     1   0.15375 251793.120000
    912    921     1   0.15110 237065.440000
    915    918     1   0.15375 251793.120000
    918    924     1   0.14316 258236.480000
    926    929     1   0.15375 251793.120000
    926    935     1   0.15110 237065.440000
    929    932     1   0.15375 251793.120000
    932    938     1   0.14316 258236.480000
    940    943     1   0.15375 251793.120000
    940    949     1   0.15110 237065.440000
    943    946     1   0.15375 251793.120000
    946    952     1   0.14316 258236.480000
    954    957     1   0.15375 251793.120000
    954    963     1   0.15110 237065.440000
    957    960     1   0.15375 251793.120000
    960    966     1   0.14316 258236.480000
    968    971     1   0.15375 251793.120000
    968    977     1   0.15110 237065.440000
    971    974     1   0.15375 251793.120000
    974    980     1   0.14316 258236.480000
    982    985     1   0.15375 251793.120000
    982    991     1   0.15110 237065.440000
    985    988     1   0.15375 251793.120000
    988    994     1   0.14316 258236.480000
    996    999     1   0.15375 251793.120000
    996   1005     1   0.15110 237065.440000
    999   1002     1   0.15375 251793.120000
   1002   1008     1   0.14316 258236.480000
   1010   1013     1   0.15375 251793.120000
   1010   1019     1   0.15110 237065.440000
   1013   1016     1   0.15375 251793.120000
   1016   1022     1   0.14316 258236.480000
   1024   1027     1   0.15375 251793.120000
   1024   1033     1   0.15110 237065.440000
   1027   1030     1   0.15375 251793.120000
   1030   1036     1   0.14316 258236.480000
   1038   1041     1   0.15375 251793.120000
   1038   1047     1   0.15110 237065.440000
   1041   1044     1   0.15375 251793.120000
   1044   1050     1   0.14316 258236.480000
   1052   1055     1   0.15375 251793.120000
   1052   1061     1   0.15110 237065.440000
   1055   1058     1   0.15375 251793.120000
   1058   1064     1   0.14316 258236.480000
   1066   1069     1   0.15375 251793.120000
   1066   1075     1   0.15110 237065.440000
   1069   1072     1   0.15375 251793.120000
   1072   1078     1   0.14316 258236.480000
   1080   1083     1   0.15375 251793.120000
   1080   1089     1   0.15110 237065.440000
   1083   1086     1   0.15375 251793.120000
   1086   1092     1   0.14316 258236.480000
   1094   1097     1   0.15375 251793.120000
   1094   1103     1   0.15110 237065.440000
   1097   1100     1   0.15375 251793.120000
   1100   1106     1   0.14316 258236.480000
   1108   1111     1   0.15375 251793.120000
   1108   1117     1   0.15110 237065.440000
   1111   1114     1   0.15375 251793.120000
   1114   1120     1   0.14316 258236.480000
   1122   1125     1   0.15375 251793.120000
   1122   1131     1   0.15110 237065.440000
   1125   1128     1   0.15375 251793.120000
   1128   1134     1   0.14316 258236.480000
   1136   1139     1   0.15375 251793.120000
   1136   1145     1   0.15110 237065.440000
   1139   1142     1   0.15375 251793.120000
   1142   1148     1   0.14316 258236.480000
   1150   1153     1   0.15375 251793.120000
   1150   1159     1   0.15110 237065.440000
   1153   1156     1   0.15375 251793.120000
   1156   1162     1   0.14316 258236.480000
   1164   1167     1   0.15375 251793.120000
   1164   1173     1   0.15110 237065.440000
   1167   1170     1   0.15375 251793.120000
   1170   1176     1   0.14316 258236.480000
   1178   1181     1   0.15375 251793.120000
   1178   1187     1   0.15110 237065.440000
   1181   1184     1   0.15375 251793.120000
   1184   1190     1   0.14316 258236.480000
   1192   1195     1   0.15375 251793.120000
   1192   1201     1   0.15110 237065.440000
   1195   1198     1   0.15375 251793.120000
   1198   1204     1   0.14316 258236.480000
   1206   1209     1   0.15375 251793.120000
   1206   1215     1   0.15110 237065.440000
   1209   1212     1   0.15375 251793.120000
   1212   1218     1   0.14316 258236.480000
   1220   1223     1   0.15375 251793.120000
   1220   1229     1   0.15110 237065.440000
   1223   1226     1   0.15375 251793.120000
   1226   1232     1   0.14316 258236.480000
   1234   1237     1   0.15375 251793.120000
   1234   1243     1   0.15110 237065.440000
   1237   1240     1   0.15375 251793.120000
   1240   1246     1   0.14316 258236.480000
   1248   1251     1   0.15375 251793.120000
   1248   1257     1   0.15110 237065.440000
   1251   1254     1   0.15375 251793.120000
   1254   1260     1   0.14316 258236.480000
   1262   1265     1   0.15375 251793.120000
   1262   1271     1   0.15110 237065.440000
   1265   1268     1   0.15375 251793.120000
   1268   1274     1   0.14316 258236.480000
   1276   1279     1   0.15375 251793.120000
   1276   1285     1   0.15110 237065.440000
   1279   1282     1   0.15375 251793.120000
   1282   1288     1   0.14316 258236.480000
   1290   1293     1   0.15375 251793.120000
   1290   1299     1   0.15110 237065.440000
   1293   1296     1   0.15375 251793.120000
   1296   1302     1   0.14316 258236.480000
   1304   1307     1   0.15375 251793.120000
   1304   1313     1   0.15110 237065.440000
   1307   1310     1   0.15375 251793.120000
   1310   1316     1   0.14316 258236.480000
      2      3     1   0.10969 276646.080000
      2      4     1   0.10969 276646.080000
      5      6     1   0.10969 276646.080000
      5      7     1   0.10969 276646.080000
      8      9     1   0.10969 276646.080000
      8     10     1   0.10969 276646.080000
     11     12     1   0.10969 276646.080000
     11     13     1   0.10969 276646.080000
     14     15     1   0.10969 276646.080000
     14     16     1   0.10969 276646.080000
     17     18     1   0.10969 276646.080000
     17     19     1   0.10969 276646.080000
     22     23     1   0.10969 276646.080000
     22     24     1   0.10969 276646.080000
     25     26     1   0.10969 276646.080000
     25     27     1   0.10969 276646.080000
     28     29     1   0.10969 276646.080000
     28     30     1   0.10969 276646.080000
     31     32     1   0.10969 276646.080000
     31     33     1   0.10969 276646.080000
     34     35     1   0.10969 276646.080000
     34     36     1   0.10969 276646.080000
     37     38     1   0.10969 276646.080000
     37     39     1   0.10969 276646.080000
     40     41     1   0.10969 276646.080000
     40     42     1   0.10969 276646.080000
     43     44     1   0.10969 276646.080000
     43     45     1   0.10969 276646.080000
     46     47     1   0.10969 276646.080000
     46     48     1   0.10969 276646.080000
     49     50     1   0.10969 276646.080000
     49     51     1   0.10969 276646.080000
     52     53     1   0.10969 276646.080000
     52     54     1   0.10969 276646.080000
     55     56     1   0.10969 276646.080000
     55     57     1   0.10969 276646.080000
     59     60     1   0.10969 276646.080000
     59     61     1   0.10969 276646.080000
     62     63     1   0.10969 276646.080000
     62     64     1   0.10969 276646.080000
     65     66     1   0.10969 276646.080000
     65     67     1   0.10969 276646.080000
     68     69     1   0.10969 276646.080000
     68     70     1   0.10969 276646.080000
     71     72     1   0.10969 276646.080000
     71     73     1   0.10969 276646.080000
     74     75     1   0.10969 276646.080000
     74     76     1   0.10969 276646.080000
     77     78     1   0.10969 276646.080000
     77     79     1   0.10969 276646.080000
     80     81     1   0.10969 276646.080000
     80     82     1   0.10969 276646.080000
     83     84     1   0.10969 276646.080000
     83     85     1   0.10969 276646.080000
     88     89     1   0.10969 276646.080000
     88     90     1   0.10969 276646.080000
     91     92     1   0.10969 276646.080000
     91     93     1   0.10969 276646.080000
     94     95     1   0.10969 276646.080000
     94     96     1   0.10969 276646.080000
     97     98     1   0.10969 276646.080000
     97     99     1   0.10969 276646.080000
    100    101     1   0.10969 276646.080000
    100    102     1   0.10969 276646.080000
    103    104     1   0.10969 276646.080000
    103    105     1   0.10969 276646.080000
    106    107     1   0.10969 276646.080000
    106    108     1   0.10969 276646.080000
    109    110     1   0.10969 276646.080000
    109    111     1   0.10969 276646.080000
    112    113     1   0.10969 276646.080000
    112    114     1   0.10969 276646.080000
    117    118     1   0.10969 276646.080000
    117    119     1   0.10969 276646.080000
    120    121     1   0.10969 276646.080000
    120    122     1   0.10969 276646.080000
    123    124     1   0.10969 276646.080000
    123    125     1   0.10969 276646.080000
    126    127     1   0.10969 276646.080000
    126    128     1   0.10969 276646.080000
    129    130     1   0.10969 276646.080000
    129    131     1   0.10969 276646.080000
    132    133     1   0.10969 276646.080000
    132    134     1   0.10969 276646.080000
    135    136     1   0.10969 276646.080000
    135    137     1   0.10969 276646.080000
    138    139     1   0.10969 276646.080000
    138    140     1   0.10969 276646.080000
    141    142     1   0.10969 276646.080000
    141    143     1   0.10969 276646.080000
    146    147     1   0.10969 276646.080000
    146    148     1   0.10969 276646.080000
    149    150     1   0.10969 276646.080000
    149    151     1   0.10969 276646.080000
    152    153     1   0.10969 276646.080000
    152    154     1   0.10969 276646.080000
    155    156     1   0.10969 276646.080000
    155    157     1   0.10969 276646.080000
    158    159     1   0.10969 276646.080000
    158    160     1   0.10969 276646.080000
    161    162     1   0.10969 276646.080000
    161    163     1   0.10969 276646.080000
    164    165     1   0.10969 276646.080000
    164    166     1   0.10969 276646.080000
    167    168     1   0.10969 276646.080000
    167    169     1   0.10969 276646.080000
    170    171     1   0.10969 276646.080000
    170    172     1   0.10969 276646.080000
    175    176     1   0.10969 276646.080000
    175    177     1   0.10969 276646.080000
    178    179     1   0.10969 276646.080000
    178    180     1   0.10969 276646.080000
    181    182     1   0.10969 276646.080000
    181    183     1   0.10969 276646.080000
    184    185     1   0.10969 276646.080000
    184    186     1   0.10969 276646.080000
    187    188     1   0.10969 276646.080000
    187    189     1   0.10969 276646.080000
    190    191     1   0.10969 276646.080000
    190    192     1   0.10969 276646.080000
    193    194     1   0.10969 276646.080000
    193    195     1   0.10969 276646.080000
    196    197     1   0.10969 276646.080000
    196    198     1   0.10969 276646.080000
    199    200     1   0.10969 276646.080000
    199    201     1   0.10969 276646.080000
    204    205     1   0.10969 276646.080000
    204    206     1   0.10969 276646.080000
    207    208     1   0.10969 276646.080000
    207    209     1   0.10969 276646.080000
    210    211     1   0.10969 276646.080000
    210    212     1   0.10969 276646.080000
    213    214     1   0.10969 276646.080000
    213    215     1   0.10969 276646.080000
    216    217     1   0.10969 276646.080000
    216    218     1   0.10969 276646.080000
    219    220     1   0.10969 276646.080000
    219    221     1   0.10969 276646.080000
    222    223     1   0.10969 276646.080000
    222    224     1   0.10969 276646.080000
    225    226     1   0.10969 276646.080000
    225    227     1   0.10969 276646.080000
    228    229     1   0.10969 276646.080000
    228    230     1   0.10969 276646.080000
    233    234     1   0.10969 276646.080000
    233    235     1   0.10969 276646.080000
    236    237     1   0.10969 276646.080000
    236    238     1   0.10969 276646.080000
    239    240     1   0.10969 276646.080000
    239    241     1   0.10969 276646.080000
    242    243     1   0.10969 276646.080000
    242    244     1   0.10969 276646.080000
    245    246     1   0.10969 276646.080000
    245    247     1   0.10969 276646.080000
    248    249     1   0.10969 276646.080000
    248    250     1   0.10969 276646.080000
    251    252     1   0.10969 276646.080000
    251    253     1   0.10969 276646.080000
    254    255     1   0.10969 276646.080000
    254    256     1   0.10969 276646.080000
    257    258     1   0.10969 276646.080000
    257    259     1   0.10969 276646.080000
    262    263     1   0.10969 276646.080000
    262    264     1   0.10969 276646.080000
    265    266     1   0.10969 276646.080000
    265    267     1   0.10969 276646.080000
    268    269     1   0.10969 276646.080000
    268    270     1   0.10969 276646.080000
    271    272     1   0.10969 276646.080000
    271    273     1   0.10969 276646.080000
    274    275     1   0.10969 276646.080000
    274    276     1   0.10969 276646.080000
    277    278     1   0.10969 276646.080000
    277    279     1   0.10969 276646.080000
    280    281     1   0.10969 276646.080000
    280    282     1   0.10969 276646.080000
    283    284     1   0.10969 276646.080000
    283    285     1   0.10969 276646.080000
    286    287     1   0.10969 276646.080000
    286    288     1   0.10969 276646.080000
    291    292     1   0.10969 276646.080000
    291    293     1   0.10969 276646.080000
    294    295     1   0.10969 276646.080000
    294    296     1   0.10969 276646.080000
    297    298     1   0.10969 276646.080000
    297    299     1   0.10969 276646.080000
    300    301     1   0.10969 276646.080000
    300    302     1   0.10969 276646.080000
    303    304     1   0.10969 276646.080000
    303    305     1   0.10969 276646.080000
    306    307     1   0.10969 276646.080000
    306    308     1   0.10969 276646.080000
    309    310     1   0.10969 276646.080000
    309    311     1   0.10969 276646.080000
    312    313     1   0.10969 276646.080000
    312    314     1   0.10969 276646.080000
    315    316     1   0.10969 276646.080000
    315    317     1   0.10969 276646.080000
    320    321     1   0.10969 276646.080000
    320    322     1   0.10969 276646.080000
    323    324     1   0.10969 276646.080000
    323    325     1   0.10969 276646.080000
    326    327     1   0.10969 276646.080000
    326    328     1   0.10969 276646.080000
    329    330     1   0.10969 276646.080000
    329    331     1   0.10969 276646.080000
    332    333     1   0.10969 276646.080000
    332    334     1   0.10969 276646.080000
    335    336     1   0.10969 276646.080000
    335    337     1   0.10969 276646.080000
    338    339     1   0.10969 276646.080000
    338    340     1   0.10969 276646.080000
    341    342     1   0.10969 276646.080000
    341    343     1   0.10969 276646.080000
    344    345     1   0.10969 276646.080000
    344    346     1   0.10969 276646.080000
    349    350     1   0.10969 276646.080000
    349    351     1   0.10969 276646.080000
    352    353     1   0.10969 276646.080000
    352    354     1   0.10969 276646.080000
    355    356     1   0.10969 276646.080000
    355    357     1   0.10969 276646.080000
    358    359     1   0.10969 276646.080000
    358    360     1   0.10969 276646.080000
    361    362     1   0.10969 276646.080000
    361    363     1   0.10969 276646.080000
    364    365     1   0.10969 276646.080000
    364    366     1   0.10969 276646.080000
    367    368     1   0.10969 276646.080000
    367    369     1   0.10969 276646.080000
    370    371     1   0.10969 276646.080000
    370    372     1   0.10969 276646.080000
    373    374     1   0.10969 276646.080000
    373    375     1   0.10969 276646.080000
    378    379     1   0.10969 276646.080000
    378    380     1   0.10969 276646.080000
    381    382     1   0.10969 276646.080000
    381    383     1   0.10969 276646.080000
    384    385     1   0.10969 276646.080000
    384    386     1   0.10969 276646.080000
    387    388     1   0.10969 276646.080000
    387    389     1   0.10969 276646.080000
    390    391     1   0.10969 276646.080000
    390    392     1   0.10969 276646.080000
    393    394     1   0.10969 276646.080000
    393    395     1   0.10969 276646.080000
    396    397     1   0.10969 276646.080000
    396    398     1   0.10969 276646.080000
    399    400     1   0.10969 276646.080000
    399    401     1   0.10969 276646.080000
    402    403     1   0.10969 276646.080000
    402    404     1   0.10969 276646.080000
    407    408     1   0.10969 276646.080000
    407    409     1   0.10969 276646.080000
    410    411     1   0.10969 276646.080000
    410    412     1   0.10969 276646.080000
    413    414     1   0.10969 276646.080000
    413    415     1   0.10969 276646.080000
    416    417     1   0.10969 276646.080000
    416    418     1   0.10969 276646.080000
    419    420     1   0.10969 276646.080000
    419    421     1   0.10969 276646.080000
    422    423     1   0.10969 276646.080000
    422    424     1   0.10969 276646.080000
    425    426     1   0.10969 276646.080000
    425    427     1   0.10969 276646.080000
    428    429     1   0.10969 276646.080000
    428    430     1   0.10969 276646.080000
    431    432     1   0.10969 276646.080000
    431    433     1   0.10969 276646.080000
    436    437     1   0.10969 276646.080000
    436    438     1   0.10969 276646.080000
    439    440     1   0.10969 276646.080000
    439    441     1   0.10969 276646.080000
    442    443     1   0.10969 276646.080000
    442    444     1   0.10969 276646.080000
    445    446     1   0.10969 276646.080000
    445    447     1   0.10969 276646.080000
    448    449     1   0.10969 276646.080000
    448    450     1   0.10969 276646.080000
    451    452     1   0.10969 276646.080000
    451    453     1   0.10969 276646.080000
    454    455     1   0.10969 276646.080000
    454    456     1   0.10969 276646.080000
    457    458     1   0.10969 276646.080000
    457    459     1   0.10969 276646.080000
    460    461     1   0.10969 276646.080000
    460    462     1   0.10969 276646.080000
    465    466     1   0.10969 276646.080000
    465    467     1   0.10969 276646.080000
    468    469     1   0.10969 276646.080000
    468    470     1   0.10969 276646.080000
    471    472     1   0.10969 276646.080000
    471    473     1   0.10969 276646.080000
    474    475     1   0.10969 276646.080000
    474    476     1   0.10969 276646.080000
    477    478     1   0.10969 276646.080000
    477    479     1   0.10969 276646.080000
    480    481     1   0.10969 276646.080000
    480    482     1   0.10969 276646.080000
    483    484     1   0.10969 276646.080000
    483    485     1   0.10969 276646.080000
    486    487     1   0.10969 276646.080000
    486    488     1   0.10969 276646.080000
    489    490     1   0.10969 276646.080000
    489    491     1   0.10969 276646.080000
    494    495     1   0.10969 276646.080000
    494    496     1   0.10969 276646.080000
    497    498     1   0.10969 276646.080000
    497    499     1   0.10969 276646.080000
    500    501     1   0.10969 276646.080000
    500    502     1   0.10969 276646.080000
    503    504     1   0.10969 276646.080000
    503    505     1   0.10969 276646.080000
    506    507     1   0.10969 276646.080000
    506    508     1   0.10969 276646.080000
    509    510     1   0.10969 276646.080000
    509    511     1   0.10969 276646.080000
    512    513     1   0.10969 276646.080000
    512    514     1   0.10969 276646.080000
    515    516     1   0.10969 276646.080000
    515    517     1   0.10969 276646.080000
    518    519     1   0.10969 276646.080000
    518    520     1   0.10969 276646.080000
    523    524     1   0.10969 276646.080000
    523    525     1   0.10969 276646.080000
    526    527     1   0.10969 276646.080000
    526    528     1   0.10969 276646.080000
    529    530     1   0.10969 276646.080000
    529    531     1   0.10969 276646.080000
    532    533     1   0.10969 276646.080000
    532    534     1   0.10969 276646.080000
    535    536     1   0.10969 276646.080000
    535    537     1   0.10969 276646.080000
    538    539     1   0.10969 276646.080000
    538    540     1   0.10969 276646.080000
    541    542     1   0.10969 276646.080000
    541    543     1   0.10969 276646.080000
    544    545     1   0.10969 276646.080000
    544    546     1   0.10969 276646.080000
    547    548     1   0.10969 276646.080000
    547    549     1   0.10969 276646.080000
    552    553     1   0.10969 276646.080000
    552    554     1   0.10969 276646.080000
    555    556     1   0.10969 276646.080000
    555    557     1   0.10969 276646.080000
    558    559     1   0.10969 276646.080000
    558    560     1   0.10969 276646.080000
    561    562     1   0.10969 276646.080000
    561    563     1   0.10969 276646.080000
    564    565     1   0.10969 276646.080000
    564    566     1   0.10969 276646.080000
    567    568     1   0.10969 276646.080000
    567    569     1   0.10969 276646.080000
    570    571     1   0.10969 276646.080000
    570    572     1   0.10969 276646.080000
    573    574     1   0.10969 276646.080000
    573    575     1   0.10969 276646.080000
    576    577     1   0.10969 276646.080000
    576    578     1   0.10969 276646.080000
    581    582     1   0.10969 276646.080000
    581    583     1   0.10969 276646.080000
    584    585     1   0.10969 276646.080000
    584    586     1   0.10969 276646.080000
    587    588     1   0.10969 276646.080000
    587    589     1   0.10969 276646.080000
    590    591     1   0.10969 276646.080000
    590    592     1   0.10969 276646.080000
    593    594     1   0.10969 276646.080000
    593    595     1   0.10969 276646.080000
    596    597     1   0.10969 276646.080000
    596    598     1   0.10969 276646.080000
    599    600     1   0.10969 276646.080000
    599    601     1   0.10969 276646.080000
    602    603     1   0.10969 276646.080000
    602    604     1   0.10969 276646.080000
    605    606     1   0.10969 276646.080000
    605    607     1   0.10969 276646.080000
    610    611     1   0.10969 276646.080000
    610    612     1   0.10969 276646.080000
    613    614     1   0.10969 276646.080000
    613    615     1   0.10969 276646.080000
    616    617     1   0.10969 276646.080000
    616    618     1   0.10969 276646.080000
    619    620     1   0.10969 276646.080000
    619    621     1   0.10969 276646.080000
    622    623     1   0.10969 276646.080000
    622    624     1   0.10969 276646.080000
    625    626     1   0.10969 276646.080000
    625    627     1   0.10969 276646.080000
    628    629     1   0.10969 276646.080000
    628    630     1   0.10969 276646.080000
    631    632     1   0.10969 276646.080000
    631    633     1   0.10969 276646.080000
    634    635     1   0.10969 276646.080000
    634    636     1   0.10969 276646.080000
    639    640     1   0.10969 276646.080000
    639    641     1   0.10969 276646.080000
    642    643     1   0.10969 276646.080000
    642    644     1   0.10969 276646.080000
    645    646     1   0.10969 276646.080000
    645    647     1   0.10969 276646.080000
    648    649     1   0.10969 276646.080000
    648    650     1   0.10969 276646.080000
    651    652     1   0.10969 276646.080000
    651    653     1   0.10969 276646.080000
    654    655     1   0.10969 276646.080000
    654    656     1   0.10969 276646.080000
    657    658     1   0.10969 276646.080000
    657    659     1   0.10969 276646.080000
    660    661     1   0.10969 276646.080000
    660    662     1   0.10969 276646.080000
    663    664     1   0.10969 276646.080000
    663    665     1   0.10969 276646.080000
    668    669     1   0.10969 276646.080000
    668    670     1   0.10969 276646.080000
    671    672     1   0.10969 276646.080000
    671    673     1   0.10969 276646.080000
    674    675     1   0.10969 276646.080000
    674    676     1   0.10969 276646.080000
    677    678     1   0.10969 276646.080000
    677    679     1   0.10969 276646.080000
    680    681     1   0.10969 276646.080000
    680    682     1   0.10969 276646.080000
    683    684     1   0.10969 276646.080000
    683    685     1   0.10969 276646.080000
    686    687     1   0.10969 276646.080000
    686    688     1   0.10969 276646.080000
    689    690     1   0.10969 276646.080000
    689    691     1   0.10969 276646.080000
    692    693     1   0.10969 276646.080000
    692    694     1   0.10969 276646.080000
    697    698     1   0.10969 276646.080000
    697    699     1   0.10969 276646.080000
    700    701     1   0.10969 276646.080000
    700    702     1   0.10969 276646.080000
    703    704     1   0.10969 276646.080000
    703    705     1   0.10969 276646.080000
    706    707     1   0.10969 276646.080000
    706    708     1   0.10969 276646.080000
    709    710     1   0.10969 276646.080000
    709    711     1   0.10969 276646.080000
    712    713     1   0.10969 276646.080000
    712    714     1   0.10969 276646.080000
    715    716     1   0.10969 276646.080000
    715    717     1   0.10969 276646.080000
    718    719     1   0.10969 276646.080000
    718    720     1   0.10969 276646.080000
    721    722     1   0.10969 276646.080000
    721    723     1   0.10969 276646.080000
    726    727     1   0.10969 276646.080000
    726    728     1   0.10969 276646.080000
    729    730     1   0.10969 276646.080000
    729    731     1   0.10969 276646.080000
    732    733     1   0.10969 276646.080000
    732    734     1   0.10969 276646.080000
    735    736     1   0.10969 276646.080000
    735    737     1   0.10969 276646.080000
    738    739     1   0.10969 276646.080000
    738    740     1   0.10969 276646.080000
    741    742     1   0.10969 276646.080000
    741    743     1   0.10969 276646.080000
    744    745     1   0.10969 276646.080000
    744    746     1   0.10969 276646.080000
    747    748     1   0.10969 276646.080000
    747    749     1   0.10969 276646.080000
    750    751     1   0.10969 276646.080000
    750    752     1   0.10969 276646.080000
    755    756     1   0.10969 276646.080000
    755    757     1   0.10969 276646.080000
    758    759     1   0.10969 276646.080000
    758    760     1   0.10969 276646.080000
    761    762     1   0.10969 276646.080000
    761    763     1   0.10969 276646.080000
    764    765     1   0.10969 276646.080000
    764    766     1   0.10969 276646.080000
    767    768     1   0.10969 276646.080000
    767    769     1   0.10969 276646.080000
    770    771     1   0.10969 276646.080000
    770    772     1   0.10969 276646.080000
    773    774     1   0.10969 276646.080000
    773    775     1   0.10969 276646.080000
    776    777     1   0.10969 276646.080000
    776    778     1   0.10969 276646.080000
    779    780     1   0.10969 276646.080000
    779    781     1   0.10969 276646.080000
    784    785     1   0.10969 276646.080000
    784    786     1   0.10969 276646.080000
    787    788     1   0.10969 276646.080000
    787    789     1   0.10969 276646.080000
    790    791     1   0.10969 276646.080000
    790    792     1   0.10969 276646.080000
    793    794     1   0.10969 276646.080000
    793    795     1   0.10969 276646.080000
    796    797     1   0.10969 276646.080000
    796    798     1   0.10969 276646.080000
    799    800     1   0.10969 276646.080000
    799    801     1   0.10969 276646.080000
    802    803     1   0.10969 276646.080000
    802    804     1   0.10969 276646.080000
    805    806     1   0.10969 276646.080000
    805    807     1   0.10969 276646.080000
    808    809     1   0.10969 276646.080000
    808    810     1   0.10969 276646.080000
    813    814     1   0.10969 276646.080000
    813    815     1   0.10969 276646.080000
    816    817     1   0.10969 276646.080000
    816    818     1   0.10969 276646.080000
    819    820     1   0.10969 276646.080000
    819    821     1   0.10969 276646.080000
    822    823     1   0.10969 276646.080000
    822    824     1   0.10969 276646.080000
    825    826     1   0.10969 276646.080000
    825    827     1   0.10969 276646.080000
    828    829     1   0.10969 276646.080000
    828    830     1   0.10969 276646.080000
    831    832     1   0.10969 276646.080000
    831    833     1   0.10969 276646.080000
    834    835     1   0.10969 276646.080000
    834    836     1   0.10969 276646.080000
    837    838     1   0.10969 276646.080000
    837    839     1   0.10969 276646.080000
    842    843     1   0.10969 276646.080000
    842    844     1   0.10969 276646.080000
    845    846     1   0.10969 276646.080000
    845    847     1   0.10969 276646.080000
    848    849     1   0.10969 276646.080000
    848    850     1   0.10969 276646.080000
    851    852     1   0.10969 276646.080000
    851    853     1   0.10969 276646.080000
    854    855     1   0.10969 276646.080000
    854    856     1   0.10969 276646.080000
    857    858     1   0.10969 276646.080000
    857    859     1   0.10969 276646.080000
    860    861     1   0.10969 276646.080000
    860    862     1   0.10969 276646.080000
    863    864     1   0.10969 276646.080000
    863    865     1   0.10969 276646.080000
    866    867     1   0.10969 276646.080000
    866    868     1   0.10969 276646.080000
    870    871     1   0.10910 283424.160000
    870    872     1   0.10910 283424.160000
    873    874     1   0.10969 276646.080000
    873    875     1   0.10969 276646.080000
    876    877     1   0.10969 276646.080000
    876    878     1   0.10969 276646.080000
    879    880     1   0.10304 312293.760000
    879    881     1   0.10304 312293.760000
    879    883     1   0.10304 312293.760000
    884    885     1   0.10910 283424.160000
    884    886     1   0.10910 283424.160000
    887    888     1   0.10969 276646.080000
    887    889     1   0.10969 276646.080000
    890    891     1   0.10969 276646.080000
    890    892     1   0.10969 276646.080000
    893    894     1   0.10304 312293.760000
    893    895     1   0.10304 312293.760000
    893    897     1   0.10304 312293.760000
    898    899     1   0.10910 283424.160000
    898    900     1   0.10910 283424.160000
    901    902     1   0.10969 276646.080000
    901    903     1   0.10969 276646.080000
    904    905     1   0.10969 276646.080000
    904    906     1   0.10969 276646.080000
    907    908     1   0.10304 312293.760000
    907    909     1   0.10304 312293.760000
    907    911     1   0.10304 312293.760000
    912    913     1   0.10910 283424.160000
    912    914     1   0.10910 283424.160000
    915    916     1   0.10969 276646.080000
    915    917     1   0.10969 276646.080000
    918    919     1   0.10969 276646.080000
    918    920     1   0.10969 276646.080000
    921    922     1   0.10304 312293.760000
    921    923     1   0.10304 312293.760000
    921    925     1   0.10304 312293.760000
    926    927     1   0.10910 283424.160000
    926    928     1   0.10910 283424.160000
    929    930     1   0.10969 276646.080000
    929    931     1   0.10969 276646.080000
    932    933     1   0.10969 276646.080000
    932    934     1   0.10969 276646.080000
    935    936     1   0.10304 312293.760000
    935    937     1   0.10304 312293.760000
    935    939     1   0.10304 312293.760000
    940    941     1   0.10910 283424.160000
    940    942     1   0.10910 283424.160000
    943    944     1   0.10969 276646.080000
    943    945     1   0.10969 276646.080000
    946    947     1   0.10969 276646.080000
    946    948     1   0.10969 276646.080000
    949    950     1   0.10304 312293.760000
    949    951     1   0.10304 312293.760000
    949    953     1   0.10304 312293.760000
    954    955     1   0.10910 283424.160000
    954    956     1   0.10910 283424.160000
    957    958     1   0.10969 276646.080000
    957    959     1   0.10969 276646.080000
    960    961     1   0.10969 276646.080000
    960    962     1   0.10969 276646.080000
    963    964     1   0.10304 312293.760000
    963    965     1   0.10304 312293.760000
    963    967     1   0.10304 312293.760000
    968    969     1   0.10910 283424.160000
    968    970     1   0.10910 283424.160000
    971    972     1   0.10969 276646.080000
    971    973     1   0.10969 276646.080000
    974    975     1   0.10969 276646.080000
    974    976     1   0.10969 276646.080000
    977    978     1   0.10304 312293.760000
    977    979     1   0.10304 312293.760000
    977    981     1   0.10304 312293.760000
    982    983     1   0.10910 283424.160000
    982    984     1   0.10910 283424.160000
    985    986     1   0.10969 276646.080000
    985    987     1   0.10969 276646.080000
    988    989     1   0.10969 276646.080000
    988    990     1   0.10969 276646.080000
    991    992     1   0.10304 312293.760000
    991    993     1   0.10304 312293.760000
    991    995     1   0.10304 312293.760000
    996    997     1   0.10910 283424.160000
    996    998     1   0.10910 283424.160000
    999   1000     1   0.10969 276646.080000
    999   1001     1   0.10969 276646.080000
   1002   1003     1   0.10969 276646.080000
   1002   1004     1   0.10969 276646.080000
   1005   1006     1   0.10304 312293.760000
   1005   1007     1   0.10304 312293.760000
   1005   1009     1   0.10304 312293.760000
   1010   1011     1   0.10910 283424.160000
   1010   1012     1   0.10910 283424.160000
   1013   1014     1   0.10969 276646.080000
   1013   1015     1   0.10969 276646.080000
   1016   1017     1   0.10969 276646.080000
   1016   1018     1   0.10969 276646.080000
   1019   1020     1   0.10304 312293.760000
   1019   1021     1   0.10304 312293.760000
   1019   1023     1   0.10304 312293.760000
   1024   1025     1   0.10910 283424.160000
   1024   1026     1   0.10910 283424.160000
   1027   1028     1   0.10969 276646.080000
   1027   1029     1   0.10969 276646.080000
   1030   1031     1   0.10969 276646.080000
   1030   1032     1   0.10969 276646.080000
   1033   1034     1   0.10304 312293.760000
   1033   1035     1   0.10304 312293.760000
   1033   1037     1   0.10304 312293.760000
   1038   1039     1   0.10910 283424.160000
   1038   1040     1   0.10910 283424.160000
   1041   1042     1   0.10969 276646.080000
   1041   1043     1   0.10969 276646.080000
   1044   1045     1   0.10969 276646.080000
   1044   1046     1   0.10969 276646.080000
   1047   1048     1   0.10304 312293.760000
   1047   1049     1   0.10304 312293.760000
   1047   1051     1   0.10304 312293.760000
   1052   1053     1   0.10910 283424.160000
   1052   1054     1   0.10910 283424.160000
   1055   1056     1   0.10969 276646.080000
   1055   1057     1   0.10969 276646.080000
   1058   1059     1   0.10969 276646.080000
   1058   1060     1   0.10969 276646.080000
   1061   1062     1   0.10304 312293.760000
   1061   1063     1   0.10304 312293.760000
   1061   1065     1   0.10304 312293.760000
   1066   1067     1   0.10910 283424.160000
   1066   1068     1   0.10910 283424.160000
   1069   1070     1   0.10969 276646.080000
   1069   1071     1   0.10969 276646.080000
   1072   1073     1   0.10969 276646.080000
   1072   1074     1   0.10969 276646.080000
   1075   1076     1   0.10304 312293.760000
   1075   1077     1   0.10304 312293.760000
   1075   1079     1   0.10304 312293.760000
   1080   1081     1   0.10910 283424.160000
   1080   1082     1   0.10910 283424.160000
   1083   1084     1   0.10969 276646.080000
   1083   1085     1   0.10969 276646.080000
   1086   1087     1   0.10969 276646.080000
   1086   1088     1   0.10969 276646.080000
   1089   1090     1   0.10304 312293.760000
   1089   1091     1   0.10304 312293.760000
   1089   1093     1   0.10304 312293.760000
   1094   1095     1   0.10910 283424.160000
   1094   1096     1   0.10910 283424.160000
   1097   1098     1   0.10969 276646.080000
   1097   1099     1   0.10969 276646.080000
   1100   1101     1   0.10969 276646.080000
   1100   1102     1   0.10969 276646.080000
   1103   1104     1   0.10304 312293.760000
   1103   1105     1   0.10304 312293.760000
   1103   1107     1   0.10304 312293.760000
   1108   1109     1   0.10910 283424.160000
   1108   1110     1   0.10910 283424.160000
   1111   1112     1   0.10969 276646.080000
   1111   1113     1   0.10969 276646.080000
   1114   1115     1   0.10969 276646.080000
   1114   1116     1   0.10969 276646.080000
   1117   1118     1   0.10304 312293.760000
   1117   1119     1   0.10304 312293.760000
   1117   1121     1   0.10304 312293.760000
   1122   1123     1   0.10910 283424.160000
   1122   1124     1   0.10910 283424.160000
   1125   1126     1   0.10969 276646.080000
   1125   1127     1   0.10969 276646.080000
   1128   1129     1   0.10969 276646.080000
   1128   1130     1   0.10969 276646.080000
   1131   1132     1   0.10304 312293.760000
   1131   1133     1   0.10304 312293.760000
   1131   1135     1   0.10304 312293.760000
   1136   1137     1   0.10910 283424.160000
   1136   1138     1   0.10910 283424.160000
   1139   1140     1   0.10969 276646.080000
   1139   1141     1   0.10969 276646.080000
   1142   1143     1   0.10969 276646.080000
   1142   1144     1   0.10969 276646.080000
   1145   1146     1   0.10304 312293.760000
   1145   1147     1   0.10304 312293.760000
   1145   1149     1   0.10304 312293.760000
   1150   1151     1   0.10910 283424.160000
   1150   1152     1   0.10910 283424.160000
   1153   1154     1   0.10969 276646.080000
   1153   1155     1   0.10969 276646.080000
   1156   1157     1   0.10969 276646.080000
   1156   1158     1   0.10969 276646.080000
   1159   1160     1   0.10304 312293.760000
   1159   1161     1   0.10304 312293.760000
   1159   1163     1   0.10304 312293.760000
   1164   1165     1   0.10910 283424.160000
   1164   1166     1   0.10910 283424.160000
   1167   1168     1   0.10969 276646.080000
   1167   1169     1   0.10969 276646.080000
   1170   1171     1   0.10969 276646.080000
   1170   1172     1   0.10969 276646.080000
   1173   1174     1   0.10304 312293.760000
   1173   1175     1   0.10304 312293.760000
   1173   1177     1   0.10304 312293.760000
   1178   1179     1   0.10910 283424.160000
   1178   1180     1   0.10910 283424.160000
   1181   1182     1   0.10969 276646.080000
   1181   1183     1   0.10969 276646.080000
   1184   1185     1   0.10969 276646.080000
   1184   1186     1   0.10969 276646.080000
   1187   1188     1   0.10304 312293.760000
   1187   1189     1   0.10304 312293.760000
   1187   1191     1   0.10304 312293.760000
   1192   1193     1   0.10910 283424.160000
   1192   1194     1   0.10910 283424.160000
   1195   1196     1   0.10969 276646.080000
   1195   1197     1   0.10969 276646.080000
   1198   1199     1   0.10969 276646.080000
   1198   1200     1   0.10969 276646.080000
   1201   1202     1   0.10304 312293.760000
   1201   1203     1   0.10304 312293.760000
   1201   1205     1   0.10304 312293.760000
   1206   1207     1   0.10910 283424.160000
   1206   1208     1   0.10910 283424.160000
   1209   1210     1   0.10969 276646.080000
   1209   1211     1   0.10969 276646.080000
   1212   1213     1   0.10969 276646.080000
   1212   1214     1   0.10969 276646.080000
   1215   1216     1   0.10304 312293.760000
   1215   1217     1   0.10304 312293.760000
   1215   1219     1   0.10304 312293.760000
   1220   1221     1   0.10910 283424.160000
   1220   1222     1   0.10910 283424.160000
   1223   1224     1   0.10969 276646.080000
   1223   1225     1   0.10969 276646.080000
   1226   1227     1   0.10969 276646.080000
   1226   1228     1   0.10969 276646.080000
   1229   1230     1   0.10304 312293.760000
   1229   1231     1   0.10304 312293.760000
   1229   1233     1   0.10304 312293.760000
   1234   1235     1   0.10910 283424.160000
   1234   1236     1   0.10910 283424.160000
   1237   1238     1   0.10969 276646.080000
   1237   1239     1   0.10969 276646.080000
   1240   1241     1   0.10969 276646.080000
   1240   1242     1   0.10969 276646.080000
   1243   1244     1   0.10304 312293.760000
   1243   1245     1   0.10304 312293.760000
   1243   1247     1   0.10304 312293.760000
   1248   1249     1   0.10910 283424.160000
   1248   1250     1   0.10910 283424.160000
   1251   1252     1   0.10969 276646.080000
   1251   1253     1   0.10969 276646.080000
   1254   1255     1   0.10969 276646.080000
   1254   1256     1   0.10969 276646.080000
   1257   1258     1   0.10304 312293.760000
   1257   1259     1   0.10304 312293.760000
   1257   1261     1   0.10304 312293.760000
   1262   1263     1   0.10910 283424.160000
   1262   1264     1   0.10910 283424.160000
   1265   1266     1   0.10969 276646.080000
   1265   1267     1   0.10969 276646.080000
   1268   1269     1   0.10969 276646.080000
   1268   1270     1   0.10969 276646.080000
   1271   1272     1   0.10304 312293.760000
   1271   1273     1   0.10304 312293.760000
   1271   1275     1   0.10304 312293.760000
   1276   1277     1   0.10910 283424.160000
   1276   1278     1   0.10910 283424.160000
   1279   1280     1   0.10969 276646.080000
   1279   1281     1   0.10969 276646.080000
   1282   1283     1   0.10969 276646.080000
   1282   1284     1   0.10969 276646.080000
   1285   1286     1   0.10304 312293.760000
   1285   1287     1   0.10304 312293.760000
   1285   1289     1   0.10304 312293.760000
   1290   1291     1   0.10910 283424.160000
   1290   1292     1   0.10910 283424.160000
   1293   1294     1   0.10969 276646.080000
   1293   1295     1   0.10969 276646.080000
   1296   1297     1   0.10969 276646.080000
   1296   1298     1   0.10969 276646.080000
   1299   1300     1   0.10304 312293.760000
   1299   1301     1   0.10304 312293.760000
   1299   1303     1   0.10304 312293.760000
   1304   1305     1   0.10910 283424.160000
   1304   1306     1   0.10910 283424.160000
   1307   1308     1   0.10969 276646.080000
   1307   1309     1   0.10969 276646.080000
   1310   1311     1   0.10969 276646.080000
   1310   1312     1   0.10969 276646.080000
   1313   1314     1   0.10304 312293.760000
   1313   1315     1   0.10304 312293.760000
   1313   1317     1   0.10304 312293.760000

[ pairs ]
;    ai     aj funct         c0         c1         c2         c3
      1     14     1
      1     17     1
      2     11     1
      2     20     1
      5      8     1
      5     21     1
      8     28     1
      8     31     1
     11     22     1
     11     25     1
     14     40     1
     14     43     1
     17     34     1
     17     37     1
     20     49     1
     20     46     1
     21     55     1
     21     52     1
     22     37     1
     22    173     1
     25     34     1
     25    144     1
     28     43     1
     28    115     1
     31     40     1
     31     86     1
     34    164     1
     37    135     1
     40    106     1
     43     77     1
     46     68     1
     49     97     1
     52    126     1
     55    155     1
     58     83     1
     58     80     1
     58     77     1
     59     74     1
     59     68     1
     59    231     1
     62     71     1
     62     68     1
     62    202     1
     65     71     1
     65     74     1
     65     86     1
     71    222     1
     74    193     1
     80    184     1
     83    213     1
     87    112     1
     87    109     1
     87    106     1
     88    103     1
     88     97     1
     88    289     1
     91    100     1
     91     97     1
     91    260     1
     94    100     1
     94    103     1
     94    115     1
    100    280     1
    103    251     1
    109    242     1
    112    271     1
    116    141     1
    116    138     1
    116    135     1
    117    132     1
    117    126     1
    117    347     1
    120    129     1
    120    126     1
    120    318     1
    123    129     1
    123    132     1
    123    144     1
    129    338     1
    132    309     1
    138    300     1
    141    329     1
    145    170     1
    145    167     1
    145    164     1
    146    161     1
    146    155     1
    146    405     1
    149    158     1
    149    155     1
    149    376     1
    152    158     1
    152    161     1
    152    173     1
    158    396     1
    161    367     1
    167    358     1
    170    387     1
    174    199     1
    174    196     1
    174    193     1
    175    190     1
    175    184     1
    175    463     1
    178    187     1
    178    184     1
    178    434     1
    181    187     1
    181    190     1
    181    202     1
    187    454     1
    190    425     1
    196    416     1
    199    445     1
    203    228     1
    203    225     1
    203    222     1
    204    219     1
    204    213     1
    204    521     1
    207    216     1
    207    213     1
    207    492     1
    210    216     1
    210    219     1
    210    231     1
    216    512     1
    219    483     1
    225    474     1
    228    503     1
    232    257     1
    232    254     1
    232    251     1
    233    248     1
    233    242     1
    233    579     1
    236    245     1
    236    242     1
    236    550     1
    239    245     1
    239    248     1
    239    260     1
    245    570     1
    248    541     1
    254    532     1
    257    561     1
    261    286     1
    261    283     1
    261    280     1
    262    277     1
    262    271     1
    262    637     1
    265    274     1
    265    271     1
    265    608     1
    268    274     1
    268    277     1
    268    289     1
    274    628     1
    277    599     1
    283    590     1
    286    619     1
    290    315     1
    290    312     1
    290    309     1
    291    306     1
    291    300     1
    291    695     1
    294    303     1
    294    300     1
    294    666     1
    297    303     1
    297    306     1
    297    318     1
    303    686     1
    306    657     1
    312    648     1
    315    677     1
    319    344     1
    319    341     1
    319    338     1
    320    335     1
    320    329     1
    320    753     1
    323    332     1
    323    329     1
    323    724     1
    326    332     1
    326    335     1
    326    347     1
    332    744     1
    335    715     1
    341    706     1
    344    735     1
    348    373     1
    348    370     1
    348    367     1
    349    364     1
    349    358     1
    349    811     1
    352    361     1
    352    358     1
    352    782     1
    355    361     1
    355    364     1
    355    376     1
    361    802     1
    364    773     1
    370    764     1
    373    793     1
    377    402     1
    377    399     1
    377    396     1
    378    393     1
    378    387     1
    378    869     1
    381    390     1
    381    387     1
    381    840     1
    384    390     1
    384    393     1
    384    405     1
    390    860     1
    393    831     1
    399    822     1
    402    851     1
    406    431     1
    406    428     1
    406    425     1
    407    422     1
    407    416     1
    407    896     1
    410    419     1
    410    416     1
    410    882     1
    413    419     1
    413    422     1
    413    434     1
    419    890     1
    422    876     1
    428    873     1
    431    887     1
    435    460     1
    435    457     1
    435    454     1
    436    451     1
    436    445     1
    436    924     1
    439    448     1
    439    445     1
    439    910     1
    442    448     1
    442    451     1
    442    463     1
    448    918     1
    451    904     1
    457    901     1
    460    915     1
    464    489     1
    464    486     1
    464    483     1
    465    480     1
    465    474     1
    465    952     1
    468    477     1
    468    474     1
    468    938     1
    471    477     1
    471    480     1
    471    492     1
    477    946     1
    480    932     1
    486    929     1
    489    943     1
    493    518     1
    493    515     1
    493    512     1
    494    509     1
    494    503     1
    494    980     1
    497    506     1
    497    503     1
    497    966     1
    500    506     1
    500    509     1
    500    521     1
    506    974     1
    509    960     1
    515    957     1
    518    971     1
    522    547     1
    522    544     1
    522    541     1
    523    538     1
    523    532     1
    523   1008     1
    526    535     1
    526    532     1
    526    994     1
    529    535     1
    529    538     1
    529    550     1
    535   1002     1
    538    988     1
    544    985     1
    547    999     1
    551    576     1
    551    573     1
    551    570     1
    552    567     1
    552    561     1
    552   1036     1
    555    564     1
    555    561     1
    555   1022     1
    558    564     1
    558    567     1
    558    579     1
    564   1030     1
    567   1016     1
    573   1013     1
    576   1027     1
    580    605     1
    580    602     1
    580    599     1
    581    596     1
    581    590     1
    581   1064     1
    584    593     1
    584    590     1
    584   1050     1
    587    593     1
    587    596     1
    587    608     1
    593   1058     1
    596   1044     1
    602   1041     1
    605   1055     1
    609    634     1
    609    631     1
    609    628     1
    610    625     1
    610    619     1
    610   1092     1
    613    622     1
    613    619     1
    613   1078     1
    616    622     1
    616    625     1
    616    637     1
    622   1086     1
    625   1072     1
    631   1069     1
    634   1083     1
    638    663     1
    638    660     1
    638    657     1
    639    654     1
    639    648     1
    639   1120     1
    642    651     1
    642    648     1
    642   1106     1
    645    651     1
    645    654     1
    645    666     1
    651   1114     1
    654   1100     1
    660   1097     1
    663   1111     1
    667    692     1
    667    689     1
    667    686     1
    668    683     1
    668    677     1
    668   1148     1
    671    680     1
    671    677     1
    671   1134     1
    674    680     1
    674    683     1
    674    695     1
    680   1142     1
    683   1128     1
    689   1125     1
    692   1139     1
    696    721     1
    696    718     1
    696    715     1
    697    712     1
    697    706     1
    697   1176     1
    700    709     1
    700    706     1
    700   1162     1
    703    709     1
    703    712     1
    703    724     1
    709   1170     1
    712   1156     1
    718   1153     1
    721   1167     1
    725    750     1
    725    747     1
    725    744     1
    726    741     1
    726    735     1
    726   1204     1
    729    738     1
    729    735     1
    729   1190     1
    732    738     1
    732    741     1
    732    753     1
    738   1198     1
    741   1184     1
    747   1181     1
    750   1195     1
    754    779     1
    754    776     1
    754    773     1
    755    770     1
    755    764     1
    755   1232     1
    758    767     1
    758    764     1
    758   1218     1
    761    767     1
    761    770     1
    761    782     1
    767   1226     1
    770   1212     1
    776   1209     1
    779   1223     1
    783    808     1
    783    805     1
    783    802     1
    784    799     1
    784    793     1
    784   1260     1
    787    796     1
    787    793     1
    787   1246     1
    790    796     1
    790    799     1
    790    811     1
    796   1254     1
    799   1240     1
    805   1237     1
    808   1251     1
    812    837     1
    812    834     1
    812    831     1
    813    828     1
    813    822     1
    813   1288     1
    816    825     1
    816    822     1
    816   1274     1
    819    825     1
    819    828     1
    819    840     1
    825   1282     1
    828   1268     1
    834   1265     1
    837   1279     1
    841    866     1
    841    863     1
    841    860     1
    842    857     1
    842    851     1
    842   1316     1
    845    854     1
    845    851     1
    845   1302     1
    848    854     1
    848    857     1
    848    869     1
    854   1310     1
    857   1296     1
    863   1293     1
    866   1307     1
    870    882     1
    876    879     1
    884    896     1
    890    893     1
    898    910     1
    904    907     1
    912    924     1
    918    921     1
    926    938     1
    932    935     1
    940    952     1
    946    949     1
    954    966     1
    960    963     1
    968    980     1
    974    977     1
    982    994     1
    988    991     1
    996   1008     1
   1002   1005     1
   1010   1022     1
   1016   1019     1
   1024   1036     1
   1030   1033     1
   1038   1050     1
   1044   1047     1
   1052   1064     1
   1058   1061     1
   1066   1078     1
   1072   1075     1
   1080   1092     1
   1086   1089     1
   1094   1106     1
   1100   1103     1
   1108   1120     1
   1114   1117     1
   1122   1134     1
   1128   1131     1
   1136   1148     1
   1142   1145     1
   1150   1162     1
   1156   1159     1
   1164   1176     1
   1170   1173     1
   1178   1190     1
   1184   1187     1
   1192   1204     1
   1198   1201     1
   1206   1218     1
   1212   1215     1
   1220   1232     1
   1226   1229     1
   1234   1246     1
   1240   1243     1
   1248   1260     1
   1254   1257     1
   1262   1274     1
   1268   1271     1
   1276   1288     1
   1282   1285     1
   1290   1302     1
   1296   1299     1
   1304   1316     1
   1310   1313     1
      1      9     1
      1     10     1
      1     12     1
      1     13     1
      2      6     1
      2      7     1
      2     15     1
      2     16     1
      5      3     1
      3     14     1
      3      9     1
      3     10     1
      5      4     1
      4     14     1
      4      9     1
      4     10     1
      5     18     1
      5     19     1
      6     17     1
      6     12     1
      6     13     1
      7     17     1
      7     12     1
      7     13     1
      9     20     1
      9     15     1
      9     16     1
     10     20     1
     10     15     1
     10     16     1
     12     21     1
     12     18     1
     12     19     1
     13     21     1
     13     18     1
     13     19     1
     14     29     1
     14     30     1
     14     32     1
     14     33     1
     15     28     1
     15     31     1
     16     28     1
     16     31     1
     17     23     1
     17     24     1
     17     26     1
     17     27     1
     18     22     1
     18     25     1
     19     22     1
     19     25     1
     20     41     1
     20     42     1
     20     44     1
     20     45     1
     21     35     1
     21     36     1
     21     38     1
     21     39     1
     22     26     1
     22     27     1
     22     56     1
     22     57     1
     23     25     1
     23     55     1
     23     35     1
     23     36     1
     24     25     1
     24     55     1
     24     35     1
     24     36     1
     25     53     1
     25     54     1
     26     52     1
     26     38     1
     26     39     1
     27     52     1
     27     38     1
     27     39     1
     28     32     1
     28     33     1
     28     50     1
     28     51     1
     29     31     1
     29     49     1
     29     41     1
     29     42     1
     30     31     1
     30     49     1
     30     41     1
     30     42     1
     31     47     1
     31     48     1
     32     46     1
     32     44     1
     32     45     1
     33     46     1
     33     44     1
     33     45     1
     35    173     1
     35     56     1
     35     57     1
     36    173     1
     36     56     1
     36     57     1
     38    144     1
     38     53     1
     38     54     1
     39    144     1
     39     53     1
     39     54     1
     41    115     1
     41     50     1
     41     51     1
     42    115     1
     42     50     1
     42     51     1
     44     86     1
     44     47     1
     44     48     1
     45     86     1
     45     47     1
     45     48     1
     46     78     1
     46     79     1
     47     77     1
     48     77     1
     49    107     1
     49    108     1
     50    106     1
     51    106     1
     52    136     1
     52    137     1
     53    135     1
     54    135     1
     55    165     1
     55    166     1
     56    164     1
     57    164     1
     58     72     1
     58     73     1
     58     75     1
     58     76     1
     58     69     1
     58     70     1
     59     63     1
     59     64     1
     59     66     1
     59     67     1
     59     84     1
     59     85     1
     60     62     1
     60     65     1
     60     83     1
     60     72     1
     60     73     1
     61     62     1
     61     65     1
     61     83     1
     61     72     1
     61     73     1
     62     66     1
     62     67     1
     62     81     1
     62     82     1
     63     65     1
     63     80     1
     63     75     1
     63     76     1
     64     65     1
     64     80     1
     64     75     1
     64     76     1
     65     78     1
     65     79     1
     66     77     1
     66     69     1
     66     70     1
     67     77     1
     67     69     1
     67     70     1
     69     86     1
     69     78     1
     69     79     1
     70     86     1
     70     78     1
     70     79     1
     72    231     1
     72     84     1
     72     85     1
     73    231     1
     73     84     1
     73     85     1
     75    202     1
     75     81     1
     75     82     1
     76    202     1
     76     81     1
     76     82     1
     80    194     1
     80    195     1
     81    193     1
     82    193     1
     83    223     1
     83    224     1
     84    222     1
     85    222     1
     87    101     1
     87    102     1
     87    104     1
     87    105     1
     87     98     1
     87     99     1
     88     92     1
     88     93     1
     88     95     1
     88     96     1
     88    113     1
     88    114     1
     89     91     1
     89     94     1
     89    112     1
     89    101     1
     89    102     1
     90     91     1
     90     94     1
     90    112     1
     90    101     1
     90    102     1
     91     95     1
     91     96     1
     91    110     1
     91    111     1
     92     94     1
     92    109     1
     92    104     1
     92    105     1
     93     94     1
     93    109     1
     93    104     1
     93    105     1
     94    107     1
     94    108     1
     95    106     1
     95     98     1
     95     99     1
     96    106     1
     96     98     1
     96     99     1
     98    115     1
     98    107     1
     98    108     1
     99    115     1
     99    107     1
     99    108     1
    101    289     1
    101    113     1
    101    114     1
    102    289     1
    102    113     1
    102    114     1
    104    260     1
    104    110     1
    104    111     1
    105    260     1
    105    110     1
    105    111     1
    109    252     1
    109    253     1
    110    251     1
    111    251     1
    112    281     1
    112    282     1
    113    280     1
    114    280     1
    116    130     1
    116    131     1
    116    133     1
    116    134     1
    116    127     1
    116    128     1
    117    121     1
    117    122     1
    117    124     1
    117    125     1
    117    142     1
    117    143     1
    118    120     1
    118    123     1
    118    141     1
    118    130     1
    118    131     1
    119    120     1
    119    123     1
    119    141     1
    119    130     1
    119    131     1
    120    124     1
    120    125     1
    120    139     1
    120    140     1
    121    123     1
    121    138     1
    121    133     1
    121    134     1
    122    123     1
    122    138     1
    122    133     1
    122    134     1
    123    136     1
    123    137     1
    124    135     1
    124    127     1
    124    128     1
    125    135     1
    125    127     1
    125    128     1
    127    144     1
    127    136     1
    127    137     1
    128    144     1
    128    136     1
    128    137     1
    130    347     1
    130    142     1
    130    143     1
    131    347     1
    131    142     1
    131    143     1
    133    318     1
    133    139     1
    133    140     1
    134    318     1
    134    139     1
    134    140     1
    138    310     1
    138    311     1
    139    309     1
    140    309     1
    141    339     1
    141    340     1
    142    338     1
    143    338     1
    145    159     1
    145    160     1
    145    162     1
    145    163     1
    145    156     1
    145    157     1
    146    150     1
    146    151     1
    146    153     1
    146    154     1
    146    171     1
    146    172     1
    147    149     1
    147    152     1
    147    170     1
    147    159     1
    147    160     1
    148    149     1
    148    152     1
    148    170     1
    148    159     1
    148    160     1
    149    153     1
    149    154     1
    149    168     1
    149    169     1
    150    152     1
    150    167     1
    150    162     1
    150    163     1
    151    152     1
    151    167     1
    151    162     1
    151    163     1
    152    165     1
    152    166     1
    153    164     1
    153    156     1
    153    157     1
    154    164     1
    154    156     1
    154    157     1
    156    173     1
    156    165     1
    156    166     1
    157    173     1
    157    165     1
    157    166     1
    159    405     1
    159    171     1
    159    172     1
    160    405     1
    160    171     1
    160    172     1
    162    376     1
    162    168     1
    162    169     1
    163    376     1
    163    168     1
    163    169     1
    167    368     1
    167    369     1
    168    367     1
    169    367     1
    170    397     1
    170    398     1
    171    396     1
    172    396     1
    174    188     1
    174    189     1
    174    191     1
    174    192     1
    174    185     1
    174    186     1
    175    179     1
    175    180     1
    175    182     1
    175    183     1
    175    200     1
    175    201     1
    176    178     1
    176    181     1
    176    199     1
    176    188     1
    176    189     1
    177    178     1
    177    181     1
    177    199     1
    177    188     1
    177    189     1
    178    182     1
    178    183     1
    178    197     1
    178    198     1
    179    181     1
    179    196     1
    179    191     1
    179    192     1
    180    181     1
    180    196     1
    180    191     1
    180    192     1
    181    194     1
    181    195     1
    182    193     1
    182    185     1
    182    186     1
    183    193     1
    183    185     1
    183    186     1
    185    202     1
    185    194     1
    185    195     1
    186    202     1
    186    194     1
    186    195     1
    188    463     1
    188    200     1
    188    201     1
    189    463     1
    189    200     1
    189    201     1
    191    434     1
    191    197     1
    191    198     1
    192    434     1
    192    197     1
    192    198     1
    196    426     1
    196    427     1
    197    425     1
    198    425     1
    199    455     1
    199    456     1
    200    454     1
    201    454     1
    203    217     1
    203    218     1
    203    220     1
    203    221     1
    203    214     1
    203    215     1
    204    208     1
    204    209     1
    204    211     1
    204    212     1
    204    229     1
    204    230     1
    205    207     1
    205    210     1
    205    228     1
    205    217     1
    205    218     1
    206    207     1
    206    210     1
    206    228     1
    206    217     1
    206    218     1
    207    211     1
    207    212     1
    207    226     1
    207    227     1
    208    210     1
    208    225     1
    208    220     1
    208    221     1
    209    210     1
    209    225     1
    209    220     1
    209    221     1
    210    223     1
    210    224     1
    211    222     1
    211    214     1
    211    215     1
    212    222     1
    212    214     1
    212    215     1
    214    231     1
    214    223     1
    214    224     1
    215    231     1
    215    223     1
    215    224     1
    217    521     1
    217    229     1
    217    230     1
    218    521     1
    218    229     1
    218    230     1
    220    492     1
    220    226     1
    220    227     1
    221    492     1
    221    226     1
    221    227     1
    225    484     1
    225    485     1
    226    483     1
    227    483     1
    228    513     1
    228    514     1
    229    512     1
    230    512     1
    232    246     1
    232    247     1
    232    249     1
    232    250     1
    232    243     1
    232    244     1
    233    237     1
    233    238     1
    233    240     1
    233    241     1
    233    258     1
    233    259     1
    234    236     1
    234    239     1
    234    257     1
    234    246     1
    234    247     1
    235    236     1
    235    239     1
    235    257     1
    235    246     1
    235    247     1
    236    240     1
    236    241     1
    236    255     1
    236    256     1
    237    239     1
    237    254     1
    237    249     1
    237    250     1
    238    239     1
    238    254     1
    238    249     1
    238    250     1
    239    252     1
    239    253     1
    240    251     1
    240    243     1
    240    244     1
    241    251     1
    241    243     1
    241    244     1
    243    260     1
    243    252     1
    243    253     1
    244    260     1
    244    252     1
    244    253     1
    246    579     1
    246    258     1
    246    259     1
    247    579     1
    247    258     1
    247    259     1
    249    550     1
    249    255     1
    249    256     1
    250    550     1
    250    255     1
    250    256     1
    254    542     1
    254    543     1
    255    541     1
    256    541     1
    257    571     1
    257    572     1
    258    570     1
    259    570     1
    261    275     1
    261    276     1
    261    278     1
    261    279     1
    261    272     1
    261    273     1
    262    266     1
    262    267     1
    262    269     1
    262    270     1
    262    287     1
    262    288     1
    263    265     1
    263    268     1
    263    286     1
    263    275     1
    263    276     1
    264    265     1
    264    268     1
    264    286     1
    264    275     1
    264    276     1
    265    269     1
    265    270     1
    265    284     1
    265    285     1
    266    268     1
    266    283     1
    266    278     1
    266    279     1
    267    268     1
    267    283     1
    267    278     1
    267    279     1
    268    281     1
    268    282     1
    269    280     1
    269    272     1
    269    273     1
    270    280     1
    270    272     1
    270    273     1
    272    289     1
    272    281     1
    272    282     1
    273    289     1
    273    281     1
    273    282     1
    275    637     1
    275    287     1
    275    288     1
    276    637     1
    276    287     1
    276    288     1
    278    608     1
    278    284     1
    278    285     1
    279    608     1
    279    284     1
    279    285     1
    283    600     1
    283    601     1
    284    599     1
    285    599     1
    286    629     1
    286    630     1
    287    628     1
    288    628     1
    290    304     1
    290    305     1
    290    307     1
    290    308     1
    290    301     1
    290    302     1
    291    295     1
    291    296     1
    291    298     1
    291    299     1
    291    316     1
    291    317     1
    292    294     1
    292    297     1
    292    315     1
    292    304     1
    292    305     1
    293    294     1
    293    297     1
    293    315     1
    293    304     1
    293    305     1
    294    298     1
    294    299     1
    294    313     1
    294    314     1
    295    297     1
    295    312     1
    295    307     1
    295    308     1
    296    297     1
    296    312     1
    296    307     1
    296    308     1
    297    310     1
    297    311     1
    298    309     1
    298    301     1
    298    302     1
    299    309     1
    299    301     1
    299    302     1
    301    318     1
    301    310     1
    301    311     1
    302    318     1
    302    310     1
    302    311     1
    304    695     1
    304    316     1
    304    317     1
    305    695     1
    305    316     1
    305    317     1
    307    666     1
    307    313     1
    307    314     1
    308    666     1
    308    313     1
    308    314     1
    312    658     1
    312    659     1
    313    657     1
    314    657     1
    315    687     1
    315    688     1
    316    686     1
    317    686     1
    319    333     1
    319    334     1
    319    336     1
    319    337     1
    319    330     1
    319    331     1
    320    324     1
    320    325     1
    320    327     1
    320    328     1
    320    345     1
    320    346     1
    321    323     1
    321    326     1
    321    344     1
    321    333     1
    321    334     1
    322    323     1
    322    326     1
    322    344     1
    322    333     1
    322    334     1
    323    327     1
    323    328     1
    323    342     1
    323    343     1
    324    326     1
    324    341     1
    324    336     1
    324    337     1
    325    326     1
    325    341     1
    325    336     1
    325    337     1
    326    339     1
    326    340     1
    327    338     1
    327    330     1
    327    331     1
    328    338     1
    328    330     1
    328    331     1
    330    347     1
    330    339     1
    330    340     1
    331    347     1
    331    339     1
    331    340     1
    333    753     1
    333    345     1
    333    346     1
    334    753     1
    334    345     1
    334    346     1
    336    724     1
    336    342     1
    336    343     1
    337    724     1
    337    342     1
    337    343     1
    341    716     1
    341    717     1
    342    715     1
    343    715     1
    344    745     1
    344    746     1
    345    744     1
    346    744     1
    348    362     1
    348    363     1
    348    365     1
    348    366     1
    348    359     1
    348    360     1
    349    353     1
    349    354     1
    349    356     1
    349    357     1
    349    374     1
    349    375     1
    350    352     1
    350    355     1
    350    373     1
    350    362     1
    350    363     1
    351    352     1
    351    355     1
    351    373     1
    351    362     1
    351    363     1
    352    356     1
    352    357     1
    352    371     1
    352    372     1
    353    355     1
    353    370     1
    353    365     1
    353    366     1
    354    355     1
    354    370     1
    354    365     1
    354    366     1
    355    368     1
    355    369     1
    356    367     1
    356    359     1
    356    360     1
    357    367     1
    357    359     1
    357    360     1
    359    376     1
    359    368     1
    359    369     1
    360    376     1
    360    368     1
    360    369     1
    362    811     1
    362    374     1
    362    375     1
    363    811     1
    363    374     1
    363    375     1
    365    782     1
    365    371     1
    365    372     1
    366    782     1
    366    371     1
    366    372     1
    370    774     1
    370    775     1
    371    773     1
    372    773     1
    373    803     1
    373    804     1
    374    802     1
    375    802     1
    377    391     1
    377    392     1
    377    394     1
    377    395     1
    377    388     1
    377    389     1
    378    382     1
    378    383     1
    378    385     1
    378    386     1
    378    403     1
    378    404     1
    379    381     1
    379    384     1
    379    402     1
    379    391     1
    379    392     1
    380    381     1
    380    384     1
    380    402     1
    380    391     1
    380    392     1
    381    385     1
    381    386     1
    381    400     1
    381    401     1
    382    384     1
    382    399     1
    382    394     1
    382    395     1
    383    384     1
    383    399     1
    383    394     1
    383    395     1
    384    397     1
    384    398     1
    385    396     1
    385    388     1
    385    389     1
    386    396     1
    386    388     1
    386    389     1
    388    405     1
    388    397     1
    388    398     1
    389    405     1
    389    397     1
    389    398     1
    391    869     1
    391    403     1
    391    404     1
    392    869     1
    392    403     1
    392    404     1
    394    840     1
    394    400     1
    394    401     1
    395    840     1
    395    400     1
    395    401     1
    399    832     1
    399    833     1
    400    831     1
    401    831     1
    402    861     1
    402    862     1
    403    860     1
    404    860     1
    406    420     1
    406    421     1
    406    423     1
    406    424     1
    406    417     1
    406    418     1
    407    411     1
    407    412     1
    407    414     1
    407    415     1
    407    432     1
    407    433     1
    408    410     1
    408    413     1
    408    431     1
    408    420     1
    408    421     1
    409    410     1
    409    413     1
    409    431     1
    409    420     1
    409    421     1
    410    414     1
    410    415     1
    410    429     1
    410    430     1
    411    413     1
    411    428     1
    411    423     1
    411    424     1
    412    413     1
    412    428     1
    412    423     1
    412    424     1
    413    426     1
    413    427     1
    414    425     1
    414    417     1
    414    418     1
    415    425     1
    415    417     1
    415    418     1
    417    434     1
    417    426     1
    417    427     1
    418    434     1
    418    426     1
    418    427     1
    420    896     1
    420    432     1
    420    433     1
    421    896     1
    421    432     1
    421    433     1
    423    882     1
    423    429     1
    423    430     1
    424    882     1
    424    429     1
    424    430     1
    428    877     1
    428    878     1
    429    876     1
    430    876     1
    431    891     1
    431    892     1
    432    890     1
    433    890     1
    435    449     1
    435    450     1
    435    452     1
    435    453     1
    435    446     1
    435    447     1
    436    440     1
    436    441     1
    436    443     1
    436    444     1
    436    461     1
    436    462     1
    437    439     1
    437    442     1
    437    460     1
    437    449     1
    437    450     1
    438    439     1
    438    442     1
    438    460     1
    438    449     1
    438    450     1
    439    443     1
    439    444     1
    439    458     1
    439    459     1
    440    442     1
    440    457     1
    440    452     1
    440    453     1
    441    442     1
    441    457     1
    441    452     1
    441    453     1
    442    455     1
    442    456     1
    443    454     1
    443    446     1
    443    447     1
    444    454     1
    444    446     1
    444    447     1
    446    463     1
    446    455     1
    446    456     1
    447    463     1
    447    455     1
    447    456     1
    449    924     1
    449    461     1
    449    462     1
    450    924     1
    450    461     1
    450    462     1
    452    910     1
    452    458     1
    452    459     1
    453    910     1
    453    458     1
    453    459     1
    457    905     1
    457    906     1
    458    904     1
    459    904     1
    460    919     1
    460    920     1
    461    918     1
    462    918     1
    464    478     1
    464    479     1
    464    481     1
    464    482     1
    464    475     1
    464    476     1
    465    469     1
    465    470     1
    465    472     1
    465    473     1
    465    490     1
    465    491     1
    466    468     1
    466    471     1
    466    489     1
    466    478     1
    466    479     1
    467    468     1
    467    471     1
    467    489     1
    467    478     1
    467    479     1
    468    472     1
    468    473     1
    468    487     1
    468    488     1
    469    471     1
    469    486     1
    469    481     1
    469    482     1
    470    471     1
    470    486     1
    470    481     1
    470    482     1
    471    484     1
    471    485     1
    472    483     1
    472    475     1
    472    476     1
    473    483     1
    473    475     1
    473    476     1
    475    492     1
    475    484     1
    475    485     1
    476    492     1
    476    484     1
    476    485     1
    478    952     1
    478    490     1
    478    491     1
    479    952     1
    479    490     1
    479    491     1
    481    938     1
    481    487     1
    481    488     1
    482    938     1
    482    487     1
    482    488     1
    486    933     1
    486    934     1
    487    932     1
    488    932     1
    489    947     1
    489    948     1
    490    946     1
    491    946     1
    493    507     1
    493    508     1
    493    510     1
    493    511     1
    493    504     1
    493    505     1
    494    498     1
    494    499     1
    494    501     1
    494    502     1
    494    519     1
    494    520     1
    495    497     1
    495    500     1
    495    518     1
    495    507     1
    495    508     1
    496    497     1
    496    500     1
    496    518     1
    496    507     1
    496    508     1
    497    501     1
    497    502     1
    497    516     1
    497    517     1
    498    500     1
    498    515     1
    498    510     1
    498    511     1
    499    500     1
    499    515     1
    499    510     1
    499    511     1
    500    513     1
    500    514     1
    501    512     1
    501    504     1
    501    505     1
    502    512     1
    502    504     1
    502    505     1
    504    521     1
    504    513     1
    504    514     1
    505    521     1
    505    513     1
    505    514     1
    507    980     1
    507    519     1
    507    520     1
    508    980     1
    508    519     1
    508    520     1
    510    966     1
    510    516     1
    510    517     1
    511    966     1
    511    516     1
    511    517     1
    515    961     1
    515    962     1
    516    960     1
    517    960     1
    518    975     1
    518    976     1
    519    974     1
    520    974     1
    522    536     1
    522    537     1
    522    539     1
    522    540     1
    522    533     1
    522    534     1
    523    527     1
    523    528     1
    523    530     1
    523    531     1
    523    548     1
    523    549     1
    524    526     1
    524    529     1
    524    547     1
    524    536     1
    524    537     1
    525    526     1
    525    529     1
    525    547     1
    525    536     1
    525    537     1
    526    530     1
    526    531     1
    526    545     1
    526    546     1
    527    529     1
    527    544     1
    527    539     1
    527    540     1
    528    529     1
    528    544     1
    528    539     1
    528    540     1
    529    542     1
    529    543     1
    530    541     1
    530    533     1
    530    534     1
    531    541     1
    531    533     1
    531    534     1
    533    550     1
    533    542     1
    533    543     1
    534    550     1
    534    542     1
    534    543     1
    536   1008     1
    536    548     1
    536    549     1
    537   1008     1
    537    548     1
    537    549     1
    539    994     1
    539    545     1
    539    546     1
    540    994     1
    540    545     1
    540    546     1
    544    989     1
    544    990     1
    545    988     1
    546    988     1
    547   1003     1
    547   1004     1
    548   1002     1
    549   1002     1
    551    565     1
    551    566     1
    551    568     1
    551    569     1
    551    562     1
    551    563     1
    552    556     1
    552    557     1
    552    559     1
    552    560     1
    552    577     1
    552    578     1
    553    555     1
    553    558     1
    553    576     1
    553    565     1
    553    566     1
    554    555     1
    554    558     1
    554    576     1
    554    565     1
    554    566     1
    555    559     1
    555    560     1
    555    574     1
    555    575     1
    556    558     1
    556    573     1
    556    568     1
    556    569     1
    557    558     1
    557    573     1
    557    568     1
    557    569     1
    558    571     1
    558    572     1
    559    570     1
    559    562     1
    559    563     1
    560    570     1
    560    562     1
    560    563     1
    562    579     1
    562    571     1
    562    572     1
    563    579     1
    563    571     1
    563    572     1
    565   1036     1
    565    577     1
    565    578     1
    566   1036     1
    566    577     1
    566    578     1
    568   1022     1
    568    574     1
    568    575     1
    569   1022     1
    569    574     1
    569    575     1
    573   1017     1
    573   1018     1
    574   1016     1
    575   1016     1
    576   1031     1
    576   1032     1
    577   1030     1
    578   1030     1
    580    594     1
    580    595     1
    580    597     1
    580    598     1
    580    591     1
    580    592     1
    581    585     1
    581    586     1
    581    588     1
    581    589     1
    581    606     1
    581    607     1
    582    584     1
    582    587     1
    582    605     1
    582    594     1
    582    595     1
    583    584     1
    583    587     1
    583    605     1
    583    594     1
    583    595     1
    584    588     1
    584    589     1
    584    603     1
    584    604     1
    585    587     1
    585    602     1
    585    597     1
    585    598     1
    586    587     1
    586    602     1
    586    597     1
    586    598     1
    587    600     1
    587    601     1
    588    599     1
    588    591     1
    588    592     1
    589    599     1
    589    591     1
    589    592     1
    591    608     1
    591    600     1
    591    601     1
    592    608     1
    592    600     1
    592    601     1
    594   1064     1
    594    606     1
    594    607     1
    595   1064     1
    595    606     1
    595    607     1
    597   1050     1
    597    603     1
    597    604     1
    598   1050     1
    598    603     1
    598    604     1
    602   1045     1
    602   1046     1
    603   1044     1
    604   1044     1
    605   1059     1
    605   1060     1
    606   1058     1
    607   1058     1
    609    623     1
    609    624     1
    609    626     1
    609    627     1
    609    620     1
    609    621     1
    610    614     1
    610    615     1
    610    617     1
    610    618     1
    610    635     1
    610    636     1
    611    613     1
    611    616     1
    611    634     1
    611    623     1
    611    624     1
    612    613     1
    612    616     1
    612    634     1
    612    623     1
    612    624     1
    613    617     1
    613    618     1
    613    632     1
    613    633     1
    614    616     1
    614    631     1
    614    626     1
    614    627     1
    615    616     1
    615    631     1
    615    626     1
    615    627     1
    616    629     1
    616    630     1
    617    628     1
    617    620     1
    617    621     1
    618    628     1
    618    620     1
    618    621     1
    620    637     1
    620    629     1
    620    630     1
    621    637     1
    621    629     1
    621    630     1
    623   1092     1
    623    635     1
    623    636     1
    624   1092     1
    624    635     1
    624    636     1
    626   1078     1
    626    632     1
    626    633     1
    627   1078     1
    627    632     1
    627    633     1
    631   1073     1
    631   1074     1
    632   1072     1
    633   1072     1
    634   1087     1
    634   1088     1
    635   1086     1
    636   1086     1
    638    652     1
    638    653     1
    638    655     1
    638    656     1
    638    649     1
    638    650     1
    639    643     1
    639    644     1
    639    646     1
    639    647     1
    639    664     1
    639    665     1
    640    642     1
    640    645     1
    640    663     1
    640    652     1
    640    653     1
    641    642     1
    641    645     1
    641    663     1
    641    652     1
    641    653     1
    642    646     1
    642    647     1
    642    661     1
    642    662     1
    643    645     1
    643    660     1
    643    655     1
    643    656     1
    644    645     1
    644    660     1
    644    655     1
    644    656     1
    645    658     1
    645    659     1
    646    657     1
    646    649     1
    646    650     1
    647    657     1
    647    649     1
    647    650     1
    649    666     1
    649    658     1
    649    659     1
    650    666     1
    650    658     1
    650    659     1
    652   1120     1
    652    664     1
    652    665     1
    653   1120     1
    653    664     1
    653    665     1
    655   1106     1
    655    661     1
    655    662     1
    656   1106     1
    656    661     1
    656    662     1
    660   1101     1
    660   1102     1
    661   1100     1
    662   1100     1
    663   1115     1
    663   1116     1
    664   1114     1
    665   1114     1
    667    681     1
    667    682     1
    667    684     1
    667    685     1
    667    678     1
    667    679     1
    668    672     1
    668    673     1
    668    675     1
    668    676     1
    668    693     1
    668    694     1
    669    671     1
    669    674     1
    669    692     1
    669    681     1
    669    682     1
    670    671     1
    670    674     1
    670    692     1
    670    681     1
    670    682     1
    671    675     1
    671    676     1
    671    690     1
    671    691     1
    672    674     1
    672    689     1
    672    684     1
    672    685     1
    673    674     1
    673    689     1
    673    684     1
    673    685     1
    674    687     1
    674    688     1
    675    686     1
    675    678     1
    675    679     1
    676    686     1
    676    678     1
    676    679     1
    678    695     1
    678    687     1
    678    688     1
    679    695     1
    679    687     1
    679    688     1
    681   1148     1
    681    693     1
    681    694     1
    682   1148     1
    682    693     1
    682    694     1
    684   1134     1
    684    690     1
    684    691     1
    685   1134     1
    685    690     1
    685    691     1
    689   1129     1
    689   1130     1
    690   1128     1
    691   1128     1
    692   1143     1
    692   1144     1
    693   1142     1
    694   1142     1
    696    710     1
    696    711     1
    696    713     1
    696    714     1
    696    707     1
    696    708     1
    697    701     1
    697    702     1
    697    704     1
    697    705     1
    697    722     1
    697    723     1
    698    700     1
    698    703     1
    698    721     1
    698    710     1
    698    711     1
    699    700     1
    699    703     1
    699    721     1
    699    710     1
    699    711     1
    700    704     1
    700    705     1
    700    719     1
    700    720     1
    701    703     1
    701    718     1
    701    713     1
    701    714     1
    702    703     1
    702    718     1
    702    713     1
    702    714     1
    703    716     1
    703    717     1
    704    715     1
    704    707     1
    704    708     1
    705    715     1
    705    707     1
    705    708     1
    707    724     1
    707    716     1
    707    717     1
    708    724     1
    708    716     1
    708    717     1
    710   1176     1
    710    722     1
    710    723     1
    711   1176     1
    711    722     1
    711    723     1
    713   1162     1
    713    719     1
    713    720     1
    714   1162     1
    714    719     1
    714    720     1
    718   1157     1
    718   1158     1
    719   1156     1
    720   1156     1
    721   1171     1
    721   1172     1
    722   1170     1
    723   1170     1
    725    739     1
    725    740     1
    725    742     1
    725    743     1
    725    736     1
    725    737     1
    726    730     1
    726    731     1
    726    733     1
    726    734     1
    726    751     1
    726    752     1
    727    729     1
    727    732     1
    727    750     1
    727    739     1
    727    740     1
    728    729     1
    728    732     1
    728    750     1
    728    739     1
    728    740     1
    729    733     1
    729    734     1
    729    748     1
    729    749     1
    730    732     1
    730    747     1
    730    742     1
    730    743     1
    731    732     1
    731    747     1
    731    742     1
    731    743     1
    732    745     1
    732    746     1
    733    744     1
    733    736     1
    733    737     1
    734    744     1
    734    736     1
    734    737     1
    736    753     1
    736    745     1
    736    746     1
    737    753     1
    737    745     1
    737    746     1
    739   1204     1
    739    751     1
    739    752     1
    740   1204     1
    740    751     1
    740    752     1
    742   1190     1
    742    748     1
    742    749     1
    743   1190     1
    743    748     1
    743    749     1
    747   1185     1
    747   1186     1
    748   1184     1
    749   1184     1
    750   1199     1
    750   1200     1
    751   1198     1
    752   1198     1
    754    768     1
    754    769     1
    754    771     1
    754    772     1
    754    765     1
    754    766     1
    755    759     1
    755    760     1
    755    762     1
    755    763     1
    755    780     1
    755    781     1
    756    758     1
    756    761     1
    756    779     1
    756    768     1
    756    769     1
    757    758     1
    757    761     1
    757    779     1
    757    768     1
    757    769     1
    758    762     1
    758    763     1
    758    777     1
    758    778     1
    759    761     1
    759    776     1
    759    771     1
    759    772     1
    760    761     1
    760    776     1
    760    771     1
    760    772     1
    761    774     1
    761    775     1
    762    773     1
    762    765     1
    762    766     1
    763    773     1
    763    765     1
    763    766     1
    765    782     1
    765    774     1
    765    775     1
    766    782     1
    766    774     1
    766    775     1
    768   1232     1
    768    780     1
    768    781     1
    769   1232     1
    769    780     1
    769    781     1
    771   1218     1
    771    777     1
    771    778     1
    772   1218     1
    772    777     1
    772    778     1
    776   1213     1
    776   1214     1
    777   1212     1
    778   1212     1
    779   1227     1
    779   1228     1
    780   1226     1
    781   1226     1
    783    797     1
    783    798     1
    783    800     1
    783    801     1
    783    794     1
    783    795     1
    784    788     1
    784    789     1
    784    791     1
    784    792     1
    784    809     1
    784    810     1
    785    787     1
    785    790     1
    785    808     1
    785    797     1
    785    798     1
    786    787     1
    786    790     1
    786    808     1
    786    797     1
    786    798     1
    787    791     1
    787    792     1
    787    806     1
    787    807     1
    788    790     1
    788    805     1
    788    800     1
    788    801     1
    789    790     1
    789    805     1
    789    800     1
    789    801     1
    790    803     1
    790    804     1
    791    802     1
    791    794     1
    791    795     1
    792    802     1
    792    794     1
    792    795     1
    794    811     1
    794    803     1
    794    804     1
    795    811     1
    795    803     1
    795    804     1
    797   1260     1
    797    809     1
    797    810     1
    798   1260     1
    798    809     1
    798    810     1
    800   1246     1
    800    806     1
    800    807     1
    801   1246     1
    801    806     1
    801    807     1
    805   1241     1
    805   1242     1
    806   1240     1
    807   1240     1
    808   1255     1
    808   1256     1
    809   1254     1
    810   1254     1
    812    826     1
    812    827     1
    812    829     1
    812    830     1
    812    823     1
    812    824     1
    813    817     1
    813    818     1
    813    820     1
    813    821     1
    813    838     1
    813    839     1
    814    816     1
    814    819     1
    814    837     1
    814    826     1
    814    827     1
    815    816     1
    815    819     1
    815    837     1
    815    826     1
    815    827     1
    816    820     1
    816    821     1
    816    835     1
    816    836     1
    817    819     1
    817    834     1
    817    829     1
    817    830     1
    818    819     1
    818    834     1
    818    829     1
    818    830     1
    819    832     1
    819    833     1
    820    831     1
    820    823     1
    820    824     1
    821    831     1
    821    823     1
    821    824     1
    823    840     1
    823    832     1
    823    833     1
    824    840     1
    824    832     1
    824    833     1
    826   1288     1
    826    838     1
    826    839     1
    827   1288     1
    827    838     1
    827    839     1
    829   1274     1
    829    835     1
    829    836     1
    830   1274     1
    830    835     1
    830    836     1
    834   1269     1
    834   1270     1
    835   1268     1
    836   1268     1
    837   1283     1
    837   1284     1
    838   1282     1
    839   1282     1
    841    855     1
    841    856     1
    841    858     1
    841    859     1
    841    852     1
    841    853     1
    842    846     1
    842    847     1
    842    849     1
    842    850     1
    842    867     1
    842    868     1
    843    845     1
    843    848     1
    843    866     1
    843    855     1
    843    856     1
    844    845     1
    844    848     1
    844    866     1
    844    855     1
    844    856     1
    845    849     1
    845    850     1
    845    864     1
    845    865     1
    846    848     1
    846    863     1
    846    858     1
    846    859     1
    847    848     1
    847    863     1
    847    858     1
    847    859     1
    848    861     1
    848    862     1
    849    860     1
    849    852     1
    849    853     1
    850    860     1
    850    852     1
    850    853     1
    852    869     1
    852    861     1
    852    862     1
    853    869     1
    853    861     1
    853    862     1
    855   1316     1
    855    867     1
    855    868     1
    856   1316     1
    856    867     1
    856    868     1
    858   1302     1
    858    864     1
    858    865     1
    859   1302     1
    859    864     1
    859    865     1
    863   1297     1
    863   1298     1
    864   1296     1
    865   1296     1
    866   1311     1
    866   1312     1
    867   1310     1
    868   1310     1
    870    877     1
    870    878     1
    871    876     1
    871    874     1
    871    875     1
    871    880     1
    871    881     1
    871    883     1
    872    876     1
    872    874     1
    872    875     1
    872    880     1
    872    881     1
    872    883     1
    873    880     1
    873    881     1
    873    883     1
    874    879     1
    874    882     1
    874    877     1
    874    878     1
    875    879     1
    875    882     1
    875    877     1
    875    878     1
    884    891     1
    884    892     1
    885    890     1
    885    888     1
    885    889     1
    885    894     1
    885    895     1
    885    897     1
    886    890     1
    886    888     1
    886    889     1
    886    894     1
    886    895     1
    886    897     1
    887    894     1
    887    895     1
    887    897     1
    888    896     1
    888    891     1
    888    892     1
    888    893     1
    889    896     1
    889    891     1
    889    892     1
    889    893     1
    898    905     1
    898    906     1
    899    904     1
    899    902     1
    899    903     1
    899    908     1
    899    909     1
    899    911     1
    900    904     1
    900    902     1
    900    903     1
    900    908     1
    900    909     1
    900    911     1
    901    908     1
    901    909     1
    901    911     1
    902    907     1
    902    910     1
    902    905     1
    902    906     1
    903    907     1
    903    910     1
    903    905     1
    903    906     1
    912    919     1
    912    920     1
    913    918     1
    913    916     1
    913    917     1
    913    922     1
    913    923     1
    913    925     1
    914    918     1
    914    916     1
    914    917     1
    914    922     1
    914    923     1
    914    925     1
    915    922     1
    915    923     1
    915    925     1
    916    924     1
    916    919     1
    916    920     1
    916    921     1
    917    924     1
    917    919     1
    917    920     1
    917    921     1
    926    933     1
    926    934     1
    927    932     1
    927    930     1
    927    931     1
    927    936     1
    927    937     1
    927    939     1
    928    932     1
    928    930     1
    928    931     1
    928    936     1
    928    937     1
    928    939     1
    929    936     1
    929    937     1
    929    939     1
    930    935     1
    930    938     1
    930    933     1
    930    934     1
    931    935     1
    931    938     1
    931    933     1
    931    934     1
    940    947     1
    940    948     1
    941    946     1
    941    944     1
    941    945     1
    941    950     1
    941    951     1
    941    953     1
    942    946     1
    942    944     1
    942    945     1
    942    950     1
    942    951     1
    942    953     1
    943    950     1
    943    951     1
    943    953     1
    944    952     1
    944    947     1
    944    948     1
    944    949     1
    945    952     1
    945    947     1
    945    948     1
    945    949     1
    954    961     1
    954    962     1
    955    960     1
    955    958     1
    955    959     1
    955    964     1
    955    965     1
    955    967     1
    956    960     1
    956    958     1
    956    959     1
    956    964     1
    956    965     1
    956    967     1
    957    964     1
    957    965     1
    957    967     1
    958    963     1
    958    966     1
    958    961     1
    958    962     1
    959    963     1
    959    966     1
    959    961     1
    959    962     1
    968    975     1
    968    976     1
    969    974     1
    969    972     1
    969    973     1
    969    978     1
    969    979     1
    969    981     1
    970    974     1
    970    972     1
    970    973     1
    970    978     1
    970    979     1
    970    981     1
    971    978     1
    971    979     1
    971    981     1
    972    980     1
    972    975     1
    972    976     1
    972    977     1
    973    980     1
    973    975     1
    973    976     1
    973    977     1
    982    989     1
    982    990     1
    983    988     1
    983    986     1
    983    987     1
    983    992     1
    983    993     1
    983    995     1
    984    988     1
    984    986     1
    984    987     1
    984    992     1
    984    993     1
    984    995     1
    985    992     1
    985    993     1
    985    995     1
    986    991     1
    986    994     1
    986    989     1
    986    990     1
    987    991     1
    987    994     1
    987    989     1
    987    990     1
    996   1003     1
    996   1004     1
    997   1002     1
    997   1000     1
    997   1001     1
    997   1006     1
    997   1007     1
    997   1009     1
    998   1002     1
    998   1000     1
    998   1001     1
    998   1006     1
    998   1007     1
    998   1009     1
    999   1006     1
    999   1007     1
    999   1009     1
   1000   1008     1
   1000   1003     1
   1000   1004     1
   1000   1005     1
   1001   1008     1
   1001   1003     1
   1001   1004     1
   1001   1005     1
   1010   1017     1
   1010   1018     1
   1011   1016     1
   1011   1014     1
   1011   1015     1
   1011   1020     1
   1011   1021     1
   1011   1023     1
   1012   1016     1
   1012   1014     1
   1012   1015     1
   1012   1020     1
   1012   1021     1
   1012   1023     1
   1013   1020     1
   1013   1021     1
   1013   1023     1
   1014   1019     1
   1014   1022     1
   1014   1017     1
   1014   1018     1
   1015   1019     1
   1015   1022     1
   1015   1017     1
   1015   1018     1
   1024   1031     1
   1024   1032     1
   1025   1030     1
   1025   1028     1
   1025   1029     1
   1025   1034     1
   1025   1035     1
   1025   1037     1
   1026   1030     1
   1026   1028     1
   1026   1029     1
   1026   1034     1
   1026   1035     1
   1026   1037     1
   1027   1034     1
   1027   1035     1
   1027   1037     1
   1028   1036     1
   1028   1031     1
   1028   1032     1
   1028   1033     1
   1029   1036     1
   1029   1031     1
   1029   1032     1
   1029   1033     1
   1038   1045     1
   1038   1046     1
   1039   1044     1
   1039   1042     1
   1039   1043     1
   1039   1048     1
   1039   1049     1
   1039   1051     1
   1040   1044     1
   1040   1042     1
   1040   1043     1
   1040   1048     1
   1040   1049     1
   1040   1051     1
   1041   1048     1
   1041   1049     1
   1041   1051     1
   1042   1047     1
   1042   1050     1
   1042   1045     1
   1042   1046     1
   1043   1047     1
   1043   1050     1
   1043   1045     1
   1043   1046     1
   1052   1059     1
   1052   1060     1
   1053   1058     1
   1053   1056     1
   1053   1057     1
   1053   1062     1
   1053   1063     1
   1053   1065     1
   1054   1058     1
   1054   1056     1
   1054   1057     1
   1054   1062     1
   1054   1063     1
   1054   1065     1
   1055   1062     1
   1055   1063     1
   1055   1065     1
   1056   1064     1
   1056   1059     1
   1056   1060     1
   1056   1061     1
   1057   1064     1
   1057   1059     1
   1057   1060     1
   1057   1061     1
   1066   1073     1
   1066   1074     1
   1067   1072     1
   1067   1070     1
   1067   1071     1
   1067   1076     1
   1067   1077     1
   1067   1079     1
   1068   1072     1
   1068   1070     1
   1068   1071     1
   1068   1076     1
   1068   1077     1
   1068   1079     1
   1069   1076     1
   1069   1077     1
   1069   1079     1
   1070   1075     1
   1070   1078     1
   1070   1073     1
   1070   1074     1
   1071   1075     1
   1071   1078     1
   1071   1073     1
   1071   1074     1
   1080   1087     1
   1080   1088     1
   1081   1086     1
   1081   1084     1
   1081   1085     1
   1081   1090     1
   1081   1091     1
   1081   1093     1
   1082   1086     1
   1082   1084     1
   1082   1085     1
   1082   1090     1
   1082   1091     1
   1082   1093     1
   1083   1090     1
   1083   1091     1
   1083   1093     1
   1084   1092     1
   1084   1087     1
   1084   1088     1
   1084   1089     1
   1085   1092     1
   1085   1087     1
   1085   1088     1
   1085   1089     1
   1094   1101     1
   1094   1102     1
   1095   1100     1
   1095   1098     1
   1095   1099     1
   1095   1104     1
   1095   1105     1
   1095   1107     1
   1096   1100     1
   1096   1098     1
   1096   1099     1
   1096   1104     1
   1096   1105     1
   1096   1107     1
   1097   1104     1
   1097   1105     1
   1097   1107     1
   1098   1103     1
   1098   1106     1
   1098   1101     1
   1098   1102     1
   1099   1103     1
   1099   1106     1
   1099   1101     1
   1099   1102     1
   1108   1115     1
   1108   1116     1
   1109   1114     1
   1109   1112     1
   1109   1113     1
   1109   1118     1
   1109   1119     1
   1109   1121     1
   1110   1114     1
   1110   1112     1
   1110   1113     1
   1110   1118     1
   1110   1119     1
   1110   1121     1
   1111   1118     1
   1111   1119     1
   1111   1121     1
   1112   1120     1
   1112   1115     1
   1112   1116     1
   1112   1117     1
   1113   1120     1
   1113   1115     1
   1113   1116     1
   1113   1117     1
   1122   1129     1
   1122   1130     1
   1123   1128     1
   1123   1126     1
   1123   1127     1
   1123   1132     1
   1123   1133     1
   1123   1135     1
   1124   1128     1
   1124   1126     1
   1124   1127     1
   1124   1132     1
   1124   1133     1
   1124   1135     1
   1125   1132     1
   1125   1133     1
   1125   1135     1
   1126   1131     1
   1126   1134     1
   1126   1129     1
   1126   1130     1
   1127   1131     1
   1127   1134     1
   1127   1129     1
   1127   1130     1
   1136   1143     1
   1136   1144     1
   1137   1142     1
   1137   1140     1
   1137   1141     1
   1137   1146     1
   1137   1147     1
   1137   1149     1
   1138   1142     1
   1138   1140     1
   1138   1141     1
   1138   1146     1
   1138   1147     1
   1138   1149     1
   1139   1146     1
   1139   1147     1
   1139   1149     1
   1140   1148     1
   1140   1143     1
   1140   1144     1
   1140   1145     1
   1141   1148     1
   1141   1143     1
   1141   1144     1
   1141   1145     1
   1150   1157     1
   1150   1158     1
   1151   1156     1
   1151   1154     1
   1151   1155     1
   1151   1160     1
   1151   1161     1
   1151   1163     1
   1152   1156     1
   1152   1154     1
   1152   1155     1
   1152   1160     1
   1152   1161     1
   1152   1163     1
   1153   1160     1
   1153   1161     1
   1153   1163     1
   1154   1159     1
   1154   1162     1
   1154   1157     1
   1154   1158     1
   1155   1159     1
   1155   1162     1
   1155   1157     1
   1155   1158     1
   1164   1171     1
   1164   1172     1
   1165   1170     1
   1165   1168     1
   1165   1169     1
   1165   1174     1
   1165   1175     1
   1165   1177     1
   1166   1170     1
   1166   1168     1
   1166   1169     1
   1166   1174     1
   1166   1175     1
   1166   1177     1
   1167   1174     1
   1167   1175     1
   1167   1177     1
   1168   1176     1
   1168   1171     1
   1168   1172     1
   1168   1173     1
   1169   1176     1
   1169   1171     1
   1169   1172     1
   1169   1173     1
   1178   1185     1
   1178   1186     1
   1179   1184     1
   1179   1182     1
   1179   1183     1
   1179   1188     1
   1179   1189     1
   1179   1191     1
   1180   1184     1
   1180   1182     1
   1180   1183     1
   1180   1188     1
   1180   1189     1
   1180   1191     1
   1181   1188     1
   1181   1189     1
   1181   1191     1
   1182   1187     1
   1182   1190     1
   1182   1185     1
   1182   1186     1
   1183   1187     1
   1183   1190     1
   1183   1185     1
   1183   1186     1
   1192   1199     1
   1192   1200     1
   1193   1198     1
   1193   1196     1
   1193   1197     1
   1193   1202     1
   1193   1203     1
   1193   1205     1
   1194   1198     1
   1194   1196     1
   1194   1197     1
   1194   1202     1
   1194   1203     1
   1194   1205     1
   1195   1202     1
   1195   1203     1
   1195   1205     1
   1196   1204     1
   1196   1199     1
   1196   1200     1
   1196   1201     1
   1197   1204     1
   1197   1199     1
   1197   1200     1
   1197   1201     1
   1206   1213     1
   1206   1214     1
   1207   1212     1
   1207   1210     1
   1207   1211     1
   1207   1216     1
   1207   1217     1
   1207   1219     1
   1208   1212     1
   1208   1210     1
   1208   1211     1
   1208   1216     1
   1208   1217     1
   1208   1219     1
   1209   1216     1
   1209   1217     1
   1209   1219     1
   1210   1215     1
   1210   1218     1
   1210   1213     1
   1210   1214     1
   1211   1215     1
   1211   1218     1
   1211   1213     1
   1211   1214     1
   1220   1227     1
   1220   1228     1
   1221   1226     1
   1221   1224     1
   1221   1225     1
   1221   1230     1
   1221   1231     1
   1221   1233     1
   1222   1226     1
   1222   1224     1
   1222   1225     1
   1222   1230     1
   1222   1231     1
   1222   1233     1
   1223   1230     1
   1223   1231     1
   1223   1233     1
   1224   1232     1
   1224   1227     1
   1224   1228     1
   1224   1229     1
   1225   1232     1
   1225   1227     1
   1225   1228     1
   1225   1229     1
   1234   1241     1
   1234   1242     1
   1235   1240     1
   1235   1238     1
   1235   1239     1
   1235   1244     1
   1235   1245     1
   1235   1247     1
   1236   1240     1
   1236   1238     1
   1236   1239     1
   1236   1244     1
   1236   1245     1
   1236   1247     1
   1237   1244     1
   1237   1245     1
   1237   1247     1
   1238   1243     1
   1238   1246     1
   1238   1241     1
   1238   1242     1
   1239   1243     1
   1239   1246     1
   1239   1241     1
   1239   1242     1
   1248   1255     1
   1248   1256     1
   1249   1254     1
   1249   1252     1
   1249   1253     1
   1249   1258     1
   1249   1259     1
   1249   1261     1
   1250   1254     1
   1250   1252     1
   1250   1253     1
   1250   1258     1
   1250   1259     1
   1250   1261     1
   1251   1258     1
   1251   1259     1
   1251   1261     1
   1252   1260     1
   1252   1255     1
   1252   1256     1
   1252   1257     1
   1253   1260     1
   1253   1255     1
   1253   1256     1
   1253   1257     1
   1262   1269     1
   1262   1270     1
   1263   1268     1
   1263   1266     1
   1263   1267     1
   1263   1272     1
   1263   1273     1
   1263   1275     1
   1264   1268     1
   1264   1266     1
   1264   1267     1
   1264   1272     1
   1264   1273     1
   1264   1275     1
   1265   1272     1
   1265   1273     1
   1265   1275     1
   1266   1271     1
   1266   1274     1
   1266   1269     1
   1266   1270     1
   1267   1271     1
   1267   1274     1
   1267   1269     1
   1267   1270     1
   1276   1283     1
   1276   1284     1
   1277   1282     1
   1277   1280     1
   1277   1281     1
   1277   1286     1
   1277   1287     1
   1277   1289     1
   1278   1282     1
   1278   1280     1
   1278   1281     1
   1278   1286     1
   1278   1287     1
   1278   1289     1
   1279   1286     1
   1279   1287     1
   1279   1289     1
   1280   1288     1
   1280   1283     1
   1280   1284     1
   1280   1285     1
   1281   1288     1
   1281   1283     1
   1281   1284     1
   1281   1285     1
   1290   1297     1
   1290   1298     1
   1291   1296     1
   1291   1294     1
   1291   1295     1
   1291   1300     1
   1291   1301     1
   1291   1303     1
   1292   1296     1
   1292   1294     1
   1292   1295     1
   1292   1300     1
   1292   1301     1
   1292   1303     1
   1293   1300     1
   1293   1301     1
   1293   1303     1
   1294   1299     1
   1294   1302     1
   1294   1297     1
   1294   1298     1
   1295   1299     1
   1295   1302     1
   1295   1297     1
   1295   1298     1
   1304   1311     1
   1304   1312     1
   1305   1310     1
   1305   1308     1
   1305   1309     1
   1305   1314     1
   1305   1315     1
   1305   1317     1
   1306   1310     1
   1306   1308     1
   1306   1309     1
   1306   1314     1
   1306   1315     1
   1306   1317     1
   1307   1314     1
   1307   1315     1
   1307   1317     1
   1308   1316     1
   1308   1311     1
   1308   1312     1
   1308   1313     1
   1309   1316     1
   1309   1311     1
   1309   1312     1
   1309   1313     1

[ angles ]
;    ai     aj     ak funct         c0         c1         c2         c3
      1      2      8     1   107.9700462 569.024000
      1      5     11     1   107.9700462 569.024000
      2      1      5     1   112.4800480 524.673600
      2      8     14     1   111.5100476 526.347200
      5     11     17     1   111.5100476 526.347200
      8     14     20     1   111.0400475 552.288000
     11     17     21     1   111.0400475 552.288000
     14     20     28     1   112.3500484 533.878400
     14     20     31     1   112.3500484 533.878400
     17     21     22     1   112.3500484 533.878400
     17     21     25     1   112.3500484 533.878400
     20     28     40     1   111.0400475 552.288000
     20     31     43     1   111.0400475 552.288000
     21     22     34     1   111.0400475 552.288000
     21     25     37     1   111.0400475 552.288000
     22     21     25     1   112.3500484 533.878400
     22     34     55     1   111.5100476 526.347200
     25     37     52     1   111.5100476 526.347200
     28     20     31     1   112.3500484 533.878400
     28     40     49     1   111.5100476 526.347200
     31     43     46     1   111.5100476 526.347200
     34     55    173     1   107.9700462 569.024000
     37     52    144     1   107.9700462 569.024000
     40     49    115     1   107.9700462 569.024000
     43     46     86     1   107.9700462 569.024000
     46     86     77     1   112.4800480 524.673600
     49    115    106     1   112.4800480 524.673600
     52    144    135     1   112.4800480 524.673600
     55    173    164     1   112.4800480 524.673600
     58     59     71     1   111.0400475 552.288000
     58     62     74     1   111.0400475 552.288000
     58     65     68     1   111.0400475 552.288000
     59     58     62     1   112.3500484 533.878400
     59     58     65     1   112.3500484 533.878400
     59     71     83     1   111.5100476 526.347200
     62     58     65     1   112.3500484 533.878400
     62     74     80     1   111.5100476 526.347200
     65     68     77     1   111.5100476 526.347200
     68     77     86     1   107.9700462 569.024000
     71     83    231     1   107.9700462 569.024000
     74     80    202     1   107.9700462 569.024000
     80    202    193     1   112.4800480 524.673600
     83    231    222     1   112.4800480 524.673600
     87     88    100     1   111.0400475 552.288000
     87     91    103     1   111.0400475 552.288000
     87     94     97     1   111.0400475 552.288000
     88     87     91     1   112.3500484 533.878400
     88     87     94     1   112.3500484 533.878400
     88    100    112     1   111.5100476 526.347200
     91     87     94     1   112.3500484 533.878400
     91    103    109     1   111.5100476 526.347200
     94     97    106     1   111.5100476 526.347200
     97    106    115     1   107.9700462 569.024000
    100    112    289     1   107.9700462 569.024000
    103    109    260     1   107.9700462 569.024000
    109    260    251     1   112.4800480 524.673600
    112    289    280     1   112.4800480 524.673600
    116    117    129     1   111.0400475 552.288000
    116    120    132     1   111.0400475 552.288000
    116    123    126     1   111.0400475 552.288000
    117    116    120     1   112.3500484 533.878400
    117    116    123     1   112.3500484 533.878400
    117    129    141     1   111.5100476 526.347200
    120    116    123     1   112.3500484 533.878400
    120    132    138     1   111.5100476 526.347200
    123    126    135     1   111.5100476 526.347200
    126    135    144     1   107.9700462 569.024000
    129    141    347     1   107.9700462 569.024000
    132    138    318     1   107.9700462 569.024000
    138    318    309     1   112.4800480 524.673600
    141    347    338     1   112.4800480 524.673600
    145    146    158     1   111.0400475 552.288000
    145    149    161     1   111.0400475 552.288000
    145    152    155     1   111.0400475 552.288000
    146    145    149     1   112.3500484 533.878400
    146    145    152     1   112.3500484 533.878400
    146    158    170     1   111.5100476 526.347200
    149    145    152     1   112.3500484 533.878400
    149    161    167     1   111.5100476 526.347200
    152    155    164     1   111.5100476 526.347200
    155    164    173     1   107.9700462 569.024000
    158    170    405     1   107.9700462 569.024000
    161    167    376     1   107.9700462 569.024000
    167    376    367     1   112.4800480 524.673600
    170    405    396     1   112.4800480 524.673600
    174    175    187     1   111.0400475 552.288000
    174    178    190     1   111.0400475 552.288000
    174    181    184     1   111.0400475 552.288000
    175    174    178     1   112.3500484 533.878400
    175    174    181     1   112.3500484 533.878400
    175    187    199     1   111.5100476 526.347200
    178    174    181     1   112.3500484 533.878400
    178    190    196     1   111.5100476 526.347200
    181    184    193     1   111.5100476 526.347200
    184    193    202     1   107.9700462 569.024000
    187    199    463     1   107.9700462 569.024000
    190    196    434     1   107.9700462 569.024000
    196    434    425     1   112.4800480 524.673600
    199    463    454     1   112.4800480 524.673600
    203    204    216     1   111.0400475 552.288000
    203    207    219     1   111.0400475 552.288000
    203    210    213     1   111.0400475 552.288000
    204    203    207     1   112.3500484 533.878400
    204    203    210     1   112.3500484 533.878400
    204    216    228     1   111.5100476 526.347200
    207    203    210     1   112.3500484 533.878400
    207    219    225     1   111.5100476 526.347200
    210    213    222     1   111.5100476 526.347200
    213    222    231     1   107.9700462 569.024000
    216    228    521     1   107.9700462 569.024000
    219    225    492     1   107.9700462 569.024000
    225    492    483     1   112.4800480 524.673600
    228    521    512     1   112.4800480 524.673600
    232    233    245     1   111.0400475 552.288000
    232    236    248     1   111.0400475 552.288000
    232    239    242     1   111.0400475 552.288000
    233    232    236     1   112.3500484 533.878400
    233    232    239     1   112.3500484 533.878400
    233    245    257     1   111.5100476 526.347200
    236    232    239     1   112.3500484 533.878400
    236    248    254     1   111.5100476 526.347200
    239    242    251     1   111.5100476 526.347200
    242    251    260     1   107.9700462 569.024000
    245    257    579     1   107.9700462 569.024000
    248    254    550     1   107.9700462 569.024000
    254    550    541     1   112.4800480 524.673600
    257    579    570     1   112.4800480 524.673600
    261    262    274     1   111.0400475 552.288000
    261    265    277     1   111.0400475 552.288000
    261    268    271     1   111.0400475 552.288000
    262    261    265     1   112.3500484 533.878400
    262    261    268     1   112.3500484 533.878400
    262    274    286     1   111.5100476 526.347200
    265    261    268     1   112.3500484 533.878400
    265    277    283     1   111.5100476 526.347200
    268    271    280     1   111.5100476 526.347200
    271    280    289     1   107.9700462 569.024000
    274    286    637     1   107.9700462 569.024000
    277    283    608     1   107.9700462 569.024000
    283    608    599     1   112.4800480 524.673600
    286    637    628     1   112.4800480 524.673600
    290    291    303     1   111.0400475 552.288000
    290    294    306     1   111.0400475 552.288000
    290    297    300     1   111.0400475 552.288000
    291    290    294     1   112.3500484 533.878400
    291    290    297     1   112.3500484 533.878400
    291    303    315     1   111.5100476 526.347200
    294    290    297     1   112.3500484 533.878400
    294    306    312     1   111.5100476 526.347200
    297    300    309     1   111.5100476 526.347200
    300    309    318     1   107.9700462 569.024000
    303    315    695     1   107.9700462 569.024000
    306    312    666     1   107.9700462 569.024000
    312    666    657     1   112.4800480 524.673600
    315    695    686     1   112.4800480 524.673600
    319    320    332     1   111.0400475 552.288000
    319    323    335     1   111.0400475 552.288000
    319    326    329     1   111.0400475 552.288000
    320    319    323     1   112.3500484 533.878400
    320    319    326     1   112.3500484 533.878400
    320    332    344     1   111.5100476 526.347200
    323    319    326     1   112.3500484 533.878400
    323    335    341     1   111.5100476 526.347200
    326    329    338     1   111.5100476 526.347200
    329    338    347     1   107.9700462 569.024000
    332    344    753     1   107.9700462 569.024000
    335    341    724     1   107.9700462 569.024000
    341    724    715     1   112.4800480 524.673600
    344    753    744     1   112.4800480 524.673600
    348    349    361     1   111.0400475 552.288000
    348    352    364     1   111.0400475 552.288000
    348    355    358     1   111.0400475 552.288000
    349    348    352     1   112.3500484 533.878400
    349    348    355     1   112.3500484 533.878400
    349    361    373     1   111.5100476 526.347200
    352    348    355     1   112.3500484 533.878400
    352    364    370     1   111.5100476 526.347200
    355    358    367     1   111.5100476 526.347200
    358    367    376     1   107.9700462 569.024000
    361    373    811     1   107.9700462 569.024000
    364    370    782     1   107.9700462 569.024000
    370    782    773     1   112.4800480 524.673600
    373    811    802     1   112.4800480 524.673600
    377    378    390     1   111.0400475 552.288000
    377    381    393     1   111.0400475 552.288000
    377    384    387     1   111.0400475 552.288000
    378    377    381     1   112.3500484 533.878400
    378    377    384     1   112.3500484 533.878400
    378    390    402     1   111.5100476 526.347200
    381    377    384     1   112.3500484 533.878400
    381    393    399     1   111.5100476 526.347200
    384    387    396     1   111.5100476 526.347200
    387    396    405     1   107.9700462 569.024000
    390    402    869     1   107.9700462 569.024000
    393    399    840     1   107.9700462 569.024000
    399    840    831     1   112.4800480 524.673600
    402    869    860     1   112.4800480 524.673600
    406    407    419     1   111.0400475 552.288000
    406    410    422     1   111.0400475 552.288000
    406    413    416     1   111.0400475 552.288000
    407    406    410     1   112.3500484 533.878400
    407    406    413     1   112.3500484 533.878400
    407    419    431     1   111.5100476 526.347200
    410    406    413     1   112.3500484 533.878400
    410    422    428     1   111.5100476 526.347200
    413    416    425     1   111.5100476 526.347200
    416    425    434     1   107.9700462 569.024000
    419    431    896     1   107.9700462 569.024000
    422    428    882     1   107.9700462 569.024000
    428    882    876     1   112.4800480 524.673600
    431    896    890     1   112.4800480 524.673600
    435    436    448     1   111.0400475 552.288000
    435    439    451     1   111.0400475 552.288000
    435    442    445     1   111.0400475 552.288000
    436    435    439     1   112.3500484 533.878400
    436    435    442     1   112.3500484 533.878400
    436    448    460     1   111.5100476 526.347200
    439    435    442     1   112.3500484 533.878400
    439    451    457     1   111.5100476 526.347200
    442    445    454     1   111.5100476 526.347200
    445    454    463     1   107.9700462 569.024000
    448    460    924     1   107.9700462 569.024000
    451    457    910     1   107.9700462 569.024000
    457    910    904     1   112.4800480 524.673600
    460    924    918     1   112.4800480 524.673600
    464    465    477     1   111.0400475 552.288000
    464    468    480     1   111.0400475 552.288000
    464    471    474     1   111.0400475 552.288000
    465    464    468     1   112.3500484 533.878400
    465    464    471     1   112.3500484 533.878400
    465    477    489     1   111.5100476 526.347200
    468    464    471     1   112.3500484 533.878400
    468    480    486     1   111.5100476 526.347200
    471    474    483     1   111.5100476 526.347200
    474    483    492     1   107.9700462 569.024000
    477    489    952     1   107.9700462 569.024000
    480    486    938     1   107.9700462 569.024000
    486    938    932     1   112.4800480 524.673600
    489    952    946     1   112.4800480 524.673600
    493    494    506     1   111.0400475 552.288000
    493    497    509     1   111.0400475 552.288000
    493    500    503     1   111.0400475 552.288000
    494    493    497     1   112.3500484 533.878400
    494    493    500     1   112.3500484 533.878400
    494    506    518     1   111.5100476 526.347200
    497    493    500     1   112.3500484 533.878400
    497    509    515     1   111.5100476 526.347200
    500    503    512     1   111.5100476 526.347200
    503    512    521     1   107.9700462 569.024000
    506    518    980     1   107.9700462 569.024000
    509    515    966     1   107.9700462 569.024000
    515    966    960     1   112.4800480 524.673600
    518    980    974     1   112.4800480 524.673600
    522    523    535     1   111.0400475 552.288000
    522    526    538     1   111.0400475 552.288000
    522    529    532     1   111.0400475 552.288000
    523    522    526     1   112.3500484 533.878400
    523    522    529     1   112.3500484 533.878400
    523    535    547     1   111.5100476 526.347200
    526    522    529     1   112.3500484 533.878400
    526    538    544     1   111.5100476 526.347200
    529    532    541     1   111.5100476 526.347200
    532    541    550     1   107.9700462 569.024000
    535    547   1008     1   107.9700462 569.024000
    538    544    994     1   107.9700462 569.024000
    544    994    988     1   112.4800480 524.673600
    547   1008   1002     1   112.4800480 524.673600
    551    552    564     1   111.0400475 552.288000
    551    555    567     1   111.0400475 552.288000
    551    558    561     1   111.0400475 552.288000
    552    551    555     1   112.3500484 533.878400
    552    551    558     1   112.3500484 533.878400
    552    564    576     1   111.5100476 526.347200
    555    551    558     1   112.3500484 533.878400
    555    567    573     1   111.5100476 526.347200
    558    561    570     1   111.5100476 526.347200
    561    570    579     1   107.9700462 569.024000
    564    576   1036     1   107.9700462 569.024000
    567    573   1022     1   107.9700462 569.024000
    573   1022   1016     1   112.4800480 524.673600
    576   1036   1030     1   112.4800480 524.673600
    580    581    593     1   111.0400475 552.288000
    580    584    596     1   111.0400475 552.288000
    580    587    590     1   111.0400475 552.288000
    581    580    584     1   112.3500484 533.878400
    581    580    587     1   112.3500484 533.878400
    581    593    605     1   111.5100476 526.347200
    584    580    587     1   112.3500484 533.878400
    584    596    602     1   111.5100476 526.347200
    587    590    599     1   111.5100476 526.347200
    590    599    608     1   107.9700462 569.024000
    593    605   1064     1   107.9700462 569.024000
    596    602   1050     1   107.9700462 569.024000
    602   1050   1044     1   112.4800480 524.673600
    605   1064   1058     1   112.4800480 524.673600
    609    610    622     1   111.0400475 552.288000
    609    613    625     1   111.0400475 552.288000
    609    616    619     1   111.0400475 552.288000
    610    609    613     1   112.3500484 533.878400
    610    609    616     1   112.3500484 533.878400
    610    622    634     1   111.5100476 526.347200
    613    609    616     1   112.3500484 533.878400
    613    625    631     1   111.5100476 526.347200
    616    619    628     1   111.5100476 526.347200
    619    628    637     1   107.9700462 569.024000
    622    634   1092     1   107.9700462 569.024000
    625    631   1078     1   107.9700462 569.024000
    631   1078   1072     1   112.4800480 524.673600
    634   1092   1086     1   112.4800480 524.673600
    638    639    651     1   111.0400475 552.288000
    638    642    654     1   111.0400475 552.288000
    638    645    648     1   111.0400475 552.288000
    639    638    642     1   112.3500484 533.878400
    639    638    645     1   112.3500484 533.878400
    639    651    663     1   111.5100476 526.347200
    642    638    645     1   112.3500484 533.878400
    642    654    660     1   111.5100476 526.347200
    645    648    657     1   111.5100476 526.347200
    648    657    666     1   107.9700462 569.024000
    651    663   1120     1   107.9700462 569.024000
    654    660   1106     1   107.9700462 569.024000
    660   1106   1100     1   112.4800480 524.673600
    663   1120   1114     1   112.4800480 524.673600
    667    668    680     1   111.0400475 552.288000
    667    671    683     1   111.0400475 552.288000
    667    674    677     1   111.0400475 552.288000
    668    667    671     1   112.3500484 533.878400
    668    667    674     1   112.3500484 533.878400
    668    680    692     1   111.5100476 526.347200
    671    667    674     1   112.3500484 533.878400
    671    683    689     1   111.5100476 526.347200
    674    677    686     1   111.5100476 526.347200
    677    686    695     1   107.9700462 569.024000
    680    692   1148     1   107.9700462 569.024000
    683    689   1134     1   107.9700462 569.024000
    689   1134   1128     1   112.4800480 524.673600
    692   1148   1142     1   112.4800480 524.673600
    696    697    709     1   111.0400475 552.288000
    696    700    712     1   111.0400475 552.288000
    696    703    706     1   111.0400475 552.288000
    697    696    700     1   112.3500484 533.878400
    697    696    703     1   112.3500484 533.878400
    697    709    721     1   111.5100476 526.347200
    700    696    703     1   112.3500484 533.878400
    700    712    718     1   111.5100476 526.347200
    703    706    715     1   111.5100476 526.347200
    706    715    724     1   107.9700462 569.024000
    709    721   1176     1   107.9700462 569.024000
    712    718   1162     1   107.9700462 569.024000
    718   1162   1156     1   112.4800480 524.673600
    721   1176   1170     1   112.4800480 524.673600
    725    726    738     1   111.0400475 552.288000
    725    729    741     1   111.0400475 552.288000
    725    732    735     1   111.0400475 552.288000
    726    725    729     1   112.3500484 533.878400
    726    725    732     1   112.3500484 533.878400
    726    738    750     1   111.5100476 526.347200
    729    725    732     1   112.3500484 533.878400
    729    741    747     1   111.5100476 526.347200
    732    735    744     1   111.5100476 526.347200
    735    744    753     1   107.9700462 569.024000
    738    750   1204     1   107.9700462 569.024000
    741    747   1190     1   107.9700462 569.024000
    747   1190   1184     1   112.4800480 524.673600
    750   1204   1198     1   112.4800480 524.673600
    754    755    767     1   111.0400475 552.288000
    754    758    770     1   111.0400475 552.288000
    754    761    764     1   111.0400475 552.288000
    755    754    758     1   112.3500484 533.878400
    755    754    761     1   112.3500484 533.878400
    755    767    779     1   111.5100476 526.347200
    758    754    761     1   112.3500484 533.878400
    758    770    776     1   111.5100476 526.347200
    761    764    773     1   111.5100476 526.347200
    764    773    782     1   107.9700462 569.024000
    767    779   1232     1   107.9700462 569.024000
    770    776   1218     1   107.9700462 569.024000
    776   1218   1212     1   112.4800480 524.673600
    779   1232   1226     1   112.4800480 524.673600
    783    784    796     1   111.0400475 552.288000
    783    787    799     1   111.0400475 552.288000
    783    790    793     1   111.0400475 552.288000
    784    783    787     1   112.3500484 533.878400
    784    783    790     1   112.3500484 533.878400
    784    796    808     1   111.5100476 526.347200
    787    783    790     1   112.3500484 533.878400
    787    799    805     1   111.5100476 526.347200
    790    793    802     1   111.5100476 526.347200
    793    802    811     1   107.9700462 569.024000
    796    808   1260     1   107.9700462 569.024000
    799    805   1246     1   107.9700462 569.024000
    805   1246   1240     1   112.4800480 524.673600
    808   1260   1254     1   112.4800480 524.673600
    812    813    825     1   111.0400475 552.288000
    812    816    828     1   111.0400475 552.288000
    812    819    822     1   111.0400475 552.288000
    813    812    816     1   112.3500484 533.878400
    813    812    819     1   112.3500484 533.878400
    813    825    837     1   111.5100476 526.347200
    816    812    819     1   112.3500484 533.878400
    816    828    834     1   111.5100476 526.347200
    819    822    831     1   111.5100476 526.347200
    822    831    840     1   107.9700462 569.024000
    825    837   1288     1   107.9700462 569.024000
    828    834   1274     1   107.9700462 569.024000
    834   1274   1268     1   112.4800480 524.673600
    837   1288   1282     1   112.4800480 524.673600
    841    842    854     1   111.0400475 552.288000
    841    845    857     1   111.0400475 552.288000
    841    848    851     1   111.0400475 552.288000
    842    841    845     1   112.3500484 533.878400
    842    841    848     1   112.3500484 533.878400
    842    854    866     1   111.5100476 526.347200
    845    841    848     1   112.3500484 533.878400
    845    857    863     1   111.5100476 526.347200
    848    851    860     1   111.5100476 526.347200
    851    860    869     1   107.9700462 569.024000
    854    866   1316     1   107.9700462 569.024000
    857    863   1302     1   107.9700462 569.024000
    863   1302   1296     1   112.4800480 524.673600
    866   1316   1310     1   112.4800480 524.673600
    870    873    876     1   111.5100476 526.347200
    873    870    879     1   114.2100488 537.225600
    873    876    882     1   107.9700462 569.024000
    884    887    890     1   111.5100476 526.347200
    887    890    896     1   107.9700462 569.024000
    887    884    893     1   114.2100488 537.225600
    898    901    904     1   111.5100476 526.347200
    901    898    907     1   114.2100488 537.225600
    901    904    910     1   107.9700462 569.024000
    912    915    918     1   111.5100476 526.347200
    915    918    924     1   107.9700462 569.024000
    915    912    921     1   114.2100488 537.225600
    926    929    932     1   111.5100476 526.347200
    929    926    935     1   114.2100488 537.225600
    929    932    938     1   107.9700462 569.024000
    940    943    946     1   111.5100476 526.347200
    943    946    952     1   107.9700462 569.024000
    943    940    949     1   114.2100488 537.225600
    954    957    960     1   111.5100476 526.347200
    957    954    963     1   114.2100488 537.225600
    957    960    966     1   107.9700462 569.024000
    968    971    974     1   111.5100476 526.347200
    971    974    980     1   107.9700462 569.024000
    971    968    977     1   114.2100488 537.225600
    982    985    988     1   111.5100476 526.347200
    985    982    991     1   114.2100488 537.225600
    985    988    994     1   107.9700462 569.024000
    996    999   1002     1   111.5100476 526.347200
    999   1002   1008     1   107.9700462 569.024000
    999    996   1005     1   114.2100488 537.225600
   1010   1013   1016     1   111.5100476 526.347200
   1013   1010   1019     1   114.2100488 537.225600
   1013   1016   1022     1   107.9700462 569.024000
   1024   1027   1030     1   111.5100476 526.347200
   1027   1030   1036     1   107.9700462 569.024000
   1027   1024   1033     1   114.2100488 537.225600
   1038   1041   1044     1   111.5100476 526.347200
   1041   1038   1047     1   114.2100488 537.225600
   1041   1044   1050     1   107.9700462 569.024000
   1052   1055   1058     1   111.5100476 526.347200
   1055   1058   1064     1   107.9700462 569.024000
   1055   1052   1061     1   114.2100488 537.225600
   1066   1069   1072     1   111.5100476 526.347200
   1069   1066   1075     1   114.2100488 537.225600
   1069   1072   1078     1   107.9700462 569.024000
   1080   1083   1086     1   111.5100476 526.347200
   1083   1086   1092     1   107.9700462 569.024000
   1083   1080   1089     1   114.2100488 537.225600
   1094   1097   1100     1   111.5100476 526.347200
   1097   1094   1103     1   114.2100488 537.225600
   1097   1100   1106     1   107.9700462 569.024000
   1108   1111   1114     1   111.5100476 526.347200
   1111   1114   1120     1   107.9700462 569.024000
   1111   1108   1117     1   114.2100488 537.225600
   1122   1125   1128     1   111.5100476 526.347200
   1125   1122   1131     1   114.2100488 537.225600
   1125   1128   1134     1   107.9700462 569.024000
   1136   1139   1142     1   111.5100476 526.347200
   1139   1142   1148     1   107.9700462 569.024000
   1139   1136   1145     1   114.2100488 537.225600
   1150   1153   1156     1   111.5100476 526.347200
   1153   1150   1159     1   114.2100488 537.225600
   1153   1156   1162     1   107.9700462 569.024000
   1164   1167   1170     1   111.5100476 526.347200
   1167   1170   1176     1   107.9700462 569.024000
   1167   1164   1173     1   114.2100488 537.225600
   1178   1181   1184     1   111.5100476 526.347200
   1181   1178   1187     1   114.2100488 537.225600
   1181   1184   1190     1   107.9700462 569.024000
   1192   1195   1198     1   111.5100476 526.347200
   1195   1198   1204     1   107.9700462 569.024000
   1195   1192   1201     1   114.2100488 537.225600
   1206   1209   1212     1   111.5100476 526.347200
   1209   1206   1215     1   114.2100488 537.225600
   1209   1212   1218     1   107.9700462 569.024000
   1220   1223   1226     1   111.5100476 526.347200
   1223   1226   1232     1   107.9700462 569.024000
   1223   1220   1229     1   114.2100488 537.225600
   1234   1237   1240     1   111.5100476 526.347200
   1237   1234   1243     1   114.2100488 537.225600
   1237   1240   1246     1   107.9700462 569.024000
   1248   1251   1254     1   111.5100476 526.347200
   1251   1254   1260     1   107.9700462 569.024000
   1251   1248   1257     1   114.2100488 537.225600
   1262   1265   1268     1   111.5100476 526.347200
   1265   1262   1271     1   114.2100488 537.225600
   1265   1268   1274     1   107.9700462 569.024000
   1276   1279   1282     1   111.5100476 526.347200
   1279   1282   1288     1   107.9700462 569.024000
   1279   1276   1285     1   114.2100488 537.225600
   1290   1293   1296     1   111.5100476 526.347200
   1293   1290   1299     1   114.2100488 537.225600
   1293   1296   1302     1   107.9700462 569.024000
   1304   1307   1310     1   111.5100476 526.347200
   1307   1310   1316     1   107.9700462 569.024000
   1307   1304   1313     1   114.2100488 537.225600
      1      2      3     1   109.7800468 425.094400
      1      2      4     1   109.7800468 425.094400
      1      5      6     1   109.7800468 425.094400
      1      5      7     1   109.7800468 425.094400
      2      8      9     1   109.8000471 387.438400
      2      8     10     1   109.8000471 387.438400
      3      2      8     1   109.5600471 388.275200
      3      2      4     1   108.4600466 328.025600
      4      2      8     1   109.5600471 388.275200
      5     11     12     1   109.8000471 387.438400
      5     11     13     1   109.8000471 387.438400
      6      5     11     1   109.5600471 388.275200
      6      5      7     1   108.4600466 328.025600
      7      5     11     1   109.5600471 388.275200
      8     14     15     1   109.5600471 388.275200
      8     14     16     1   109.5600471 388.275200
      9      8     14     1   109.8000471 387.438400
      9      8     10     1   107.5800459 329.699200
     10      8     14     1   109.8000471 387.438400
     11     17     18     1   109.5600471 388.275200
     11     17     19     1   109.5600471 388.275200
     12     11     17     1   109.8000471 387.438400
     12     11     13     1   107.5800459 329.699200
     13     11     17     1   109.8000471 387.438400
     15     14     20     1   109.8800469 414.216000
     15     14     16     1   108.4600466 328.025600
     16     14     20     1   109.8800469 414.216000
     18     17     21     1   109.8800469 414.216000
     18     17     19     1   108.4600466 328.025600
     19     17     21     1   109.8800469 414.216000
     20     28     29     1   109.8800469 414.216000
     20     28     30     1   109.8800469 414.216000
     20     31     32     1   109.8800469 414.216000
     20     31     33     1   109.8800469 414.216000
     21     22     23     1   109.8800469 414.216000
     21     22     24     1   109.8800469 414.216000
     21     25     26     1   109.8800469 414.216000
     21     25     27     1   109.8800469 414.216000
     22     34     35     1   109.8000471 387.438400
     22     34     36     1   109.8000471 387.438400
     23     22     34     1   109.5600471 388.275200
     23     22     24     1   108.4600466 328.025600
     24     22     34     1   109.5600471 388.275200
     25     37     38     1   109.8000471 387.438400
     25     37     39     1   109.8000471 387.438400
     26     25     37     1   109.5600471 388.275200
     26     25     27     1   108.4600466 328.025600
     27     25     37     1   109.5600471 388.275200
     28     40     41     1   109.8000471 387.438400
     28     40     42     1   109.8000471 387.438400
     29     28     40     1   109.5600471 388.275200
     29     28     30     1   108.4600466 328.025600
     30     28     40     1   109.5600471 388.275200
     31     43     44     1   109.8000471 387.438400
     31     43     45     1   109.8000471 387.438400
     32     31     43     1   109.5600471 388.275200
     32     31     33     1   108.4600466 328.025600
     33     31     43     1   109.5600471 388.275200
     34     55     56     1   109.5600471 388.275200
     34     55     57     1   109.5600471 388.275200
     35     34     55     1   109.8000471 387.438400
     35     34     36     1   107.5800459 329.699200
     36     34     55     1   109.8000471 387.438400
     37     52     53     1   109.5600471 388.275200
     37     52     54     1   109.5600471 388.275200
     38     37     52     1   109.8000471 387.438400
     38     37     39     1   107.5800459 329.699200
     39     37     52     1   109.8000471 387.438400
     40     49     50     1   109.5600471 388.275200
     40     49     51     1   109.5600471 388.275200
     41     40     49     1   109.8000471 387.438400
     41     40     42     1   107.5800459 329.699200
     42     40     49     1   109.8000471 387.438400
     43     46     47     1   109.5600471 388.275200
     43     46     48     1   109.5600471 388.275200
     44     43     46     1   109.8000471 387.438400
     44     43     45     1   107.5800459 329.699200
     45     43     46     1   109.8000471 387.438400
     47     46     86     1   109.7800468 425.094400
     47     46     48     1   108.4600466 328.025600
     48     46     86     1   109.7800468 425.094400
     50     49    115     1   109.7800468 425.094400
     50     49     51     1   108.4600466 328.025600
     51     49    115     1   109.7800468 425.094400
     53     52    144     1   109.7800468 425.094400
     53     52     54     1   108.4600466 328.025600
     54     52    144     1   109.7800468 425.094400
     56     55    173     1   109.7800468 425.094400
     56     55     57     1   108.4600466 328.025600
     57     55    173     1   109.7800468 425.094400
     58     59     60     1   109.8800469 414.216000
     58     59     61     1   109.8800469 414.216000
     58     62     63     1   109.8800469 414.216000
     58     62     64     1   109.8800469 414.216000
     58     65     66     1   109.8800469 414.216000
     58     65     67     1   109.8800469 414.216000
     59     71     72     1   109.8000471 387.438400
     59     71     73     1   109.8000471 387.438400
     60     59     71     1   109.5600471 388.275200
     60     59     61     1   108.4600466 328.025600
     61     59     71     1   109.5600471 388.275200
     62     74     75     1   109.8000471 387.438400
     62     74     76     1   109.8000471 387.438400
     63     62     74     1   109.5600471 388.275200
     63     62     64     1   108.4600466 328.025600
     64     62     74     1   109.5600471 388.275200
     65     68     69     1   109.8000471 387.438400
     65     68     70     1   109.8000471 387.438400
     66     65     68     1   109.5600471 388.275200
     66     65     67     1   108.4600466 328.025600
     67     65     68     1   109.5600471 388.275200
     68     77     78     1   109.5600471 388.275200
     68     77     79     1   109.5600471 388.275200
     69     68     77     1   109.8000471 387.438400
     69     68     70     1   107.5800459 329.699200
     70     68     77     1   109.8000471 387.438400
     71     83     84     1   109.5600471 388.275200
     71     83     85     1   109.5600471 388.275200
     72     71     83     1   109.8000471 387.438400
     72     71     73     1   107.5800459 329.699200
     73     71     83     1   109.8000471 387.438400
     74     80     81     1   109.5600471 388.275200
     74     80     82     1   109.5600471 388.275200
     75     74     80     1   109.8000471 387.438400
     75     74     76     1   107.5800459 329.699200
     76     74     80     1   109.8000471 387.438400
     78     77     86     1   109.7800468 425.094400
     78     77     79     1   108.4600466 328.025600
     79     77     86     1   109.7800468 425.094400
     81     80    202     1   109.7800468 425.094400
     81     80     82     1   108.4600466 328.025600
     82     80    202     1   109.7800468 425.094400
     84     83    231     1   109.7800468 425.094400
     84     83     85     1   108.4600466 328.025600
     85     83    231     1   109.7800468 425.094400
     87     88     89     1   109.8800469 414.216000
     87     88     90     1   109.8800469 414.216000
     87     91     92     1   109.8800469 414.216000
     87     91     93     1   109.8800469 414.216000
     87     94     95     1   109.8800469 414.216000
     87     94     96     1   109.8800469 414.216000
     88    100    101     1   109.8000471 387.438400
     88    100    102     1   109.8000471 387.438400
     89     88    100     1   109.5600471 388.275200
     89     88     90     1   108.4600466 328.025600
     90     88    100     1   109.5600471 388.275200
     91    103    104     1   109.8000471 387.438400
     91    103    105     1   109.8000471 387.438400
     92     91    103     1   109.5600471 388.275200
     92     91     93     1   108.4600466 328.025600
     93     91    103     1   109.5600471 388.275200
     94     97     98     1   109.8000471 387.438400
     94     97     99     1   109.8000471 387.438400
     95     94     97     1   109.5600471 388.275200
     95     94     96     1   108.4600466 328.025600
     96     94     97     1   109.5600471 388.275200
     97    106    107     1   109.5600471 388.275200
     97    106    108     1   109.5600471 388.275200
     98     97    106     1   109.8000471 387.438400
     98     97     99     1   107.5800459 329.699200
     99     97    106     1   109.8000471 387.438400
    100    112    113     1   109.5600471 388.275200
    100    112    114     1   109.5600471 388.275200
    101    100    112     1   109.8000471 387.438400
    101    100    102     1   107.5800459 329.699200
    102    100    112     1   109.8000471 387.438400
    103    109    110     1   109.5600471 388.275200
    103    109    111     1   109.5600471 388.275200
    104    103    109     1   109.8000471 387.438400
    104    103    105     1   107.5800459 329.699200
    105    103    109     1   109.8000471 387.438400
    107    106    115     1   109.7800468 425.094400
    107    106    108     1   108.4600466 328.025600
    108    106    115     1   109.7800468 425.094400
    110    109    260     1   109.7800468 425.094400
    110    109    111     1   108.4600466 328.025600
    111    109    260     1   109.7800468 425.094400
    113    112    289     1   109.7800468 425.094400
    113    112    114     1   108.4600466 328.025600
    114    112    289     1   109.7800468 425.094400
    116    117    118     1   109.8800469 414.216000
    116    117    119     1   109.8800469 414.216000
    116    120    121     1   109.8800469 414.216000
    116    120    122     1   109.8800469 414.216000
    116    123    124     1   109.8800469 414.216000
    116    123    125     1   109.8800469 414.216000
    117    129    130     1   109.8000471 387.438400
    117    129    131     1   109.8000471 387.438400
    118    117    129     1   109.5600471 388.275200
    118    117    119     1   108.4600466 328.025600
    119    117    129     1   109.5600471 388.275200
    120    132    133     1   109.8000471 387.438400
    120    132    134     1   109.8000471 387.438400
    121    120    132     1   109.5600471 388.275200
    121    120    122     1   108.4600466 328.025600
    122    120    132     1   109.5600471 388.275200
    123    126    127     1   109.8000471 387.438400
    123    126    128     1   109.8000471 387.438400
    124    123    126     1   109.5600471 388.275200
    124    123    125     1   108.4600466 328.025600
    125    123    126     1   109.5600471 388.275200
    126    135    136     1   109.5600471 388.275200
    126    135    137     1   109.5600471 388.275200
    127    126    135     1   109.8000471 387.438400
    127    126    128     1   107.5800459 329.699200
    128    126    135     1   109.8000471 387.438400
    129    141    142     1   109.5600471 388.275200
    129    141    143     1   109.5600471 388.275200
    130    129    141     1   109.8000471 387.438400
    130    129    131     1   107.5800459 329.699200
    131    129    141     1   109.8000471 387.438400
    132    138    139     1   109.5600471 388.275200
    132    138    140     1   109.5600471 388.275200
    133    132    138     1   109.8000471 387.438400
    133    132    134     1   107.5800459 329.699200
    134    132    138     1   109.8000471 387.438400
    136    135    144     1   109.7800468 425.094400
    136    135    137     1   108.4600466 328.025600
    137    135    144     1   109.7800468 425.094400
    139    138    318     1   109.7800468 425.094400
    139    138    140     1   108.4600466 328.025600
    140    138    318     1   109.7800468 425.094400
    142    141    347     1   109.7800468 425.094400
    142    141    143     1   108.4600466 328.025600
    143    141    347     1   109.7800468 425.094400
    145    146    147     1   109.8800469 414.216000
    145    146    148     1   109.8800469 414.216000
    145    149    150     1   109.8800469 414.216000
    145    149    151     1   109.8800469 414.216000
    145    152    153     1   109.8800469 414.216000
    145    152    154     1   109.8800469 414.216000
    146    158    159     1   109.8000471 387.438400
    146    158    160     1   109.8000471 387.438400
    147    146    158     1   109.5600471 388.275200
    147    146    148     1   108.4600466 328.025600
    148    146    158     1   109.5600471 388.275200
    149    161    162     1   109.8000471 387.438400
    149    161    163     1   109.8000471 387.438400
    150    149    161     1   109.5600471 388.275200
    150    149    151     1   108.4600466 328.025600
    151    149    161     1   109.5600471 388.275200
    152    155    156     1   109.8000471 387.438400
    152    155    157     1   109.8000471 387.438400
    153    152    155     1   109.5600471 388.275200
    153    152    154     1   108.4600466 328.025600
    154    152    155     1   109.5600471 388.275200
    155    164    165     1   109.5600471 388.275200
    155    164    166     1   109.5600471 388.275200
    156    155    164     1   109.8000471 387.438400
    156    155    157     1   107.5800459 329.699200
    157    155    164     1   109.8000471 387.438400
    158    170    171     1   109.5600471 388.275200
    158    170    172     1   109.5600471 388.275200
    159    158    170     1   109.8000471 387.438400
    159    158    160     1   107.5800459 329.699200
    160    158    170     1   109.8000471 387.438400
    161    167    168     1   109.5600471 388.275200
    161    167    169     1   109.5600471 388.275200
    162    161    167     1   109.8000471 387.438400
    162    161    163     1   107.5800459 329.699200
    163    161    167     1   109.8000471 387.438400
    165    164    173     1   109.7800468 425.094400
    165    164    166     1   108.4600466 328.025600
    166    164    173     1   109.7800468 425.094400
    168    167    376     1   109.7800468 425.094400
    168    167    169     1   108.4600466 328.025600
    169    167    376     1   109.7800468 425.094400
    171    170    405     1   109.7800468 425.094400
    171    170    172     1   108.4600466 328.025600
    172    170    405     1   109.7800468 425.094400
    174    175    176     1   109.8800469 414.216000
    174    175    177     1   109.8800469 414.216000
    174    178    179     1   109.8800469 414.216000
    174    178    180     1   109.8800469 414.216000
    174    181    182     1   109.8800469 414.216000
    174    181    183     1   109.8800469 414.216000
    175    187    188     1   109.8000471 387.438400
    175    187    189     1   109.8000471 387.438400
    176    175    187     1   109.5600471 388.275200
    176    175    177     1   108.4600466 328.025600
    177    175    187     1   109.5600471 388.275200
    178    190    191     1   109.8000471 387.438400
    178    190    192     1   109.8000471 387.438400
    179    178    190     1   109.5600471 388.275200
    179    178    180     1   108.4600466 328.025600
    180    178    190     1   109.5600471 388.275200
    181    184    185     1   109.8000471 387.438400
    181    184    186     1   109.8000471 387.438400
    182    181    184     1   109.5600471 388.275200
    182    181    183     1   108.4600466 328.025600
    183    181    184     1   109.5600471 388.275200
    184    193    194     1   109.5600471 388.275200
    184    193    195     1   109.5600471 388.275200
    185    184    193     1   109.8000471 387.438400
    185    184    186     1   107.5800459 329.699200
    186    184    193     1   109.8000471 387.438400
    187    199    200     1   109.5600471 388.275200
    187    199    201     1   109.5600471 388.275200
    188    187    199     1   109.8000471 387.438400
    188    187    189     1   107.5800459 329.699200
    189    187    199     1   109.8000471 387.438400
    190    196    197     1   109.5600471 388.275200
    190    196    198     1   109.5600471 388.275200
    191    190    196     1   109.8000471 387.438400
    191    190    192     1   107.5800459 329.699200
    192    190    196     1   109.8000471 387.438400
    194    193    202     1   109.7800468 425.094400
    194    193    195     1   108.4600466 328.025600
    195    193    202     1   109.7800468 425.094400
    197    196    434     1   109.7800468 425.094400
    197    196    198     1   108.4600466 328.025600
    198    196    434     1   109.7800468 425.094400
    200    199    463     1   109.7800468 425.094400
    200    199    201     1   108.4600466 328.025600
    201    199    463     1   109.7800468 425.094400
    203    204    205     1   109.8800469 414.216000
    203    204    206     1   109.8800469 414.216000
    203    207    208     1   109.8800469 414.216000
    203    207    209     1   109.8800469 414.216000
    203    210    211     1   109.8800469 414.216000
    203    210    212     1   109.8800469 414.216000
    204    216    217     1   109.8000471 387.438400
    204    216    218     1   109.8000471 387.438400
    205    204    216     1   109.5600471 388.275200
    205    204    206     1   108.4600466 328.025600
    206    204    216     1   109.5600471 388.275200
    207    219    220     1   109.8000471 387.438400
    207    219    221     1   109.8000471 387.438400
    208    207    219     1   109.5600471 388.275200
    208    207    209     1   108.4600466 328.025600
    209    207    219     1   109.5600471 388.275200
    210    213    214     1   109.8000471 387.438400
    210    213    215     1   109.8000471 387.438400
    211    210    213     1   109.5600471 388.275200
    211    210    212     1   108.4600466 328.025600
    212    210    213     1   109.5600471 388.275200
    213    222    223     1   109.5600471 388.275200
    213    222    224     1   109.5600471 388.275200
    214    213    222     1   109.8000471 387.438400
    214    213    215     1   107.5800459 329.699200
    215    213    222     1   109.8000471 387.438400
    216    228    229     1   109.5600471 388.275200
    216    228    230     1   109.5600471 388.275200
    217    216    228     1   109.8000471 387.438400
    217    216    218     1   107.5800459 329.699200
    218    216    228     1   109.8000471 387.438400
    219    225    226     1   109.5600471 388.275200
    219    225    227     1   109.5600471 388.275200
    220    219    225     1   109.8000471 387.438400
    220    219    221     1   107.5800459 329.699200
    221    219    225     1   109.8000471 387.438400
    223    222    231     1   109.7800468 425.094400
    223    222    224     1   108.4600466 328.025600
    224    222    231     1   109.7800468 425.094400
    226    225    492     1   109.7800468 425.094400
    226    225    227     1   108.4600466 328.025600
    227    225    492     1   109.7800468 425.094400
    229    228    521     1   109.7800468 425.094400
    229    228    230     1   108.4600466 328.025600
    230    228    521     1   109.7800468 425.094400
    232    233    234     1   109.8800469 414.216000
    232    233    235     1   109.8800469 414.216000
    232    236    237     1   109.8800469 414.216000
    232    236    238     1   109.8800469 414.216000
    232    239    240     1   109.8800469 414.216000
    232    239    241     1   109.8800469 414.216000
    233    245    246     1   109.8000471 387.438400
    233    245    247     1   109.8000471 387.438400
    234    233    245     1   109.5600471 388.275200
    234    233    235     1   108.4600466 328.025600
    235    233    245     1   109.5600471 388.275200
    236    248    249     1   109.8000471 387.438400
    236    248    250     1   109.8000471 387.438400
    237    236    248     1   109.5600471 388.275200
    237    236    238     1   108.4600466 328.025600
    238    236    248     1   109.5600471 388.275200
    239    242    243     1   109.8000471 387.438400
    239    242    244     1   109.8000471 387.438400
    240    239    242     1   109.5600471 388.275200
    240    239    241     1   108.4600466 328.025600
    241    239    242     1   109.5600471 388.275200
    242    251    252     1   109.5600471 388.275200
    242    251    253     1   109.5600471 388.275200
    243    242    251     1   109.8000471 387.438400
    243    242    244     1   107.5800459 329.699200
    244    242    251     1   109.8000471 387.438400
    245    257    258     1   109.5600471 388.275200
    245    257    259     1   109.5600471 388.275200
    246    245    257     1   109.8000471 387.438400
    246    245    247     1   107.5800459 329.699200
    247    245    257     1   109.8000471 387.438400
    248    254    255     1   109.5600471 388.275200
    248    254    256     1   109.5600471 388.275200
    249    248    254     1   109.8000471 387.438400
    249    248    250     1   107.5800459 329.699200
    250    248    254     1   109.8000471 387.438400
    252    251    260     1   109.7800468 425.094400
    252    251    253     1   108.4600466 328.025600
    253    251    260     1   109.7800468 425.094400
    255    254    550     1   109.7800468 425.094400
    255    254    256     1   108.4600466 328.025600
    256    254    550     1   109.7800468 425.094400
    258    257    579     1   109.7800468 425.094400
    258    257    259     1   108.4600466 328.025600
    259    257    579     1   109.7800468 425.094400
    261    262    263     1   109.8800469 414.216000
    261    262    264     1   109.8800469 414.216000
    261    265    266     1   109.8800469 414.216000
    261    265    267     1   109.8800469 414.216000
    261    268    269     1   109.8800469 414.216000
    261    268    270     1   109.8800469 414.216000
    262    274    275     1   109.8000471 387.438400
    262    274    276     1   109.8000471 387.438400
    263    262    274     1   109.5600471 388.275200
    263    262    264     1   108.4600466 328.025600
    264    262    274     1   109.5600471 388.275200
    265    277    278     1   109.8000471 387.438400
    265    277    279     1   109.8000471 387.438400
    266    265    277     1   109.5600471 388.275200
    266    265    267     1   108.4600466 328.025600
    267    265    277     1   109.5600471 388.275200
    268    271    272     1   109.8000471 387.438400
    268    271    273     1   109.8000471 387.438400
    269    268    271     1   109.5600471 388.275200
    269    268    270     1   108.4600466 328.025600
    270    268    271     1   109.5600471 388.275200
    271    280    281     1   109.5600471 388.275200
    271    280    282     1   109.5600471 388.275200
    272    271    280     1   109.8000471 387.438400
    272    271    273     1   107.5800459 329.699200
    273    271    280     1   109.8000471 387.438400
    274    286    287     1   109.5600471 388.275200
    274    286    288     1   109.5600471 388.275200
    275    274    286     1   109.8000471 387.438400
    275    274    276     1   107.5800459 329.699200
    276    274    286     1   109.8000471 387.438400
    277    283    284     1   109.5600471 388.275200
    277    283    285     1   109.5600471 388.275200
    278    277    283     1   109.8000471 387.438400
    278    277    279     1   107.5800459 329.699200
    279    277    283     1   109.8000471 387.438400
    281    280    289     1   109.7800468 425.094400
    281    280    282     1   108.4600466 328.025600
    282    280    289     1   109.7800468 425.094400
    284    283    608     1   109.7800468 425.094400
    284    283    285     1   108.4600466 328.025600
    285    283    608     1   109.7800468 425.094400
    287    286    637     1   109.7800468 425.094400
    287    286    288     1   108.4600466 328.025600
    288    286    637     1   109.7800468 425.094400
    290    291    292     1   109.8800469 414.216000
    290    291    293     1   109.8800469 414.216000
    290    294    295     1   109.8800469 414.216000
    290    294    296     1   109.8800469 414.216000
    290    297    298     1   109.8800469 414.216000
    290    297    299     1   109.8800469 414.216000
    291    303    304     1   109.8000471 387.438400
    291    303    305     1   109.8000471 387.438400
    292    291    303     1   109.5600471 388.275200
    292    291    293     1   108.4600466 328.025600
    293    291    303     1   109.5600471 388.275200
    294    306    307     1   109.8000471 387.438400
    294    306    308     1   109.8000471 387.438400
    295    294    306     1   109.5600471 388.275200
    295    294    296     1   108.4600466 328.025600
    296    294    306     1   109.5600471 388.275200
    297    300    301     1   109.8000471 387.438400
    297    300    302     1   109.8000471 387.438400
    298    297    300     1   109.5600471 388.275200
    298    297    299     1   108.4600466 328.025600
    299    297    300     1   109.5600471 388.275200
    300    309    310     1   109.5600471 388.275200
    300    309    311     1   109.5600471 388.275200
    301    300    309     1   109.8000471 387.438400
    301    300    302     1   107.5800459 329.699200
    302    300    309     1   109.8000471 387.438400
    303    315    316     1   109.5600471 388.275200
    303    315    317     1   109.5600471 388.275200
    304    303    315     1   109.8000471 387.438400
    304    303    305     1   107.5800459 329.699200
    305    303    315     1   109.8000471 387.438400
    306    312    313     1   109.5600471 388.275200
    306    312    314     1   109.5600471 388.275200
    307    306    312     1   109.8000471 387.438400
    307    306    308     1   107.5800459 329.699200
    308    306    312     1   109.8000471 387.438400
    310    309    318     1   109.7800468 425.094400
    310    309    311     1   108.4600466 328.025600
    311    309    318     1   109.7800468 425.094400
    313    312    666     1   109.7800468 425.094400
    313    312    314     1   108.4600466 328.025600
    314    312    666     1   109.7800468 425.094400
    316    315    695     1   109.7800468 425.094400
    316    315    317     1   108.4600466 328.025600
    317    315    695     1   109.7800468 425.094400
    319    320    321     1   109.8800469 414.216000
    319    320    322     1   109.8800469 414.216000
    319    323    324     1   109.8800469 414.216000
    319    323    325     1   109.8800469 414.216000
    319    326    327     1   109.8800469 414.216000
    319    326    328     1   109.8800469 414.216000
    320    332    333     1   109.8000471 387.438400
    320    332    334     1   109.8000471 387.438400
    321    320    332     1   109.5600471 388.275200
    321    320    322     1   108.4600466 328.025600
    322    320    332     1   109.5600471 388.275200
    323    335    336     1   109.8000471 387.438400
    323    335    337     1   109.8000471 387.438400
    324    323    335     1   109.5600471 388.275200
    324    323    325     1   108.4600466 328.025600
    325    323    335     1   109.5600471 388.275200
    326    329    330     1   109.8000471 387.438400
    326    329    331     1   109.8000471 387.438400
    327    326    329     1   109.5600471 388.275200
    327    326    328     1   108.4600466 328.025600
    328    326    329     1   109.5600471 388.275200
    329    338    339     1   109.5600471 388.275200
    329    338    340     1   109.5600471 388.275200
    330    329    338     1   109.8000471 387.438400
    330    329    331     1   107.5800459 329.699200
    331    329    338     1   109.8000471 387.438400
    332    344    345     1   109.5600471 388.275200
    332    344    346     1   109.5600471 388.275200
    333    332    344     1   109.8000471 387.438400
    333    332    334     1   107.5800459 329.699200
    334    332    344     1   109.8000471 387.438400
    335    341    342     1   109.5600471 388.275200
    335    341    343     1   109.5600471 388.275200
    336    335    341     1   109.8000471 387.438400
    336    335    337     1   107.5800459 329.699200
    337    335    341     1   109.8000471 387.438400
    339    338    347     1   109.7800468 425.094400
    339    338    340     1   108.4600466 328.025600
    340    338    347     1   109.7800468 425.094400
    342    341    724     1   109.7800468 425.094400
    342    341    343     1   108.4600466 328.025600
    343    341    724     1   109.7800468 425.094400
    345    344    753     1   109.7800468 425.094400
    345    344    346     1   108.4600466 328.025600
    346    344    753     1   109.7800468 425.094400
    348    349    350     1   109.8800469 414.216000
    348    349    351     1   109.8800469 414.216000
    348    352    353     1   109.8800469 414.216000
    348    352    354     1   109.8800469 414.216000
    348    355    356     1   109.8800469 414.216000
    348    355    357     1   109.8800469 414.216000
    349    361    362     1   109.8000471 387.438400
    349    361    363     1   109.8000471 387.438400
    350    349    361     1   109.5600471 388.275200
    350    349    351     1   108.4600466 328.025600
    351    349    361     1   109.5600471 388.275200
    352    364    365     1   109.8000471 387.438400
    352    364    366     1   109.8000471 387.438400
    353    352    364     1   109.5600471 388.275200
    353    352    354     1   108.4600466 328.025600
    354    352    364     1   109.5600471 388.275200
    355    358    359     1   109.8000471 387.438400
    355    358    360     1   109.8000471 387.438400
    356    355    358     1   109.5600471 388.275200
    356    355    357     1   108.4600466 328.025600
    357    355    358     1   109.5600471 388.275200
    358    367    368     1   109.5600471 388.275200
    358    367    369     1   109.5600471 388.275200
    359    358    367     1   109.8000471 387.438400
    359    358    360     1   107.5800459 329.699200
    360    358    367     1   109.8000471 387.438400
    361    373    374     1   109.5600471 388.275200
    361    373    375     1   109.5600471 388.275200
    362    361    373     1   109.8000471 387.438400
    362    361    363     1   107.5800459 329.699200
    363    361    373     1   109.8000471 387.438400
    364    370    371     1   109.5600471 388.275200
    364    370    372     1   109.5600471 388.275200
    365    364    370     1   109.8000471 387.438400
    365    364    366     1   107.5800459 329.699200
    366    364    370     1   109.8000471 387.438400
    368    367    376     1   109.7800468 425.094400
    368    367    369     1   108.4600466 328.025600
    369    367    376     1   109.7800468 425.094400
    371    370    782     1   109.7800468 425.094400
    371    370    372     1   108.4600466 328.025600
    372    370    782     1   109.7800468 425.094400
    374    373    811     1   109.7800468 425.094400
    374    373    375     1   108.4600466 328.025600
    375    373    811     1   109.7800468 425.094400
    377    378    379     1   109.8800469 414.216000
    377    378    380     1   109.8800469 414.216000
    377    381    382     1   109.8800469 414.216000
    377    381    383     1   109.8800469 414.216000
    377    384    385     1   109.8800469 414.216000
    377    384    386     1   109.8800469 414.216000
    378    390    391     1   109.8000471 387.438400
    378    390    392     1   109.8000471 387.438400
    379    378    390     1   109.5600471 388.275200
    379    378    380     1   108.4600466 328.025600
    380    378    390     1   109.5600471 388.275200
    381    393    394     1   109.8000471 387.438400
    381    393    395     1   109.8000471 387.438400
    382    381    393     1   109.5600471 388.275200
    382    381    383     1   108.4600466 328.025600
    383    381    393     1   109.5600471 388.275200
    384    387    388     1   109.8000471 387.438400
    384    387    389     1   109.8000471 387.438400
    385    384    387     1   109.5600471 388.275200
    385    384    386     1   108.4600466 328.025600
    386    384    387     1   109.5600471 388.275200
    387    396    397     1   109.5600471 388.275200
    387    396    398     1   109.5600471 388.275200
    388    387    396     1   109.8000471 387.438400
    388    387    389     1   107.5800459 329.699200
    389    387    396     1   109.8000471 387.438400
    390    402    403     1   109.5600471 388.275200
    390    402    404     1   109.5600471 388.275200
    391    390    402     1   109.8000471 387.438400
    391    390    392     1   107.5800459 329.699200
    392    390    402     1   109.8000471 387.438400
    393    399    400     1   109.5600471 388.275200
    393    399    401     1   109.5600471 388.275200
    394    393    399     1   109.8000471 387.438400
    394    393    395     1   107.5800459 329.699200
    395    393    399     1   109.8000471 387.438400
    397    396    405     1   109.7800468 425.094400
    397    396    398     1   108.4600466 328.025600
    398    396    405     1   109.7800468 425.094400
    400    399    840     1   109.7800468 425.094400
    400    399    401     1   108.4600466 328.025600
    401    399    840     1   109.7800468 425.094400
    403    402    869     1   109.7800468 425.094400
    403    402    404     1   108.4600466 328.025600
    404    402    869     1   109.7800468 425.094400
    406    407    408     1   109.8800469 414.216000
    406    407    409     1   109.8800469 414.216000
    406    410    411     1   109.8800469 414.216000
    406    410    412     1   109.8800469 414.216000
    406    413    414     1   109.8800469 414.216000
    406    413    415     1   109.8800469 414.216000
    407    419    420     1   109.8000471 387.438400
    407    419    421     1   109.8000471 387.438400
    408    407    419     1   109.5600471 388.275200
    408    407    409     1   108.4600466 328.025600
    409    407    419     1   109.5600471 388.275200
    410    422    423     1   109.8000471 387.438400
    410    422    424     1   109.8000471 387.438400
    411    410    422     1   109.5600471 388.275200
    411    410    412     1   108.4600466 328.025600
    412    410    422     1   109.5600471 388.275200
    413    416    417     1   109.8000471 387.438400
    413    416    418     1   109.8000471 387.438400
    414    413    416     1   109.5600471 388.275200
    414    413    415     1   108.4600466 328.025600
    415    413    416     1   109.5600471 388.275200
    416    425    426     1   109.5600471 388.275200
    416    425    427     1   109.5600471 388.275200
    417    416    425     1   109.8000471 387.438400
    417    416    418     1   107.5800459 329.699200
    418    416    425     1   109.8000471 387.438400
    419    431    432     1   109.5600471 388.275200
    419    431    433     1   109.5600471 388.275200
    420    419    431     1   109.8000471 387.438400
    420    419    421     1   107.5800459 329.699200
    421    419    431     1   109.8000471 387.438400
    422    428    429     1   109.5600471 388.275200
    422    428    430     1   109.5600471 388.275200
    423    422    428     1   109.8000471 387.438400
    423    422    424     1   107.5800459 329.699200
    424    422    428     1   109.8000471 387.438400
    426    425    434     1   109.7800468 425.094400
    426    425    427     1   108.4600466 328.025600
    427    425    434     1   109.7800468 425.094400
    429    428    882     1   109.7800468 425.094400
    429    428    430     1   108.4600466 328.025600
    430    428    882     1   109.7800468 425.094400
    432    431    896     1   109.7800468 425.094400
    432    431    433     1   108.4600466 328.025600
    433    431    896     1   109.7800468 425.094400
    435    436    437     1   109.8800469 414.216000
    435    436    438     1   109.8800469 414.216000
    435    439    440     1   109.8800469 414.216000
    435    439    441     1   109.8800469 414.216000
    435    442    443     1   109.8800469 414.216000
    435    442    444     1   109.8800469 414.216000
    436    448    449     1   109.8000471 387.438400
    436    448    450     1   109.8000471 387.438400
    437    436    448     1   109.5600471 388.275200
    437    436    438     1   108.4600466 328.025600
    438    436    448     1   109.5600471 388.275200
    439    451    452     1   109.8000471 387.438400
    439    451    453     1   109.8000471 387.438400
    440    439    451     1   109.5600471 388.275200
    440    439    441     1   108.4600466 328.025600
    441    439    451     1   109.5600471 388.275200
    442    445    446     1   109.8000471 387.438400
    442    445    447     1   109.8000471 387.438400
    443    442    445     1   109.5600471 388.275200
    443    442    444     1   108.4600466 328.025600
    444    442    445     1   109.5600471 388.275200
    445    454    455     1   109.5600471 388.275200
    445    454    456     1   109.5600471 388.275200
    446    445    454     1   109.8000471 387.438400
    446    445    447     1   107.5800459 329.699200
    447    445    454     1   109.8000471 387.438400
    448    460    461     1   109.5600471 388.275200
    448    460    462     1   109.5600471 388.275200
    449    448    460     1   109.8000471 387.438400
    449    448    450     1   107.5800459 329.699200
    450    448    460     1   109.8000471 387.438400
    451    457    458     1   109.5600471 388.275200
    451    457    459     1   109.5600471 388.275200
    452    451    457     1   109.8000471 387.438400
    452    451    453     1   107.5800459 329.699200
    453    451    457     1   109.8000471 387.438400
    455    454    463     1   109.7800468 425.094400
    455    454    456     1   108.4600466 328.025600
    456    454    463     1   109.7800468 425.094400
    458    457    910     1   109.7800468 425.094400
    458    457    459     1   108.4600466 328.025600
    459    457    910     1   109.7800468 425.094400
    461    460    924     1   109.7800468 425.094400
    461    460    462     1   108.4600466 328.025600
    462    460    924     1   109.7800468 425.094400
    464    465    466     1   109.8800469 414.216000
    464    465    467     1   109.8800469 414.216000
    464    468    469     1   109.8800469 414.216000
    464    468    470     1   109.8800469 414.216000
    464    471    472     1   109.8800469 414.216000
    464    471    473     1   109.8800469 414.216000
    465    477    478     1   109.8000471 387.438400
    465    477    479     1   109.8000471 387.438400
    466    465    477     1   109.5600471 388.275200
    466    465    467     1   108.4600466 328.025600
    467    465    477     1   109.5600471 388.275200
    468    480    481     1   109.8000471 387.438400
    468    480    482     1   109.8000471 387.438400
    469    468    480     1   109.5600471 388.275200
    469    468    470     1   108.4600466 328.025600
    470    468    480     1   109.5600471 388.275200
    471    474    475     1   109.8000471 387.438400
    471    474    476     1   109.8000471 387.438400
    472    471    474     1   109.5600471 388.275200
    472    471    473     1   108.4600466 328.025600
    473    471    474     1   109.5600471 388.275200
    474    483    484     1   109.5600471 388.275200
    474    483    485     1   109.5600471 388.275200
    475    474    483     1   109.8000471 387.438400
    475    474    476     1   107.5800459 329.699200
    476    474    483     1   109.8000471 387.438400
    477    489    490     1   109.5600471 388.275200
    477    489    491     1   109.5600471 388.275200
    478    477    489     1   109.8000471 387.438400
    478    477    479     1   107.5800459 329.699200
    479    477    489     1   109.8000471 387.438400
    480    486    487     1   109.5600471 388.275200
    480    486    488     1   109.5600471 388.275200
    481    480    486     1   109.8000471 387.438400
    481    480    482     1   107.5800459 329.699200
    482    480    486     1   109.8000471 387.438400
    484    483    492     1   109.7800468 425.094400
    484    483    485     1   108.4600466 328.025600
    485    483    492     1   109.7800468 425.094400
    487    486    938     1   109.7800468 425.094400
    487    486    488     1   108.4600466 328.025600
    488    486    938     1   109.7800468 425.094400
    490    489    952     1   109.7800468 425.094400
    490    489    491     1   108.4600466 328.025600
    491    489    952     1   109.7800468 425.094400
    493    494    495     1   109.8800469 414.216000
    493    494    496     1   109.8800469 414.216000
    493    497    498     1   109.8800469 414.216000
    493    497    499     1   109.8800469 414.216000
    493    500    501     1   109.8800469 414.216000
    493    500    502     1   109.8800469 414.216000
    494    506    507     1   109.8000471 387.438400
    494    506    508     1   109.8000471 387.438400
    495    494    506     1   109.5600471 388.275200
    495    494    496     1   108.4600466 328.025600
    496    494    506     1   109.5600471 388.275200
    497    509    510     1   109.8000471 387.438400
    497    509    511     1   109.8000471 387.438400
    498    497    509     1   109.5600471 388.275200
    498    497    499     1   108.4600466 328.025600
    499    497    509     1   109.5600471 388.275200
    500    503    504     1   109.8000471 387.438400
    500    503    505     1   109.8000471 387.438400
    501    500    503     1   109.5600471 388.275200
    501    500    502     1   108.4600466 328.025600
    502    500    503     1   109.5600471 388.275200
    503    512    513     1   109.5600471 388.275200
    503    512    514     1   109.5600471 388.275200
    504    503    512     1   109.8000471 387.438400
    504    503    505     1   107.5800459 329.699200
    505    503    512     1   109.8000471 387.438400
    506    518    519     1   109.5600471 388.275200
    506    518    520     1   109.5600471 388.275200
    507    506    518     1   109.8000471 387.438400
    507    506    508     1   107.5800459 329.699200
    508    506    518     1   109.8000471 387.438400
    509    515    516     1   109.5600471 388.275200
    509    515    517     1   109.5600471 388.275200
    510    509    515     1   109.8000471 387.438400
    510    509    511     1   107.5800459 329.699200
    511    509    515     1   109.8000471 387.438400
    513    512    521     1   109.7800468 425.094400
    513    512    514     1   108.4600466 328.025600
    514    512    521     1   109.7800468 425.094400
    516    515    966     1   109.7800468 425.094400
    516    515    517     1   108.4600466 328.025600
    517    515    966     1   109.7800468 425.094400
    519    518    980     1   109.7800468 425.094400
    519    518    520     1   108.4600466 328.025600
    520    518    980     1   109.7800468 425.094400
    522    523    524     1   109.8800469 414.216000
    522    523    525     1   109.8800469 414.216000
    522    526    527     1   109.8800469 414.216000
    522    526    528     1   109.8800469 414.216000
    522    529    530     1   109.8800469 414.216000
    522    529    531     1   109.8800469 414.216000
    523    535    536     1   109.8000471 387.438400
    523    535    537     1   109.8000471 387.438400
    524    523    535     1   109.5600471 388.275200
    524    523    525     1   108.4600466 328.025600
    525    523    535     1   109.5600471 388.275200
    526    538    539     1   109.8000471 387.438400
    526    538    540     1   109.8000471 387.438400
    527    526    538     1   109.5600471 388.275200
    527    526    528     1   108.4600466 328.025600
    528    526    538     1   109.5600471 388.275200
    529    532    533     1   109.8000471 387.438400
    529    532    534     1   109.8000471 387.438400
    530    529    532     1   109.5600471 388.275200
    530    529    531     1   108.4600466 328.025600
    531    529    532     1   109.5600471 388.275200
    532    541    542     1   109.5600471 388.275200
    532    541    543     1   109.5600471 388.275200
    533    532    541     1   109.8000471 387.438400
    533    532    534     1   107.5800459 329.699200
    534    532    541     1   109.8000471 387.438400
    535    547    548     1   109.5600471 388.275200
    535    547    549     1   109.5600471 388.275200
    536    535    547     1   109.8000471 387.438400
    536    535    537     1   107.5800459 329.699200
    537    535    547     1   109.8000471 387.438400
    538    544    545     1   109.5600471 388.275200
    538    544    546     1   109.5600471 388.275200
    539    538    544     1   109.8000471 387.438400
    539    538    540     1   107.5800459 329.699200
    540    538    544     1   109.8000471 387.438400
    542    541    550     1   109.7800468 425.094400
    542    541    543     1   108.4600466 328.025600
    543    541    550     1   109.7800468 425.094400
    545    544    994     1   109.7800468 425.094400
    545    544    546     1   108.4600466 328.025600
    546    544    994     1   109.7800468 425.094400
    548    547   1008     1   109.7800468 425.094400
    548    547    549     1   108.4600466 328.025600
    549    547   1008     1   109.7800468 425.094400
    551    552    553     1   109.8800469 414.216000
    551    552    554     1   109.8800469 414.216000
    551    555    556     1   109.8800469 414.216000
    551    555    557     1   109.8800469 414.216000
    551    558    559     1   109.8800469 414.216000
    551    558    560     1   109.8800469 414.216000
    552    564    565     1   109.8000471 387.438400
    552    564    566     1   109.8000471 387.438400
    553    552    564     1   109.5600471 388.275200
    553    552    554     1   108.4600466 328.025600
    554    552    564     1   109.5600471 388.275200
    555    567    568     1   109.8000471 387.438400
    555    567    569     1   109.8000471 387.438400
    556    555    567     1   109.5600471 388.275200
    556    555    557     1   108.4600466 328.025600
    557    555    567     1   109.5600471 388.275200
    558    561    562     1   109.8000471 387.438400
    558    561    563     1   109.8000471 387.438400
    559    558    561     1   109.5600471 388.275200
    559    558    560     1   108.4600466 328.025600
    560    558    561     1   109.5600471 388.275200
    561    570    571     1   109.5600471 388.275200
    561    570    572     1   109.5600471 388.275200
    562    561    570     1   109.8000471 387.438400
    562    561    563     1   107.5800459 329.699200
    563    561    570     1   109.8000471 387.438400
    564    576    577     1   109.5600471 388.275200
    564    576    578     1   109.5600471 388.275200
    565    564    576     1   109.8000471 387.438400
    565    564    566     1   107.5800459 329.699200
    566    564    576     1   109.8000471 387.438400
    567    573    574     1   109.5600471 388.275200
    567    573    575     1   109.5600471 388.275200
    568    567    573     1   109.8000471 387.438400
    568    567    569     1   107.5800459 329.699200
    569    567    573     1   109.8000471 387.438400
    571    570    579     1   109.7800468 425.094400
    571    570    572     1   108.4600466 328.025600
    572    570    579     1   109.7800468 425.094400
    574    573   1022     1   109.7800468 425.094400
    574    573    575     1   108.4600466 328.025600
    575    573   1022     1   109.7800468 425.094400
    577    576   1036     1   109.7800468 425.094400
    577    576    578     1   108.4600466 328.025600
    578    576   1036     1   109.7800468 425.094400
    580    581    582     1   109.8800469 414.216000
    580    581    583     1   109.8800469 414.216000
    580    584    585     1   109.8800469 414.216000
    580    584    586     1   109.8800469 414.216000
    580    587    588     1   109.8800469 414.216000
    580    587    589     1   109.8800469 414.216000
    581    593    594     1   109.8000471 387.438400
    581    593    595     1   109.8000471 387.438400
    582    581    593     1   109.5600471 388.275200
    582    581    583     1   108.4600466 328.025600
    583    581    593     1   109.5600471 388.275200
    584    596    597     1   109.8000471 387.438400
    584    596    598     1   109.8000471 387.438400
    585    584    596     1   109.5600471 388.275200
    585    584    586     1   108.4600466 328.025600
    586    584    596     1   109.5600471 388.275200
    587    590    591     1   109.8000471 387.438400
    587    590    592     1   109.8000471 387.438400
    588    587    590     1   109.5600471 388.275200
    588    587    589     1   108.4600466 328.025600
    589    587    590     1   109.5600471 388.275200
    590    599    600     1   109.5600471 388.275200
    590    599    601     1   109.5600471 388.275200
    591    590    599     1   109.8000471 387.438400
    591    590    592     1   107.5800459 329.699200
    592    590    599     1   109.8000471 387.438400
    593    605    606     1   109.5600471 388.275200
    593    605    607     1   109.5600471 388.275200
    594    593    605     1   109.8000471 387.438400
    594    593    595     1   107.5800459 329.699200
    595    593    605     1   109.8000471 387.438400
    596    602    603     1   109.5600471 388.275200
    596    602    604     1   109.5600471 388.275200
    597    596    602     1   109.8000471 387.438400
    597    596    598     1   107.5800459 329.699200
    598    596    602     1   109.8000471 387.438400
    600    599    608     1   109.7800468 425.094400
    600    599    601     1   108.4600466 328.025600
    601    599    608     1   109.7800468 425.094400
    603    602   1050     1   109.7800468 425.094400
    603    602    604     1   108.4600466 328.025600
    604    602   1050     1   109.7800468 425.094400
    606    605   1064     1   109.7800468 425.094400
    606    605    607     1   108.4600466 328.025600
    607    605   1064     1   109.7800468 425.094400
    609    610    611     1   109.8800469 414.216000
    609    610    612     1   109.8800469 414.216000
    609    613    614     1   109.8800469 414.216000
    609    613    615     1   109.8800469 414.216000
    609    616    617     1   109.8800469 414.216000
    609    616    618     1   109.8800469 414.216000
    610    622    623     1   109.8000471 387.438400
    610    622    624     1   109.8000471 387.438400
    611    610    622     1   109.5600471 388.275200
    611    610    612     1   108.4600466 328.025600
    612    610    622     1   109.5600471 388.275200
    613    625    626     1   109.8000471 387.438400
    613    625    627     1   109.8000471 387.438400
    614    613    625     1   109.5600471 388.275200
    614    613    615     1   108.4600466 328.025600
    615    613    625     1   109.5600471 388.275200
    616    619    620     1   109.8000471 387.438400
    616    619    621     1   109.8000471 387.438400
    617    616    619     1   109.5600471 388.275200
    617    616    618     1   108.4600466 328.025600
    618    616    619     1   109.5600471 388.275200
    619    628    629     1   109.5600471 388.275200
    619    628    630     1   109.5600471 388.275200
    620    619    628     1   109.8000471 387.438400
    620    619    621     1   107.5800459 329.699200
    621    619    628     1   109.8000471 387.438400
    622    634    635     1   109.5600471 388.275200
    622    634    636     1   109.5600471 388.275200
    623    622    634     1   109.8000471 387.438400
    623    622    624     1   107.5800459 329.699200
    624    622    634     1   109.8000471 387.438400
    625    631    632     1   109.5600471 388.275200
    625    631    633     1   109.5600471 388.275200
    626    625    631     1   109.8000471 387.438400
    626    625    627     1   107.5800459 329.699200
    627    625    631     1   109.8000471 387.438400
    629    628    637     1   109.7800468 425.094400
    629    628    630     1   108.4600466 328.025600
    630    628    637     1   109.7800468 425.094400
    632    631   1078     1   109.7800468 425.094400
    632    631    633     1   108.4600466 328.025600
    633    631   1078     1   109.7800468 425.094400
    635    634   1092     1   109.7800468 425.094400
    635    634    636     1   108.4600466 328.025600
    636    634   1092     1   109.7800468 425.094400
    638    639    640     1   109.8800469 414.216000
    638    639    641     1   109.8800469 414.216000
    638    642    643     1   109.8800469 414.216000
    638    642    644     1   109.8800469 414.216000
    638    645    646     1   109.8800469 414.216000
    638    645    647     1   109.8800469 414.216000
    639    651    652     1   109.8000471 387.438400
    639    651    653     1   109.8000471 387.438400
    640    639    651     1   109.5600471 388.275200
    640    639    641     1   108.4600466 328.025600
    641    639    651     1   109.5600471 388.275200
    642    654    655     1   109.8000471 387.438400
    642    654    656     1   109.8000471 387.438400
    643    642    654     1   109.5600471 388.275200
    643    642    644     1   108.4600466 328.025600
    644    642    654     1   109.5600471 388.275200
    645    648    649     1   109.8000471 387.438400
    645    648    650     1   109.8000471 387.438400
    646    645    648     1   109.5600471 388.275200
    646    645    647     1   108.4600466 328.025600
    647    645    648     1   109.5600471 388.275200
    648    657    658     1   109.5600471 388.275200
    648    657    659     1   109.5600471 388.275200
    649    648    657     1   109.8000471 387.438400
    649    648    650     1   107.5800459 329.699200
    650    648    657     1   109.8000471 387.438400
    651    663    664     1   109.5600471 388.275200
    651    663    665     1   109.5600471 388.275200
    652    651    663     1   109.8000471 387.438400
    652    651    653     1   107.5800459 329.699200
    653    651    663     1   109.8000471 387.438400
    654    660    661     1   109.5600471 388.275200
    654    660    662     1   109.5600471 388.275200
    655    654    660     1   109.8000471 387.438400
    655    654    656     1   107.5800459 329.699200
    656    654    660     1   109.8000471 387.438400
    658    657    666     1   109.7800468 425.094400
    658    657    659     1   108.4600466 328.025600
    659    657    666     1   109.7800468 425.094400
    661    660   1106     1   109.7800468 425.094400
    661    660    662     1   108.4600466 328.025600
    662    660   1106     1   109.7800468 425.094400
    664    663   1120     1   109.7800468 425.094400
    664    663    665     1   108.4600466 328.025600
    665    663   1120     1   109.7800468 425.094400
    667    668    669     1   109.8800469 414.216000
    667    668    670     1   109.8800469 414.216000
    667    671    672     1   109.8800469 414.216000
    667    671    673     1   109.8800469 414.216000
    667    674    675     1   109.8800469 414.216000
    667    674    676     1   109.8800469 414.216000
    668    680    681     1   109.8000471 387.438400
    668    680    682     1   109.8000471 387.438400
    669    668    680     1   109.5600471 388.275200
    669    668    670     1   108.4600466 328.025600
    670    668    680     1   109.5600471 388.275200
    671    683    684     1   109.8000471 387.438400
    671    683    685     1   109.8000471 387.438400
    672    671    683     1   109.5600471 388.275200
    672    671    673     1   108.4600466 328.025600
    673    671    683     1   109.5600471 388.275200
    674    677    678     1   109.8000471 387.438400
    674    677    679     1   109.8000471 387.438400
    675    674    677     1   109.5600471 388.275200
    675    674    676     1   108.4600466 328.025600
    676    674    677     1   109.5600471 388.275200
    677    686    687     1   109.5600471 388.275200
    677    686    688     1   109.5600471 388.275200
    678    677    686     1   109.8000471 387.438400
    678    677    679     1   107.5800459 329.699200
    679    677    686     1   109.8000471 387.438400
    680    692    693     1   109.5600471 388.275200
    680    692    694     1   109.5600471 388.275200
    681    680    692     1   109.8000471 387.438400
    681    680    682     1   107.5800459 329.699200
    682    680    692     1   109.8000471 387.438400
    683    689    690     1   109.5600471 388.275200
    683    689    691     1   109.5600471 388.275200
    684    683    689     1   109.8000471 387.438400
    684    683    685     1   107.5800459 329.699200
    685    683    689     1   109.8000471 387.438400
    687    686    695     1   109.7800468 425.094400
    687    686    688     1   108.4600466 328.025600
    688    686    695     1   109.7800468 425.094400
    690    689   1134     1   109.7800468 425.094400
    690    689    691     1   108.4600466 328.025600
    691    689   1134     1   109.7800468 425.094400
    693    692   1148     1   109.7800468 425.094400
    693    692    694     1   108.4600466 328.025600
    694    692   1148     1   109.7800468 425.094400
    696    697    698     1   109.8800469 414.216000
    696    697    699     1   109.8800469 414.216000
    696    700    701     1   109.8800469 414.216000
    696    700    702     1   109.8800469 414.216000
    696    703    704     1   109.8800469 414.216000
    696    703    705     1   109.8800469 414.216000
    697    709    710     1   109.8000471 387.438400
    697    709    711     1   109.8000471 387.438400
    698    697    709     1   109.5600471 388.275200
    698    697    699     1   108.4600466 328.025600
    699    697    709     1   109.5600471 388.275200
    700    712    713     1   109.8000471 387.438400
    700    712    714     1   109.8000471 387.438400
    701    700    712     1   109.5600471 388.275200
    701    700    702     1   108.4600466 328.025600
    702    700    712     1   109.5600471 388.275200
    703    706    707     1   109.8000471 387.438400
    703    706    708     1   109.8000471 387.438400
    704    703    706     1   109.5600471 388.275200
    704    703    705     1   108.4600466 328.025600
    705    703    706     1   109.5600471 388.275200
    706    715    716     1   109.5600471 388.275200
    706    715    717     1   109.5600471 388.275200
    707    706    715     1   109.8000471 387.438400
    707    706    708     1   107.5800459 329.699200
    708    706    715     1   109.8000471 387.438400
    709    721    722     1   109.5600471 388.275200
    709    721    723     1   109.5600471 388.275200
    710    709    721     1   109.8000471 387.438400
    710    709    711     1   107.5800459 329.699200
    711    709    721     1   109.8000471 387.438400
    712    718    719     1   109.5600471 388.275200
    712    718    720     1   109.5600471 388.275200
    713    712    718     1   109.8000471 387.438400
    713    712    714     1   107.5800459 329.699200
    714    712    718     1   109.8000471 387.438400
    716    715    724     1   109.7800468 425.094400
    716    715    717     1   108.4600466 328.025600
    717    715    724     1   109.7800468 425.094400
    719    718   1162     1   109.7800468 425.094400
    719    718    720     1   108.4600466 328.025600
    720    718   1162     1   109.7800468 425.094400
    722    721   1176     1   109.7800468 425.094400
    722    721    723     1   108.4600466 328.025600
    723    721   1176     1   109.7800468 425.094400
    725    726    727     1   109.8800469 414.216000
    725    726    728     1   109.8800469 414.216000
    725    729    730     1   109.8800469 414.216000
    725    729    731     1   109.8800469 414.216000
    725    732    733     1   109.8800469 414.216000
    725    732    734     1   109.8800469 414.216000
    726    738    739     1   109.8000471 387.438400
    726    738    740     1   109.8000471 387.438400
    727    726    738     1   109.5600471 388.275200
    727    726    728     1   108.4600466 328.025600
    728    726    738     1   109.5600471 388.275200
    729    741    742     1   109.8000471 387.438400
    729    741    743     1   109.8000471 387.438400
    730    729    741     1   109.5600471 388.275200
    730    729    731     1   108.4600466 328.025600
    731    729    741     1   109.5600471 388.275200
    732    735    736     1   109.8000471 387.438400
    732    735    737     1   109.8000471 387.438400
    733    732    735     1   109.5600471 388.275200
    733    732    734     1   108.4600466 328.025600
    734    732    735     1   109.5600471 388.275200
    735    744    745     1   109.5600471 388.275200
    735    744    746     1   109.5600471 388.275200
    736    735    744     1   109.8000471 387.438400
    736    735    737     1   107.5800459 329.699200
    737    735    744     1   109.8000471 387.438400
    738    750    751     1   109.5600471 388.275200
    738    750    752     1   109.5600471 388.275200
    739    738    750     1   109.8000471 387.438400
    739    738    740     1   107.5800459 329.699200
    740    738    750     1   109.8000471 387.438400
    741    747    748     1   109.5600471 388.275200
    741    747    749     1   109.5600471 388.275200
    742    741    747     1   109.8000471 387.438400
    742    741    743     1   107.5800459 329.699200
    743    741    747     1   109.8000471 387.438400
    745    744    753     1   109.7800468 425.094400
    745    744    746     1   108.4600466 328.025600
    746    744    753     1   109.7800468 425.094400
    748    747   1190     1   109.7800468 425.094400
    748    747    749     1   108.4600466 328.025600
    749    747   1190     1   109.7800468 425.094400
    751    750   1204     1   109.7800468 425.094400
    751    750    752     1   108.4600466 328.025600
    752    750   1204     1   109.7800468 425.094400
    754    755    756     1   109.8800469 414.216000
    754    755    757     1   109.8800469 414.216000
    754    758    759     1   109.8800469 414.216000
    754    758    760     1   109.8800469 414.216000
    754    761    762     1   109.8800469 414.216000
    754    761    763     1   109.8800469 414.216000
    755    767    768     1   109.8000471 387.438400
    755    767    769     1   109.8000471 387.438400
    756    755    767     1   109.5600471 388.275200
    756    755    757     1   108.4600466 328.025600
    757    755    767     1   109.5600471 388.275200
    758    770    771     1   109.8000471 387.438400
    758    770    772     1   109.8000471 387.438400
    759    758    770     1   109.5600471 388.275200
    759    758    760     1   108.4600466 328.025600
    760    758    770     1   109.5600471 388.275200
    761    764    765     1   109.8000471 387.438400
    761    764    766     1   109.8000471 387.438400
    762    761    764     1   109.5600471 388.275200
    762    761    763     1   108.4600466 328.025600
    763    761    764     1   109.5600471 388.275200
    764    773    774     1   109.5600471 388.275200
    764    773    775     1   109.5600471 388.275200
    765    764    773     1   109.8000471 387.438400
    765    764    766     1   107.5800459 329.699200
    766    764    773     1   109.8000471 387.438400
    767    779    780     1   109.5600471 388.275200
    767    779    781     1   109.5600471 388.275200
    768    767    779     1   109.8000471 387.438400
    768    767    769     1   107.5800459 329.699200
    769    767    779     1   109.8000471 387.438400
    770    776    777     1   109.5600471 388.275200
    770    776    778     1   109.5600471 388.275200
    771    770    776     1   109.8000471 387.438400
    771    770    772     1   107.5800459 329.699200
    772    770    776     1   109.8000471 387.438400
    774    773    782     1   109.7800468 425.094400
    774    773    775     1   108.4600466 328.025600
    775    773    782     1   109.7800468 425.094400
    777    776   1218     1   109.7800468 425.094400
    777    776    778     1   108.4600466 328.025600
    778    776   1218     1   109.7800468 425.094400
    780    779   1232     1   109.7800468 425.094400
    780    779    781     1   108.4600466 328.025600
    781    779   1232     1   109.7800468 425.094400
    783    784    785     1   109.8800469 414.216000
    783    784    786     1   109.8800469 414.216000
    783    787    788     1   109.8800469 414.216000
    783    787    789     1   109.8800469 414.216000
    783    790    791     1   109.8800469 414.216000
    783    790    792     1   109.8800469 414.216000
    784    796    797     1   109.8000471 387.438400
    784    796    798     1   109.8000471 387.438400
    785    784    796     1   109.5600471 388.275200
    785    784    786     1   108.4600466 328.025600
    786    784    796     1   109.5600471 388.275200
    787    799    800     1   109.8000471 387.438400
    787    799    801     1   109.8000471 387.438400
    788    787    799     1   109.5600471 388.275200
    788    787    789     1   108.4600466 328.025600
    789    787    799     1   109.5600471 388.275200
    790    793    794     1   109.8000471 387.438400
    790    793    795     1   109.8000471 387.438400
    791    790    793     1   109.5600471 388.275200
    791    790    792     1   108.4600466 328.025600
    792    790    793     1   109.5600471 388.275200
    793    802    803     1   109.5600471 388.275200
    793    802    804     1   109.5600471 388.275200
    794    793    802     1   109.8000471 387.438400
    794    793    795     1   107.5800459 329.699200
    795    793    802     1   109.8000471 387.438400
    796    808    809     1   109.5600471 388.275200
    796    808    810     1   109.5600471 388.275200
    797    796    808     1   109.8000471 387.438400
    797    796    798     1   107.5800459 329.699200
    798    796    808     1   109.8000471 387.438400
    799    805    806     1   109.5600471 388.275200
    799    805    807     1   109.5600471 388.275200
    800    799    805     1   109.8000471 387.438400
    800    799    801     1   107.5800459 329.699200
    801    799    805     1   109.8000471 387.438400
    803    802    811     1   109.7800468 425.094400
    803    802    804     1   108.4600466 328.025600
    804    802    811     1   109.7800468 425.094400
    806    805   1246     1   109.7800468 425.094400
    806    805    807     1   108.4600466 328.025600
    807    805   1246     1   109.7800468 425.094400
    809    808   1260     1   109.7800468 425.094400
    809    808    810     1   108.4600466 328.025600
    810    808   1260     1   109.7800468 425.094400
    812    813    814     1   109.8800469 414.216000
    812    813    815     1   109.8800469 414.216000
    812    816    817     1   109.8800469 414.216000
    812    816    818     1   109.8800469 414.216000
    812    819    820     1   109.8800469 414.216000
    812    819    821     1   109.8800469 414.216000
    813    825    826     1   109.8000471 387.438400
    813    825    827     1   109.8000471 387.438400
    814    813    825     1   109.5600471 388.275200
    814    813    815     1   108.4600466 328.025600
    815    813    825     1   109.5600471 388.275200
    816    828    829     1   109.8000471 387.438400
    816    828    830     1   109.8000471 387.438400
    817    816    828     1   109.5600471 388.275200
    817    816    818     1   108.4600466 328.025600
    818    816    828     1   109.5600471 388.275200
    819    822    823     1   109.8000471 387.438400
    819    822    824     1   109.8000471 387.438400
    820    819    822     1   109.5600471 388.275200
    820    819    821     1   108.4600466 328.025600
    821    819    822     1   109.5600471 388.275200
    822    831    832     1   109.5600471 388.275200
    822    831    833     1   109.5600471 388.275200
    823    822    831     1   109.8000471 387.438400
    823    822    824     1   107.5800459 329.699200
    824    822    831     1   109.8000471 387.438400
    825    837    838     1   109.5600471 388.275200
    825    837    839     1   109.5600471 388.275200
    826    825    837     1   109.8000471 387.438400
    826    825    827     1   107.5800459 329.699200
    827    825    837     1   109.8000471 387.438400
    828    834    835     1   109.5600471 388.275200
    828    834    836     1   109.5600471 388.275200
    829    828    834     1   109.8000471 387.438400
    829    828    830     1   107.5800459 329.699200
    830    828    834     1   109.8000471 387.438400
    832    831    840     1   109.7800468 425.094400
    832    831    833     1   108.4600466 328.025600
    833    831    840     1   109.7800468 425.094400
    835    834   1274     1   109.7800468 425.094400
    835    834    836     1   108.4600466 328.025600
    836    834   1274     1   109.7800468 425.094400
    838    837   1288     1   109.7800468 425.094400
    838    837    839     1   108.4600466 328.025600
    839    837   1288     1   109.7800468 425.094400
    841    842    843     1   109.8800469 414.216000
    841    842    844     1   109.8800469 414.216000
    841    845    846     1   109.8800469 414.216000
    841    845    847     1   109.8800469 414.216000
    841    848    849     1   109.8800469 414.216000
    841    848    850     1   109.8800469 414.216000
    842    854    855     1   109.8000471 387.438400
    842    854    856     1   109.8000471 387.438400
    843    842    854     1   109.5600471 388.275200
    843    842    844     1   108.4600466 328.025600
    844    842    854     1   109.5600471 388.275200
    845    857    858     1   109.8000471 387.438400
    845    857    859     1   109.8000471 387.438400
    846    845    857     1   109.5600471 388.275200
    846    845    847     1   108.4600466 328.025600
    847    845    857     1   109.5600471 388.275200
    848    851    852     1   109.8000471 387.438400
    848    851    853     1   109.8000471 387.438400
    849    848    851     1   109.5600471 388.275200
    849    848    850     1   108.4600466 328.025600
    850    848    851     1   109.5600471 388.275200
    851    860    861     1   109.5600471 388.275200
    851    860    862     1   109.5600471 388.275200
    852    851    860     1   109.8000471 387.438400
    852    851    853     1   107.5800459 329.699200
    853    851    860     1   109.8000471 387.438400
    854    866    867     1   109.5600471 388.275200
    854    866    868     1   109.5600471 388.275200
    855    854    866     1   109.8000471 387.438400
    855    854    856     1   107.5800459 329.699200
    856    854    866     1   109.8000471 387.438400
    857    863    864     1   109.5600471 388.275200
    857    863    865     1   109.5600471 388.275200
    858    857    863     1   109.8000471 387.438400
    858    857    859     1   107.5800459 329.699200
    859    857    863     1   109.8000471 387.438400
    861    860    869     1   109.7800468 425.094400
    861    860    862     1   108.4600466 328.025600
    862    860    869     1   109.7800468 425.094400
    864    863   1302     1   109.7800468 425.094400
    864    863    865     1   108.4600466 328.025600
    865    863   1302     1   109.7800468 425.094400
    867    866   1316     1   109.7800468 425.094400
    867    866    868     1   108.4600466 328.025600
    868    866   1316     1   109.7800468 425.094400
    870    873    874     1   109.8000471 387.438400
    870    873    875     1   109.8000471 387.438400
    870    879    880     1   110.1100470 384.091200
    870    879    881     1   110.1100470 384.091200
    870    879    883     1   110.1100470 384.091200
    871    870    873     1   110.5600475 386.601600
    871    870    879     1   108.0100461 406.684800
    871    870    872     1   109.7500473 328.025600
    872    870    873     1   110.5600475 386.601600
    872    870    879     1   108.0100461 406.684800
    873    876    877     1   109.5600471 388.275200
    873    876    878     1   109.5600471 388.275200
    874    873    876     1   109.8000471 387.438400
    874    873    875     1   107.5800459 329.699200
    875    873    876     1   109.8000471 387.438400
    877    876    882     1   109.7800468 425.094400
    877    876    878     1   108.4600466 328.025600
    878    876    882     1   109.7800468 425.094400
    880    879    881     1   108.3000464 339.740800
    880    879    883     1   108.3000464 339.740800
    881    879    883     1   108.3000464 339.740800
    884    887    888     1   109.8000471 387.438400
    884    887    889     1   109.8000471 387.438400
    884    893    894     1   110.1100470 384.091200
    884    893    895     1   110.1100470 384.091200
    884    893    897     1   110.1100470 384.091200
    885    884    887     1   110.5600475 386.601600
    885    884    893     1   108.0100461 406.684800
    885    884    886     1   109.7500473 328.025600
    886    884    887     1   110.5600475 386.601600
    886    884    893     1   108.0100461 406.684800
    887    890    891     1   109.5600471 388.275200
    887    890    892     1   109.5600471 388.275200
    888    887    890     1   109.8000471 387.438400
    888    887    889     1   107.5800459 329.699200
    889    887    890     1   109.8000471 387.438400
    891    890    896     1   109.7800468 425.094400
    891    890    892     1   108.4600466 328.025600
    892    890    896     1   109.7800468 425.094400
    894    893    895     1   108.3000464 339.740800
    894    893    897     1   108.3000464 339.740800
    895    893    897     1   108.3000464 339.740800
    898    901    902     1   109.8000471 387.438400
    898    901    903     1   109.8000471 387.438400
    898    907    908     1   110.1100470 384.091200
    898    907    909     1   110.1100470 384.091200
    898    907    911     1   110.1100470 384.091200
    899    898    901     1   110.5600475 386.601600
    899    898    907     1   108.0100461 406.684800
    899    898    900     1   109.7500473 328.025600
    900    898    901     1   110.5600475 386.601600
    900    898    907     1   108.0100461 406.684800
    901    904    905     1   109.5600471 388.275200
    901    904    906     1   109.5600471 388.275200
    902    901    904     1   109.8000471 387.438400
    902    901    903     1   107.5800459 329.699200
    903    901    904     1   109.8000471 387.438400
    905    904    910     1   109.7800468 425.094400
    905    904    906     1   108.4600466 328.025600
    906    904    910     1   109.7800468 425.094400
    908    907    909     1   108.3000464 339.740800
    908    907    911     1   108.3000464 339.740800
    909    907    911     1   108.3000464 339.740800
    912    915    916     1   109.8000471 387.438400
    912    915    917     1   109.8000471 387.438400
    912    921    922     1   110.1100470 384.091200
    912    921    923     1   110.1100470 384.091200
    912    921    925     1   110.1100470 384.091200
    913    912    915     1   110.5600475 386.601600
    913    912    921     1   108.0100461 406.684800
    913    912    914     1   109.7500473 328.025600
    914    912    915     1   110.5600475 386.601600
    914    912    921     1   108.0100461 406.684800
    915    918    919     1   109.5600471 388.275200
    915    918    920     1   109.5600471 388.275200
    916    915    918     1   109.8000471 387.438400
    916    915    917     1   107.5800459 329.699200
    917    915    918     1   109.8000471 387.438400
    919    918    924     1   109.7800468 425.094400
    919    918    920     1   108.4600466 328.025600
    920    918    924     1   109.7800468 425.094400
    922    921    923     1   108.3000464 339.740800
    922    921    925     1   108.3000464 339.740800
    923    921    925     1   108.3000464 339.740800
    926    929    930     1   109.8000471 387.438400
    926    929    931     1   109.8000471 387.438400
    926    935    936     1   110.1100470 384.091200
    926    935    937     1   110.1100470 384.091200
    926    935    939     1   110.1100470 384.091200
    927    926    929     1   110.5600475 386.601600
    927    926    935     1   108.0100461 406.684800
    927    926    928     1   109.7500473 328.025600
    928    926    929     1   110.5600475 386.601600
    928    926    935     1   108.0100461 406.684800
    929    932    933     1   109.5600471 388.275200
    929    932    934     1   109.5600471 388.275200
    930    929    932     1   109.8000471 387.438400
    930    929    931     1   107.5800459 329.699200
    931    929    932     1   109.8000471 387.438400
    933    932    938     1   109.7800468 425.094400
    933    932    934     1   108.4600466 328.025600
    934    932    938     1   109.7800468 425.094400
    936    935    937     1   108.3000464 339.740800
    936    935    939     1   108.3000464 339.740800
    937    935    939     1   108.3000464 339.740800
    940    943    944     1   109.8000471 387.438400
    940    943    945     1   109.8000471 387.438400
    940    949    950     1   110.1100470 384.091200
    940    949    951     1   110.1100470 384.091200
    940    949    953     1   110.1100470 384.091200
    941    940    943     1   110.5600475 386.601600
    941    940    949     1   108.0100461 406.684800
    941    940    942     1   109.7500473 328.025600
    942    940    943     1   110.5600475 386.601600
    942    940    949     1   108.0100461 406.684800
    943    946    947     1   109.5600471 388.275200
    943    946    948     1   109.5600471 388.275200
    944    943    946     1   109.8000471 387.438400
    944    943    945     1   107.5800459 329.699200
    945    943    946     1   109.8000471 387.438400
    947    946    952     1   109.7800468 425.094400
    947    946    948     1   108.4600466 328.025600
    948    946    952     1   109.7800468 425.094400
    950    949    951     1   108.3000464 339.740800
    950    949    953     1   108.3000464 339.740800
    951    949    953     1   108.3000464 339.740800
    954    957    958     1   109.8000471 387.438400
    954    957    959     1   109.8000471 387.438400
    954    963    964     1   110.1100470 384.091200
    954    963    965     1   110.1100470 384.091200
    954    963    967     1   110.1100470 384.091200
    955    954    957     1   110.5600475 386.601600
    955    954    963     1   108.0100461 406.684800
    955    954    956     1   109.7500473 328.025600
    956    954    957     1   110.5600475 386.601600
    956    954    963     1   108.0100461 406.684800
    957    960    961     1   109.5600471 388.275200
    957    960    962     1   109.5600471 388.275200
    958    957    960     1   109.8000471 387.438400
    958    957    959     1   107.5800459 329.699200
    959    957    960     1   109.8000471 387.438400
    961    960    966     1   109.7800468 425.094400
    961    960    962     1   108.4600466 328.025600
    962    960    966     1   109.7800468 425.094400
    964    963    965     1   108.3000464 339.740800
    964    963    967     1   108.3000464 339.740800
    965    963    967     1   108.3000464 339.740800
    968    971    972     1   109.8000471 387.438400
    968    971    973     1   109.8000471 387.438400
    968    977    978     1   110.1100470 384.091200
    968    977    979     1   110.1100470 384.091200
    968    977    981     1   110.1100470 384.091200
    969    968    971     1   110.5600475 386.601600
    969    968    977     1   108.0100461 406.684800
    969    968    970     1   109.7500473 328.025600
    970    968    971     1   110.5600475 386.601600
    970    968    977     1   108.0100461 406.684800
    971    974    975     1   109.5600471 388.275200
    971    974    976     1   109.5600471 388.275200
    972    971    974     1   109.8000471 387.438400
    972    971    973     1   107.5800459 329.699200
    973    971    974     1   109.8000471 387.438400
    975    974    980     1   109.7800468 425.094400
    975    974    976     1   108.4600466 328.025600
    976    974    980     1   109.7800468 425.094400
    978    977    979     1   108.3000464 339.740800
    978    977    981     1   108.3000464 339.740800
    979    977    981     1   108.3000464 339.740800
    982    985    986     1   109.8000471 387.438400
    982    985    987     1   109.8000471 387.438400
    982    991    992     1   110.1100470 384.091200
    982    991    993     1   110.1100470 384.091200
    982    991    995     1   110.1100470 384.091200
    983    982    985     1   110.5600475 386.601600
    983    982    991     1   108.0100461 406.684800
    983    982    984     1   109.7500473 328.025600
    984    982    985     1   110.5600475 386.601600
    984    982    991     1   108.0100461 406.684800
    985    988    989     1   109.5600471 388.275200
    985    988    990     1   109.5600471 388.275200
    986    985    988     1   109.8000471 387.438400
    986    985    987     1   107.5800459 329.699200
    987    985    988     1   109.8000471 387.438400
    989    988    994     1   109.7800468 425.094400
    989    988    990     1   108.4600466 328.025600
    990    988    994     1   109.7800468 425.094400
    992    991    993     1   108.3000464 339.740800
    992    991    995     1   108.3000464 339.740800
    993    991    995     1   108.3000464 339.740800
    996    999   1000     1   109.8000471 387.438400
    996    999   1001     1   109.8000471 387.438400
    996   1005   1006     1   110.1100470 384.091200
    996   1005   1007     1   110.1100470 384.091200
    996   1005   1009     1   110.1100470 384.091200
    997    996    999     1   110.5600475 386.601600
    997    996   1005     1   108.0100461 406.684800
    997    996    998     1   109.7500473 328.025600
    998    996    999     1   110.5600475 386.601600
    998    996   1005     1   108.0100461 406.684800
    999   1002   1003     1   109.5600471 388.275200
    999   1002   1004     1   109.5600471 388.275200
   1000    999   1002     1   109.8000471 387.438400
   1000    999   1001     1   107.5800459 329.699200
   1001    999   1002     1   109.8000471 387.438400
   1003   1002   1008     1   109.7800468 425.094400
   1003   1002   1004     1   108.4600466 328.025600
   1004   1002   1008     1   109.7800468 425.094400
   1006   1005   1007     1   108.3000464 339.740800
   1006   1005   1009     1   108.3000464 339.740800
   1007   1005   1009     1   108.3000464 339.740800
   1010   1013   1014     1   109.8000471 387.438400
   1010   1013   1015     1   109.8000471 387.438400
   1010   1019   1020     1   110.1100470 384.091200
   1010   1019   1021     1   110.1100470 384.091200
   1010   1019   1023     1   110.1100470 384.091200
   1011   1010   1013     1   110.5600475 386.601600
   1011   1010   1019     1   108.0100461 406.684800
   1011   1010   1012     1   109.7500473 328.025600
   1012   1010   1013     1   110.5600475 386.601600
   1012   1010   1019     1   108.0100461 406.684800
   1013   1016   1017     1   109.5600471 388.275200
   1013   1016   1018     1   109.5600471 388.275200
   1014   1013   1016     1   109.8000471 387.438400
   1014   1013   1015     1   107.5800459 329.699200
   1015   1013   1016     1   109.8000471 387.438400
   1017   1016   1022     1   109.7800468 425.094400
   1017   1016   1018     1   108.4600466 328.025600
   1018   1016   1022     1   109.7800468 425.094400
   1020   1019   1021     1   108.3000464 339.740800
   1020   1019   1023     1   108.3000464 339.740800
   1021   1019   1023     1   108.3000464 339.740800
   1024   1027   1028     1   109.8000471 387.438400
   1024   1027   1029     1   109.8000471 387.438400
   1024   1033   1034     1   110.1100470 384.091200
   1024   1033   1035     1   110.1100470 384.091200
   1024   1033   1037     1   110.1100470 384.091200
   1025   1024   1027     1   110.5600475 386.601600
   1025   1024   1033     1   108.0100461 406.684800
   1025   1024   1026     1   109.7500473 328.025600
   1026   1024   1027     1   110.5600475 386.601600
   1026   1024   1033     1   108.0100461 406.684800
   1027   1030   1031     1   109.5600471 388.275200
   1027   1030   1032     1   109.5600471 388.275200
   1028   1027   1030     1   109.8000471 387.438400
   1028   1027   1029     1   107.5800459 329.699200
   1029   1027   1030     1   109.8000471 387.438400
   1031   1030   1036     1   109.7800468 425.094400
   1031   1030   1032     1   108.4600466 328.025600
   1032   1030   1036     1   109.7800468 425.094400
   1034   1033   1035     1   108.3000464 339.740800
   1034   1033   1037     1   108.3000464 339.740800
   1035   1033   1037     1   108.3000464 339.740800
   1038   1041   1042     1   109.8000471 387.438400
   1038   1041   1043     1   109.8000471 387.438400
   1038   1047   1048     1   110.1100470 384.091200
   1038   1047   1049     1   110.1100470 384.091200
   1038   1047   1051     1   110.1100470 384.091200
   1039   1038   1041     1   110.5600475 386.601600
   1039   1038   1047     1   108.0100461 406.684800
   1039   1038   1040     1   109.7500473 328.025600
   1040   1038   1041     1   110.5600475 386.601600
   1040   1038   1047     1   108.0100461 406.684800
   1041   1044   1045     1   109.5600471 388.275200
   1041   1044   1046     1   109.5600471 388.275200
   1042   1041   1044     1   109.8000471 387.438400
   1042   1041   1043     1   107.5800459 329.699200
   1043   1041   1044     1   109.8000471 387.438400
   1045   1044   1050     1   109.7800468 425.094400
   1045   1044   1046     1   108.4600466 328.025600
   1046   1044   1050     1   109.7800468 425.094400
   1048   1047   1049     1   108.3000464 339.740800
   1048   1047   1051     1   108.3000464 339.740800
   1049   1047   1051     1   108.3000464 339.740800
   1052   1055   1056     1   109.8000471 387.438400
   1052   1055   1057     1   109.8000471 387.438400
   1052   1061   1062     1   110.1100470 384.091200
   1052   1061   1063     1   110.1100470 384.091200
   1052   1061   1065     1   110.1100470 384.091200
   1053   1052   1055     1   110.5600475 386.601600
   1053   1052   1061     1   108.0100461 406.684800
   1053   1052   1054     1   109.7500473 328.025600
   1054   1052   1055     1   110.5600475 386.601600
   1054   1052   1061     1   108.0100461 406.684800
   1055   1058   1059     1   109.5600471 388.275200
   1055   1058   1060     1   109.5600471 388.275200
   1056   1055   1058     1   109.8000471 387.438400
   1056   1055   1057     1   107.5800459 329.699200
   1057   1055   1058     1   109.8000471 387.438400
   1059   1058   1064     1   109.7800468 425.094400
   1059   1058   1060     1   108.4600466 328.025600
   1060   1058   1064     1   109.7800468 425.094400
   1062   1061   1063     1   108.3000464 339.740800
   1062   1061   1065     1   108.3000464 339.740800
   1063   1061   1065     1   108.3000464 339.740800
   1066   1069   1070     1   109.8000471 387.438400
   1066   1069   1071     1   109.8000471 387.438400
   1066   1075   1076     1   110.1100470 384.091200
   1066   1075   1077     1   110.1100470 384.091200
   1066   1075   1079     1   110.1100470 384.091200
   1067   1066   1069     1   110.5600475 386.601600
   1067   1066   1075     1   108.0100461 406.684800
   1067   1066   1068     1   109.7500473 328.025600
   1068   1066   1069     1   110.5600475 386.601600
   1068   1066   1075     1   108.0100461 406.684800
   1069   1072   1073     1   109.5600471 388.275200
   1069   1072   1074     1   109.5600471 388.275200
   1070   1069   1072     1   109.8000471 387.438400
   1070   1069   1071     1   107.5800459 329.699200
   1071   1069   1072     1   109.8000471 387.438400
   1073   1072   1078     1   109.7800468 425.094400
   1073   1072   1074     1   108.4600466 328.025600
   1074   1072   1078     1   109.7800468 425.094400
   1076   1075   1077     1   108.3000464 339.740800
   1076   1075   1079     1   108.3000464 339.740800
   1077   1075   1079     1   108.3000464 339.740800
   1080   1083   1084     1   109.8000471 387.438400
   1080   1083   1085     1   109.8000471 387.438400
   1080   1089   1090     1   110.1100470 384.091200
   1080   1089   1091     1   110.1100470 384.091200
   1080   1089   1093     1   110.1100470 384.091200
   1081   1080   1083     1   110.5600475 386.601600
   1081   1080   1089     1   108.0100461 406.684800
   1081   1080   1082     1   109.7500473 328.025600
   1082   1080   1083     1   110.5600475 386.601600
   1082   1080   1089     1   108.0100461 406.684800
   1083   1086   1087     1   109.5600471 388.275200
   1083   1086   1088     1   109.5600471 388.275200
   1084   1083   1086     1   109.8000471 387.438400
   1084   1083   1085     1   107.5800459 329.699200
   1085   1083   1086     1   109.8000471 387.438400
   1087   1086   1092     1   109.7800468 425.094400
   1087   1086   1088     1   108.4600466 328.025600
   1088   1086   1092     1   109.7800468 425.094400
   1090   1089   1091     1   108.3000464 339.740800
   1090   1089   1093     1   108.3000464 339.740800
   1091   1089   1093     1   108.3000464 339.740800
   1094   1097   1098     1   109.8000471 387.438400
   1094   1097   1099     1   109.8000471 387.438400
   1094   1103   1104     1   110.1100470 384.091200
   1094   1103   1105     1   110.1100470 384.091200
   1094   1103   1107     1   110.1100470 384.091200
   1095   1094   1097     1   110.5600475 386.601600
   1095   1094   1103     1   108.0100461 406.684800
   1095   1094   1096     1   109.7500473 328.025600
   1096   1094   1097     1   110.5600475 386.601600
   1096   1094   1103     1   108.0100461 406.684800
   1097   1100   1101     1   109.5600471 388.275200
   1097   1100   1102     1   109.5600471 388.275200
   1098   1097   1100     1   109.8000471 387.438400
   1098   1097   1099     1   107.5800459 329.699200
   1099   1097   1100     1   109.8000471 387.438400
   1101   1100   1106     1   109.7800468 425.094400
   1101   1100   1102     1   108.4600466 328.025600
   1102   1100   1106     1   109.7800468 425.094400
   1104   1103   1105     1   108.3000464 339.740800
   1104   1103   1107     1   108.3000464 339.740800
   1105   1103   1107     1   108.3000464 339.740800
   1108   1111   1112     1   109.8000471 387.438400
   1108   1111   1113     1   109.8000471 387.438400
   1108   1117   1118     1   110.1100470 384.091200
   1108   1117   1119     1   110.1100470 384.091200
   1108   1117   1121     1   110.1100470 384.091200
   1109   1108   1111     1   110.5600475 386.601600
   1109   1108   1117     1   108.0100461 406.684800
   1109   1108   1110     1   109.7500473 328.025600
   1110   1108   1111     1   110.5600475 386.601600
   1110   1108   1117     1   108.0100461 406.684800
   1111   1114   1115     1   109.5600471 388.275200
   1111   1114   1116     1   109.5600471 388.275200
   1112   1111   1114     1   109.8000471 387.438400
   1112   1111   1113     1   107.5800459 329.699200
   1113   1111   1114     1   109.8000471 387.438400
   1115   1114   1120     1   109.7800468 425.094400
   1115   1114   1116     1   108.4600466 328.025600
   1116   1114   1120     1   109.7800468 425.094400
   1118   1117   1119     1   108.3000464 339.740800
   1118   1117   1121     1   108.3000464 339.740800
   1119   1117   1121     1   108.3000464 339.740800
   1122   1125   1126     1   109.8000471 387.438400
   1122   1125   1127     1   109.8000471 387.438400
   1122   1131   1132     1   110.1100470 384.091200
   1122   1131   1133     1   110.1100470 384.091200
   1122   1131   1135     1   110.1100470 384.091200
   1123   1122   1125     1   110.5600475 386.601600
   1123   1122   1131     1   108.0100461 406.684800
   1123   1122   1124     1   109.7500473 328.025600
   1124   1122   1125     1   110.5600475 386.601600
   1124   1122   1131     1   108.0100461 406.684800
   1125   1128   1129     1   109.5600471 388.275200
   1125   1128   1130     1   109.5600471 388.275200
   1126   1125   1128     1   109.8000471 387.438400
   1126   1125   1127     1   107.5800459 329.699200
   1127   1125   1128     1   109.8000471 387.438400
   1129   1128   1134     1   109.7800468 425.094400
   1129   1128   1130     1   108.4600466 328.025600
   1130   1128   1134     1   109.7800468 425.094400
   1132   1131   1133     1   108.3000464 339.740800
   1132   1131   1135     1   108.3000464 339.740800
   1133   1131   1135     1   108.3000464 339.740800
   1136   1139   1140     1   109.8000471 387.438400
   1136   1139   1141     1   109.8000471 387.438400
   1136   1145   1146     1   110.1100470 384.091200
   1136   1145   1147     1   110.1100470 384.091200
   1136   1145   1149     1   110.1100470 384.091200
   1137   1136   1139     1   110.5600475 386.601600
   1137   1136   1145     1   108.0100461 406.684800
   1137   1136   1138     1   109.7500473 328.025600
   1138   1136   1139     1   110.5600475 386.601600
   1138   1136   1145     1   108.0100461 406.684800
   1139   1142   1143     1   109.5600471 388.275200
   1139   1142   1144     1   109.5600471 388.275200
   1140   1139   1142     1   109.8000471 387.438400
   1140   1139   1141     1   107.5800459 329.699200
   1141   1139   1142     1   109.8000471 387.438400
   1143   1142   1148     1   109.7800468 425.094400
   1143   1142   1144     1   108.4600466 328.025600
   1144   1142   1148     1   109.7800468 425.094400
   1146   1145   1147     1   108.3000464 339.740800
   1146   1145   1149     1   108.3000464 339.740800
   1147   1145   1149     1   108.3000464 339.740800
   1150   1153   1154     1   109.8000471 387.438400
   1150   1153   1155     1   109.8000471 387.438400
   1150   1159   1160     1   110.1100470 384.091200
   1150   1159   1161     1   110.1100470 384.091200
   1150   1159   1163     1   110.1100470 384.091200
   1151   1150   1153     1   110.5600475 386.601600
   1151   1150   1159     1   108.0100461 406.684800
   1151   1150   1152     1   109.7500473 328.025600
   1152   1150   1153     1   110.5600475 386.601600
   1152   1150   1159     1   108.0100461 406.684800
   1153   1156   1157     1   109.5600471 388.275200
   1153   1156   1158     1   109.5600471 388.275200
   1154   1153   1156     1   109.8000471 387.438400
   1154   1153   1155     1   107.5800459 329.699200
   1155   1153   1156     1   109.8000471 387.438400
   1157   1156   1162     1   109.7800468 425.094400
   1157   1156   1158     1   108.4600466 328.025600
   1158   1156   1162     1   109.7800468 425.094400
   1160   1159   1161     1   108.3000464 339.740800
   1160   1159   1163     1   108.3000464 339.740800
   1161   1159   1163     1   108.3000464 339.740800
   1164   1167   1168     1   109.8000471 387.438400
   1164   1167   1169     1   109.8000471 387.438400
   1164   1173   1174     1   110.1100470 384.091200
   1164   1173   1175     1   110.1100470 384.091200
   1164   1173   1177     1   110.1100470 384.091200
   1165   1164   1167     1   110.5600475 386.601600
   1165   1164   1173     1   108.0100461 406.684800
   1165   1164   1166     1   109.7500473 328.025600
   1166   1164   1167     1   110.5600475 386.601600
   1166   1164   1173     1   108.0100461 406.684800
   1167   1170   1171     1   109.5600471 388.275200
   1167   1170   1172     1   109.5600471 388.275200
   1168   1167   1170     1   109.8000471 387.438400
   1168   1167   1169     1   107.5800459 329.699200
   1169   1167   1170     1   109.8000471 387.438400
   1171   1170   1176     1   109.7800468 425.094400
   1171   1170   1172     1   108.4600466 328.025600
   1172   1170   1176     1   109.7800468 425.094400
   1174   1173   1175     1   108.3000464 339.740800
   1174   1173   1177     1   108.3000464 339.740800
   1175   1173   1177     1   108.3000464 339.740800
   1178   1181   1182     1   109.8000471 387.438400
   1178   1181   1183     1   109.8000471 387.438400
   1178   1187   1188     1   110.1100470 384.091200
   1178   1187   1189     1   110.1100470 384.091200
   1178   1187   1191     1   110.1100470 384.091200
   1179   1178   1181     1   110.5600475 386.601600
   1179   1178   1187     1   108.0100461 406.684800
   1179   1178   1180     1   109.7500473 328.025600
   1180   1178   1181     1   110.5600475 386.601600
   1180   1178   1187     1   108.0100461 406.684800
   1181   1184   1185     1   109.5600471 388.275200
   1181   1184   1186     1   109.5600471 388.275200
   1182   1181   1184     1   109.8000471 387.438400
   1182   1181   1183     1   107.5800459 329.699200
   1183   1181   1184     1   109.8000471 387.438400
   1185   1184   1190     1   109.7800468 425.094400
   1185   1184   1186     1   108.4600466 328.025600
   1186   1184   1190     1   109.7800468 425.094400
   1188   1187   1189     1   108.3000464 339.740800
   1188   1187   1191     1   108.3000464 339.740800
   1189   1187   1191     1   108.3000464 339.740800
   1192   1195   1196     1   109.8000471 387.438400
   1192   1195   1197     1   109.8000471 387.438400
   1192   1201   1202     1   110.1100470 384.091200
   1192   1201   1203     1   110.1100470 384.091200
   1192   1201   1205     1   110.1100470 384.091200
   1193   1192   1195     1   110.5600475 386.601600
   1193   1192   1201     1   108.0100461 406.684800
   1193   1192   1194     1   109.7500473 328.025600
   1194   1192   1195     1   110.5600475 386.601600
   1194   1192   1201     1   108.0100461 406.684800
   1195   1198   1199     1   109.5600471 388.275200
   1195   1198   1200     1   109.5600471 388.275200
   1196   1195   1198     1   109.8000471 387.438400
   1196   1195   1197     1   107.5800459 329.699200
   1197   1195   1198     1   109.8000471 387.438400
   1199   1198   1204     1   109.7800468 425.094400
   1199   1198   1200     1   108.4600466 328.025600
   1200   1198   1204     1   109.7800468 425.094400
   1202   1201   1203     1   108.3000464 339.740800
   1202   1201   1205     1   108.3000464 339.740800
   1203   1201   1205     1   108.3000464 339.740800
   1206   1209   1210     1   109.8000471 387.438400
   1206   1209   1211     1   109.8000471 387.438400
   1206   1215   1216     1   110.1100470 384.091200
   1206   1215   1217     1   110.1100470 384.091200
   1206   1215   1219     1   110.1100470 384.091200
   1207   1206   1209     1   110.5600475 386.601600
   1207   1206   1215     1   108.0100461 406.684800
   1207   1206   1208     1   109.7500473 328.025600
   1208   1206   1209     1   110.5600475 386.601600
   1208   1206   1215     1   108.0100461 406.684800
   1209   1212   1213     1   109.5600471 388.275200
   1209   1212   1214     1   109.5600471 388.275200
   1210   1209   1212     1   109.8000471 387.438400
   1210   1209   1211     1   107.5800459 329.699200
   1211   1209   1212     1   109.8000471 387.438400
   1213   1212   1218     1   109.7800468 425.094400
   1213   1212   1214     1   108.4600466 328.025600
   1214   1212   1218     1   109.7800468 425.094400
   1216   1215   1217     1   108.3000464 339.740800
   1216   1215   1219     1   108.3000464 339.740800
   1217   1215   1219     1   108.3000464 339.740800
   1220   1223   1224     1   109.8000471 387.438400
   1220   1223   1225     1   109.8000471 387.438400
   1220   1229   1230     1   110.1100470 384.091200
   1220   1229   1231     1   110.1100470 384.091200
   1220   1229   1233     1   110.1100470 384.091200
   1221   1220   1223     1   110.5600475 386.601600
   1221   1220   1229     1   108.0100461 406.684800
   1221   1220   1222     1   109.7500473 328.025600
   1222   1220   1223     1   110.5600475 386.601600
   1222   1220   1229     1   108.0100461 406.684800
   1223   1226   1227     1   109.5600471 388.275200
   1223   1226   1228     1   109.5600471 388.275200
   1224   1223   1226     1   109.8000471 387.438400
   1224   1223   1225     1   107.5800459 329.699200
   1225   1223   1226     1   109.8000471 387.438400
   1227   1226   1232     1   109.7800468 425.094400
   1227   1226   1228     1   108.4600466 328.025600
   1228   1226   1232     1   109.7800468 425.094400
   1230   1229   1231     1   108.3000464 339.740800
   1230   1229   1233     1   108.3000464 339.740800
   1231   1229   1233     1   108.3000464 339.740800
   1234   1237   1238     1   109.8000471 387.438400
   1234   1237   1239     1   109.8000471 387.438400
   1234   1243   1244     1   110.1100470 384.091200
   1234   1243   1245     1   110.1100470 384.091200
   1234   1243   1247     1   110.1100470 384.091200
   1235   1234   1237     1   110.5600475 386.601600
   1235   1234   1243     1   108.0100461 406.684800
   1235   1234   1236     1   109.7500473 328.025600
   1236   1234   1237     1   110.5600475 386.601600
   1236   1234   1243     1   108.0100461 406.684800
   1237   1240   1241     1   109.5600471 388.275200
   1237   1240   1242     1   109.5600471 388.275200
   1238   1237   1240     1   109.8000471 387.438400
   1238   1237   1239     1   107.5800459 329.699200
   1239   1237   1240     1   109.8000471 387.438400
   1241   1240   1246     1   109.7800468 425.094400
   1241   1240   1242     1   108.4600466 328.025600
   1242   1240   1246     1   109.7800468 425.094400
   1244   1243   1245     1   108.3000464 339.740800
   1244   1243   1247     1   108.3000464 339.740800
   1245   1243   1247     1   108.3000464 339.740800
   1248   1251   1252     1   109.8000471 387.438400
   1248   1251   1253     1   109.8000471 387.438400
   1248   1257   1258     1   110.1100470 384.091200
   1248   1257   1259     1   110.1100470 384.091200
   1248   1257   1261     1   110.1100470 384.091200
   1249   1248   1251     1   110.5600475 386.601600
   1249   1248   1257     1   108.0100461 406.684800
   1249   1248   1250     1   109.7500473 328.025600
   1250   1248   1251     1   110.5600475 386.601600
   1250   1248   1257     1   108.0100461 406.684800
   1251   1254   1255     1   109.5600471 388.275200
   1251   1254   1256     1   109.5600471 388.275200
   1252   1251   1254     1   109.8000471 387.438400
   1252   1251   1253     1   107.5800459 329.699200
   1253   1251   1254     1   109.8000471 387.438400
   1255   1254   1260     1   109.7800468 425.094400
   1255   1254   1256     1   108.4600466 328.025600
   1256   1254   1260     1   109.7800468 425.094400
   1258   1257   1259     1   108.3000464 339.740800
   1258   1257   1261     1   108.3000464 339.740800
   1259   1257   1261     1   108.3000464 339.740800
   1262   1265   1266     1   109.8000471 387.438400
   1262   1265   1267     1   109.8000471 387.438400
   1262   1271   1272     1   110.1100470 384.091200
   1262   1271   1273     1   110.1100470 384.091200
   1262   1271   1275     1   110.1100470 384.091200
   1263   1262   1265     1   110.5600475 386.601600
   1263   1262   1271     1   108.0100461 406.684800
   1263   1262   1264     1   109.7500473 328.025600
   1264   1262   1265     1   110.5600475 386.601600
   1264   1262   1271     1   108.0100461 406.684800
   1265   1268   1269     1   109.5600471 388.275200
   1265   1268   1270     1   109.5600471 388.275200
   1266   1265   1268     1   109.8000471 387.438400
   1266   1265   1267     1   107.5800459 329.699200
   1267   1265   1268     1   109.8000471 387.438400
   1269   1268   1274     1   109.7800468 425.094400
   1269   1268   1270     1   108.4600466 328.025600
   1270   1268   1274     1   109.7800468 425.094400
   1272   1271   1273     1   108.3000464 339.740800
   1272   1271   1275     1   108.3000464 339.740800
   1273   1271   1275     1   108.3000464 339.740800
   1276   1279   1280     1   109.8000471 387.438400
   1276   1279   1281     1   109.8000471 387.438400
   1276   1285   1286     1   110.1100470 384.091200
   1276   1285   1287     1   110.1100470 384.091200
   1276   1285   1289     1   110.1100470 384.091200
   1277   1276   1279     1   110.5600475 386.601600
   1277   1276   1285     1   108.0100461 406.684800
   1277   1276   1278     1   109.7500473 328.025600
   1278   1276   1279     1   110.5600475 386.601600
   1278   1276   1285     1   108.0100461 406.684800
   1279   1282   1283     1   109.5600471 388.275200
   1279   1282   1284     1   109.5600471 388.275200
   1280   1279   1282     1   109.8000471 387.438400
   1280   1279   1281     1   107.5800459 329.699200
   1281   1279   1282     1   109.8000471 387.438400
   1283   1282   1288     1   109.7800468 425.094400
   1283   1282   1284     1   108.4600466 328.025600
   1284   1282   1288     1   109.7800468 425.094400
   1286   1285   1287     1   108.3000464 339.740800
   1286   1285   1289     1   108.3000464 339.740800
   1287   1285   1289     1   108.3000464 339.740800
   1290   1293   1294     1   109.8000471 387.438400
   1290   1293   1295     1   109.8000471 387.438400
   1290   1299   1300     1   110.1100470 384.091200
   1290   1299   1301     1   110.1100470 384.091200
   1290   1299   1303     1   110.1100470 384.091200
   1291   1290   1293     1   110.5600475 386.601600
   1291   1290   1299     1   108.0100461 406.684800
   1291   1290   1292     1   109.7500473 328.025600
   1292   1290   1293     1   110.5600475 386.601600
   1292   1290   1299     1   108.0100461 406.684800
   1293   1296   1297     1   109.5600471 388.275200
   1293   1296   1298     1   109.5600471 388.275200
   1294   1293   1296     1   109.8000471 387.438400
   1294   1293   1295     1   107.5800459 329.699200
   1295   1293   1296     1   109.8000471 387.438400
   1297   1296   1302     1   109.7800468 425.094400
   1297   1296   1298     1   108.4600466 328.025600
   1298   1296   1302     1   109.7800468 425.094400
   1300   1299   1301     1   108.3000464 339.740800
   1300   1299   1303     1   108.3000464 339.740800
   1301   1299   1303     1   108.3000464 339.740800
   1304   1307   1308     1   109.8000471 387.438400
   1304   1307   1309     1   109.8000471 387.438400
   1304   1313   1314     1   110.1100470 384.091200
   1304   1313   1315     1   110.1100470 384.091200
   1304   1313   1317     1   110.1100470 384.091200
   1305   1304   1307     1   110.5600475 386.601600
   1305   1304   1313     1   108.0100461 406.684800
   1305   1304   1306     1   109.7500473 328.025600
   1306   1304   1307     1   110.5600475 386.601600
   1306   1304   1313     1   108.0100461 406.684800
   1307   1310   1311     1   109.5600471 388.275200
   1307   1310   1312     1   109.5600471 388.275200
   1308   1307   1310     1   109.8000471 387.438400
   1308   1307   1309     1   107.5800459 329.699200
   1309   1307   1310     1   109.8000471 387.438400
   1311   1310   1316     1   109.7800468 425.094400
   1311   1310   1312     1   108.4600466 328.025600
   1312   1310   1316     1   109.7800468 425.094400
   1314   1313   1315     1   108.3000464 339.740800
   1314   1313   1317     1   108.3000464 339.740800
   1315   1313   1317     1   108.3000464 339.740800

[ dihedrals ]
;    ai     aj     ak     al funct         c0         c1         c2         c3         c4         c5
      1      2      8     14     1  0.0000000  0.6508444  3
      1      5     11     17     1  0.0000000  0.6508444  3
      2      1      5     11     1  180.0000771  0.4184000  2
      2      1      5     11     1  0.0000000  1.6024720  3
      2      8     14     20     1  0.0000000  0.6508444  3
      5      1      2      8     1  180.0000771  0.4184000  2
      5      1      2      8     1  0.0000000  1.6024720  3
      5     11     17     21     1  0.0000000  0.6508444  3
      8     14     20     28     1  180.0000771  2.0083200  2
      8     14     20     28     1  0.0000000  1.2552000  3
      8     14     20     31     1  180.0000771  2.0083200  2
      8     14     20     31     1  0.0000000  1.2552000  3
     11     17     21     22     1  180.0000771  2.0083200  2
     11     17     21     22     1  0.0000000  1.2552000  3
     11     17     21     25     1  180.0000771  2.0083200  2
     11     17     21     25     1  0.0000000  1.2552000  3
     14     20     28     40     1  180.0000771  2.0083200  2
     14     20     28     40     1  0.0000000  1.2552000  3
     14     20     31     43     1  180.0000771  2.0083200  2
     14     20     31     43     1  0.0000000  1.2552000  3
     17     21     22     34     1  180.0000771  2.0083200  2
     17     21     22     34     1  0.0000000  1.2552000  3
     17     21     25     37     1  180.0000771  2.0083200  2
     17     21     25     37     1  0.0000000  1.2552000  3
     20     28     40     49     1  0.0000000  0.6508444  3
     20     31     43     46     1  0.0000000  0.6508444  3
     21     22     34     55     1  0.0000000  0.6508444  3
     21     25     37     52     1  0.0000000  0.6508444  3
     22     21     25     37     1  180.0000771  2.0083200  2
     22     21     25     37     1  0.0000000  1.2552000  3
     22     34     55    173     1  0.0000000  0.6508444  3
     25     21     22     34     1  180.0000771  2.0083200  2
     25     21     22     34     1  0.0000000  1.2552000  3
     25     37     52    144     1  0.0000000  0.6508444  3
     28     20     31     43     1  180.0000771  2.0083200  2
     28     20     31     43     1  0.0000000  1.2552000  3
     28     40     49    115     1  0.0000000  0.6508444  3
     31     20     28     40     1  180.0000771  2.0083200  2
     31     20     28     40     1  0.0000000  1.2552000  3
     31     43     46     86     1  0.0000000  0.6508444  3
     34     55    173    164     1  180.0000771  0.4184000  2
     34     55    173    164     1  0.0000000  1.6024720  3
     37     52    144    135     1  180.0000771  0.4184000  2
     37     52    144    135     1  0.0000000  1.6024720  3
     40     49    115    106     1  180.0000771  0.4184000  2
     40     49    115    106     1  0.0000000  1.6024720  3
     43     46     86     77     1  180.0000771  0.4184000  2
     43     46     86     77     1  0.0000000  1.6024720  3
     46     86     77     68     1  180.0000771  0.4184000  2
     46     86     77     68     1  0.0000000  1.6024720  3
     49    115    106     97     1  180.0000771  0.4184000  2
     49    115    106     97     1  0.0000000  1.6024720  3
     52    144    135    126     1  180.0000771  0.4184000  2
     52    144    135    126     1  0.0000000  1.6024720  3
     55    173    164    155     1  180.0000771  0.4184000  2
     55    173    164    155     1  0.0000000  1.6024720  3
     58     59     71     83     1  0.0000000  0.6508444  3
     58     62     74     80     1  0.0000000  0.6508444  3
     58     65     68     77     1  0.0000000  0.6508444  3
     59     58     62     74     1  180.0000771  2.0083200  2
     59     58     62     74     1  0.0000000  1.2552000  3
     59     58     65     68     1  180.0000771  2.0083200  2
     59     58     65     68     1  0.0000000  1.2552000  3
     59     71     83    231     1  0.0000000  0.6508444  3
     62     58     59     71     1  180.0000771  2.0083200  2
     62     58     59     71     1  0.0000000  1.2552000  3
     62     58     65     68     1  180.0000771  2.0083200  2
     62     58     65     68     1  0.0000000  1.2552000  3
     62     74     80    202     1  0.0000000  0.6508444  3
     65     58     59     71     1  180.0000771  2.0083200  2
     65     58     59     71     1  0.0000000  1.2552000  3
     65     58     62     74     1  180.0000771  2.0083200  2
     65     58     62     74     1  0.0000000  1.2552000  3
     65     68     77     86     1  0.0000000  0.6508444  3
     71     83    231    222     1  180.0000771  0.4184000  2
     71     83    231    222     1  0.0000000  1.6024720  3
     74     80    202    193     1  180.0000771  0.4184000  2
     74     80    202    193     1  0.0000000  1.6024720  3
     80    202    193    184     1  180.0000771  0.4184000  2
     80    202    193    184     1  0.0000000  1.6024720  3
     83    231    222    213     1  180.0000771  0.4184000  2
     83    231    222    213     1  0.0000000  1.6024720  3
     87     88    100    112     1  0.0000000  0.6508444  3
     87     91    103    109     1  0.0000000  0.6508444  3
     87     94     97    106     1  0.0000000  0.6508444  3
     88     87     91    103     1  180.0000771  2.0083200  2
     88     87     91    103     1  0.0000000  1.2552000  3
     88     87     94     97     1  180.0000771  2.0083200  2
     88     87     94     97     1  0.0000000  1.2552000  3
     88    100    112    289     1  0.0000000  0.6508444  3
     91     87     88    100     1  180.0000771  2.0083200  2
     91     87     88    100     1  0.0000000  1.2552000  3
     91     87     94     97     1  180.0000771  2.0083200  2
     91     87     94     97     1  0.0000000  1.2552000  3
     91    103    109    260     1  0.0000000  0.6508444  3
     94     87     88    100     1  180.0000771  2.0083200  2
     94     87     88    100     1  0.0000000  1.2552000  3
     94     87     91    103     1  180.0000771  2.0083200  2
     94     87     91    103     1  0.0000000  1.2552000  3
     94     97    106    115     1  0.0000000  0.6508444  3
    100    112    289    280     1  180.0000771  0.4184000  2
    100    112    289    280     1  0.0000000  1.6024720  3
    103    109    260    251     1  180.0000771  0.4184000  2
    103    109    260    251     1  0.0000000  1.6024720  3
    109    260    251    242     1  180.0000771  0.4184000  2
    109    260    251    242     1  0.0000000  1.6024720  3
    112    289    280    271     1  180.0000771  0.4184000  2
    112    289    280    271     1  0.0000000  1.6024720  3
    116    117    129    141     1  0.0000000  0.6508444  3
    116    120    132    138     1  0.0000000  0.6508444  3
    116    123    126    135     1  0.0000000  0.6508444  3
    117    116    120    132     1  180.0000771  2.0083200  2
    117    116    120    132     1  0.0000000  1.2552000  3
    117    116    123    126     1  180.0000771  2.0083200  2
    117    116    123    126     1  0.0000000  1.2552000  3
    117    129    141    347     1  0.0000000  0.6508444  3
    120    116    117    129     1  180.0000771  2.0083200  2
    120    116    117    129     1  0.0000000  1.2552000  3
    120    116    123    126     1  180.0000771  2.0083200  2
    120    116    123    126     1  0.0000000  1.2552000  3
    120    132    138    318     1  0.0000000  0.6508444  3
    123    116    117    129     1  180.0000771  2.0083200  2
    123    116    117    129     1  0.0000000  1.2552000  3
    123    116    120    132     1  180.0000771  2.0083200  2
    123    116    120    132     1  0.0000000  1.2552000  3
    123    126    135    144     1  0.0000000  0.6508444  3
    129    141    347    338     1  180.0000771  0.4184000  2
    129    141    347    338     1  0.0000000  1.6024720  3
    132    138    318    309     1  180.0000771  0.4184000  2
    132    138    318    309     1  0.0000000  1.6024720  3
    138    318    309    300     1  180.0000771  0.4184000  2
    138    318    309    300     1  0.0000000  1.6024720  3
    141    347    338    329     1  180.0000771  0.4184000  2
    141    347    338    329     1  0.0000000  1.6024720  3
    145    146    158    170     1  0.0000000  0.6508444  3
    145    149    161    167     1  0.0000000  0.6508444  3
    145    152    155    164     1  0.0000000  0.6508444  3
    146    145    149    161     1  180.0000771  2.0083200  2
    146    145    149    161     1  0.0000000  1.2552000  3
    146    145    152    155     1  180.0000771  2.0083200  2
    146    145    152    155     1  0.0000000  1.2552000  3
    146    158    170    405     1  0.0000000  0.6508444  3
    149    145    146    158     1  180.0000771  2.0083200  2
    149    145    146    158     1  0.0000000  1.2552000  3
    149    145    152    155     1  180.0000771  2.0083200  2
    149    145    152    155     1  0.0000000  1.2552000  3
    149    161    167    376     1  0.0000000  0.6508444  3
    152    145    146    158     1  180.0000771  2.0083200  2
    152    145    146    158     1  0.0000000  1.2552000  3
    152    145    149    161     1  180.0000771  2.0083200  2
    152    145    149    161     1  0.0000000  1.2552000  3
    152    155    164    173     1  0.0000000  0.6508444  3
    158    170    405    396     1  180.0000771  0.4184000  2
    158    170    405    396     1  0.0000000  1.6024720  3
    161    167    376    367     1  180.0000771  0.4184000  2
    161    167    376    367     1  0.0000000  1.6024720  3
    167    376    367    358     1  180.0000771  0.4184000  2
    167    376    367    358     1  0.0000000  1.6024720  3
    170    405    396    387     1  180.0000771  0.4184000  2
    170    405    396    387     1  0.0000000  1.6024720  3
    174    175    187    199     1  0.0000000  0.6508444  3
    174    178    190    196     1  0.0000000  0.6508444  3
    174    181    184    193     1  0.0000000  0.6508444  3
    175    174    178    190     1  180.0000771  2.0083200  2
    175    174    178    190     1  0.0000000  1.2552000  3
    175    174    181    184     1  180.0000771  2.0083200  2
    175    174    181    184     1  0.0000000  1.2552000  3
    175    187    199    463     1  0.0000000  0.6508444  3
    178    174    175    187     1  180.0000771  2.0083200  2
    178    174    175    187     1  0.0000000  1.2552000  3
    178    174    181    184     1  180.0000771  2.0083200  2
    178    174    181    184     1  0.0000000  1.2552000  3
    178    190    196    434     1  0.0000000  0.6508444  3
    181    174    175    187     1  180.0000771  2.0083200  2
    181    174    175    187     1  0.0000000  1.2552000  3
    181    174    178    190     1  180.0000771  2.0083200  2
    181    174    178    190     1  0.0000000  1.2552000  3
    181    184    193    202     1  0.0000000  0.6508444  3
    187    199    463    454     1  180.0000771  0.4184000  2
    187    199    463    454     1  0.0000000  1.6024720  3
    190    196    434    425     1  180.0000771  0.4184000  2
    190    196    434    425     1  0.0000000  1.6024720  3
    196    434    425    416     1  180.0000771  0.4184000  2
    196    434    425    416     1  0.0000000  1.6024720  3
    199    463    454    445     1  180.0000771  0.4184000  2
    199    463    454    445     1  0.0000000  1.6024720  3
    203    204    216    228     1  0.0000000  0.6508444  3
    203    207    219    225     1  0.0000000  0.6508444  3
    203    210    213    222     1  0.0000000  0.6508444  3
    204    203    207    219     1  180.0000771  2.0083200  2
    204    203    207    219     1  0.0000000  1.2552000  3
    204    203    210    213     1  180.0000771  2.0083200  2
    204    203    210    213     1  0.0000000  1.2552000  3
    204    216    228    521     1  0.0000000  0.6508444  3
    207    203    204    216     1  180.0000771  2.0083200  2
    207    203    204    216     1  0.0000000  1.2552000  3
    207    203    210    213     1  180.0000771  2.0083200  2
    207    203    210    213     1  0.0000000  1.2552000  3
    207    219    225    492     1  0.0000000  0.6508444  3
    210    203    204    216     1  180.0000771  2.0083200  2
    210    203    204    216     1  0.0000000  1.2552000  3
    210    203    207    219     1  180.0000771  2.0083200  2
    210    203    207    219     1  0.0000000  1.2552000  3
    210    213    222    231     1  0.0000000  0.6508444  3
    216    228    521    512     1  180.0000771  0.4184000  2
    216    228    521    512     1  0.0000000  1.6024720  3
    219    225    492    483     1  180.0000771  0.4184000  2
    219    225    492    483     1  0.0000000  1.6024720  3
    225    492    483    474     1  180.0000771  0.4184000  2
    225    492    483    474     1  0.0000000  1.6024720  3
    228    521    512    503     1  180.0000771  0.4184000  2
    228    521    512    503     1  0.0000000  1.6024720  3
    232    233    245    257     1  0.0000000  0.6508444  3
    232    236    248    254     1  0.0000000  0.6508444  3
    232    239    242    251     1  0.0000000  0.6508444  3
    233    232    236    248     1  180.0000771  2.0083200  2
    233    232    236    248     1  0.0000000  1.2552000  3
    233    232    239    242     1  180.0000771  2.0083200  2
    233    232    239    242     1  0.0000000  1.2552000  3
    233    245    257    579     1  0.0000000  0.6508444  3
    236    232    233    245     1  180.0000771  2.0083200  2
    236    232    233    245     1  0.0000000  1.2552000  3
    236    232    239    242     1  180.0000771  2.0083200  2
    236    232    239    242     1  0.0000000  1.2552000  3
    236    248    254    550     1  0.0000000  0.6508444  3
    239    232    233    245     1  180.0000771  2.0083200  2
    239    232    233    245     1  0.0000000  1.2552000  3
    239    232    236    248     1  180.0000771  2.0083200  2
    239    232    236    248     1  0.0000000  1.2552000  3
    239    242    251    260     1  0.0000000  0.6508444  3
    245    257    579    570     1  180.0000771  0.4184000  2
    245    257    579    570     1  0.0000000  1.6024720  3
    248    254    550    541     1  180.0000771  0.4184000  2
    248    254    550    541     1  0.0000000  1.6024720  3
    254    550    541    532     1  180.0000771  0.4184000  2
    254    550    541    532     1  0.0000000  1.6024720  3
    257    579    570    561     1  180.0000771  0.4184000  2
    257    579    570    561     1  0.0000000  1.6024720  3
    261    262    274    286     1  0.0000000  0.6508444  3
    261    265    277    283     1  0.0000000  0.6508444  3
    261    268    271    280     1  0.0000000  0.6508444  3
    262    261    265    277     1  180.0000771  2.0083200  2
    262    261    265    277     1  0.0000000  1.2552000  3
    262    261    268    271     1  180.0000771  2.0083200  2
    262    261    268    271     1  0.0000000  1.2552000  3
    262    274    286    637     1  0.0000000  0.6508444  3
    265    261    262    274     1  180.0000771  2.0083200  2
    265    261    262    274     1  0.0000000  1.2552000  3
    265    261    268    271     1  180.0000771  2.0083200  2
    265    261    268    271     1  0.0000000  1.2552000  3
    265    277    283    608     1  0.0000000  0.6508444  3
    268    261    262    274     1  180.0000771  2.0083200  2
    268    261    262    274     1  0.0000000  1.2552000  3
    268    261    265    277     1  180.0000771  2.0083200  2
    268    261    265    277     1  0.0000000  1.2552000  3
    268    271    280    289     1  0.0000000  0.6508444  3
    274    286    637    628     1  180.0000771  0.4184000  2
    274    286    637    628     1  0.0000000  1.6024720  3
    277    283    608    599     1  180.0000771  0.4184000  2
    277    283    608    599     1  0.0000000  1.6024720  3
    283    608    599    590     1  180.0000771  0.4184000  2
    283    608    599    590     1  0.0000000  1.6024720  3
    286    637    628    619     1  180.0000771  0.4184000  2
    286    637    628    619     1  0.0000000  1.6024720  3
    290    291    303    315     1  0.0000000  0.6508444  3
    290    294    306    312     1  0.0000000  0.6508444  3
    290    297    300    309     1  0.0000000  0.6508444  3
    291    290    294    306     1  180.0000771  2.0083200  2
    291    290    294    306     1  0.0000000  1.2552000  3
    291    290    297    300     1  180.0000771  2.0083200  2
    291    290    297    300     1  0.0000000  1.2552000  3
    291    303    315    695     1  0.0000000  0.6508444  3
    294    290    291    303     1  180.0000771  2.0083200  2
    294    290    291    303     1  0.0000000  1.2552000  3
    294    290    297    300     1  180.0000771  2.0083200  2
    294    290    297    300     1  0.0000000  1.2552000  3
    294    306    312    666     1  0.0000000  0.6508444  3
    297    290    291    303     1  180.0000771  2.0083200  2
    297    290    291    303     1  0.0000000  1.2552000  3
    297    290    294    306     1  180.0000771  2.0083200  2
    297    290    294    306     1  0.0000000  1.2552000  3
    297    300    309    318     1  0.0000000  0.6508444  3
    303    315    695    686     1  180.0000771  0.4184000  2
    303    315    695    686     1  0.0000000  1.6024720  3
    306    312    666    657     1  180.0000771  0.4184000  2
    306    312    666    657     1  0.0000000  1.6024720  3
    312    666    657    648     1  180.0000771  0.4184000  2
    312    666    657    648     1  0.0000000  1.6024720  3
    315    695    686    677     1  180.0000771  0.4184000  2
    315    695    686    677     1  0.0000000  1.6024720  3
    319    320    332    344     1  0.0000000  0.6508444  3
    319    323    335    341     1  0.0000000  0.6508444  3
    319    326    329    338     1  0.0000000  0.6508444  3
    320    319    323    335     1  180.0000771  2.0083200  2
    320    319    323    335     1  0.0000000  1.2552000  3
    320    319    326    329     1  180.0000771  2.0083200  2
    320    319    326    329     1  0.0000000  1.2552000  3
    320    332    344    753     1  0.0000000  0.6508444  3
    323    319    320    332     1  180.0000771  2.0083200  2
    323    319    320    332     1  0.0000000  1.2552000  3
    323    319    326    329     1  180.0000771  2.0083200  2
    323    319    326    329     1  0.0000000  1.2552000  3
    323    335    341    724     1  0.0000000  0.6508444  3
    326    319    320    332     1  180.0000771  2.0083200  2
    326    319    320    332     1  0.0000000  1.2552000  3
    326    319    323    335     1  180.0000771  2.0083200  2
    326    319    323    335     1  0.0000000  1.2552000  3
    326    329    338    347     1  0.0000000  0.6508444  3
    332    344    753    744     1  180.0000771  0.4184000  2
    332    344    753    744     1  0.0000000  1.6024720  3
    335    341    724    715     1  180.0000771  0.4184000  2
    335    341    724    715     1  0.0000000  1.6024720  3
    341    724    715    706     1  180.0000771  0.4184000  2
    341    724    715    706     1  0.0000000  1.6024720  3
    344    753    744    735     1  180.0000771  0.4184000  2
    344    753    744    735     1  0.0000000  1.6024720  3
    348    349    361    373     1  0.0000000  0.6508444  3
    348    352    364    370     1  0.0000000  0.6508444  3
    348    355    358    367     1  0.0000000  0.6508444  3
    349    348    352    364     1  180.0000771  2.0083200  2
    349    348    352    364     1  0.0000000  1.2552000  3
    349    348    355    358     1  180.0000771  2.0083200  2
    349    348    355    358     1  0.0000000  1.2552000  3
    349    361    373    811     1  0.0000000  0.6508444  3
    352    348    349    361     1  180.0000771  2.0083200  2
    352    348    349    361     1  0.0000000  1.2552000  3
    352    348    355    358     1  180.0000771  2.0083200  2
    352    348    355    358     1  0.0000000  1.2552000  3
    352    364    370    782     1  0.0000000  0.6508444  3
    355    348    349    361     1  180.0000771  2.0083200  2
    355    348    349    361     1  0.0000000  1.2552000  3
    355    348    352    364     1  180.0000771  2.0083200  2
    355    348    352    364     1  0.0000000  1.2552000  3
    355    358    367    376     1  0.0000000  0.6508444  3
    361    373    811    802     1  180.0000771  0.4184000  2
    361    373    811    802     1  0.0000000  1.6024720  3
    364    370    782    773     1  180.0000771  0.4184000  2
    364    370    782    773     1  0.0000000  1.6024720  3
    370    782    773    764     1  180.0000771  0.4184000  2
    370    782    773    764     1  0.0000000  1.6024720  3
    373    811    802    793     1  180.0000771  0.4184000  2
    373    811    802    793     1  0.0000000  1.6024720  3
    377    378    390    402     1  0.0000000  0.6508444  3
    377    381    393    399     1  0.0000000  0.6508444  3
    377    384    387    396     1  0.0000000  0.6508444  3
    378    377    381    393     1  180.0000771  2.0083200  2
    378    377    381    393     1  0.0000000  1.2552000  3
    378    377    384    387     1  180.0000771  2.0083200  2
    378    377    384    387     1  0.0000000  1.2552000  3
    378    390    402    869     1  0.0000000  0.6508444  3
    381    377    378    390     1  180.0000771  2.0083200  2
    381    377    378    390     1  0.0000000  1.2552000  3
    381    377    384    387     1  180.0000771  2.0083200  2
    381    377    384    387     1  0.0000000  1.2552000  3
    381    393    399    840     1  0.0000000  0.6508444  3
    384    377    378    390     1  180.0000771  2.0083200  2
    384    377    378    390     1  0.0000000  1.2552000  3
    384    377    381    393     1  180.0000771  2.0083200  2
    384    377    381    393     1  0.0000000  1.2552000  3
    384    387    396    405     1  0.0000000  0.6508444  3
    390    402    869    860     1  180.0000771  0.4184000  2
    390    402    869    860     1  0.0000000  1.6024720  3
    393    399    840    831     1  180.0000771  0.4184000  2
    393    399    840    831     1  0.0000000  1.6024720  3
    399    840    831    822     1  180.0000771  0.4184000  2
    399    840    831    822     1  0.0000000  1.6024720  3
    402    869    860    851     1  180.0000771  0.4184000  2
    402    869    860    851     1  0.0000000  1.6024720  3
    406    407    419    431     1  0.0000000  0.6508444  3
    406    410    422    428     1  0.0000000  0.6508444  3
    406    413    416    425     1  0.0000000  0.6508444  3
    407    406    410    422     1  180.0000771  2.0083200  2
    407    406    410    422     1  0.0000000  1.2552000  3
    407    406    413    416     1  180.0000771  2.0083200  2
    407    406    413    416     1  0.0000000  1.2552000  3
    407    419    431    896     1  0.0000000  0.6508444  3
    410    406    407    419     1  180.0000771  2.0083200  2
    410    406    407    419     1  0.0000000  1.2552000  3
    410    406    413    416     1  180.0000771  2.0083200  2
    410    406    413    416     1  0.0000000  1.2552000  3
    410    422    428    882     1  0.0000000  0.6508444  3
    413    406    407    419     1  180.0000771  2.0083200  2
    413    406    407    419     1  0.0000000  1.2552000  3
    413    406    410    422     1  180.0000771  2.0083200  2
    413    406    410    422     1  0.0000000  1.2552000  3
    413    416    425    434     1  0.0000000  0.6508444  3
    419    431    896    890     1  180.0000771  0.4184000  2
    419    431    896    890     1  0.0000000  1.6024720  3
    422    428    882    876     1  180.0000771  0.4184000  2
    422    428    882    876     1  0.0000000  1.6024720  3
    428    882    876    873     1  180.0000771  0.4184000  2
    428    882    876    873     1  0.0000000  1.6024720  3
    431    896    890    887     1  180.0000771  0.4184000  2
    431    896    890    887     1  0.0000000  1.6024720  3
    435    436    448    460     1  0.0000000  0.6508444  3
    435    439    451    457     1  0.0000000  0.6508444  3
    435    442    445    454     1  0.0000000  0.6508444  3
    436    435    439    451     1  180.0000771  2.0083200  2
    436    435    439    451     1  0.0000000  1.2552000  3
    436    435    442    445     1  180.0000771  2.0083200  2
    436    435    442    445     1  0.0000000  1.2552000  3
    436    448    460    924     1  0.0000000  0.6508444  3
    439    435    436    448     1  180.0000771  2.0083200  2
    439    435    436    448     1  0.0000000  1.2552000  3
    439    435    442    445     1  180.0000771  2.0083200  2
    439    435    442    445     1  0.0000000  1.2552000  3
    439    451    457    910     1  0.0000000  0.6508444  3
    442    435    436    448     1  180.0000771  2.0083200  2
    442    435    436    448     1  0.0000000  1.2552000  3
    442    435    439    451     1  180.0000771  2.0083200  2
    442    435    439    451     1  0.0000000  1.2552000  3
    442    445    454    463     1  0.0000000  0.6508444  3
    448    460    924    918     1  180.0000771  0.4184000  2
    448    460    924    918     1  0.0000000  1.6024720  3
    451    457    910    904     1  180.0000771  0.4184000  2
    451    457    910    904     1  0.0000000  1.6024720  3
    457    910    904    901     1  180.0000771  0.4184000  2
    457    910    904    901     1  0.0000000  1.6024720  3
    460    924    918    915     1  180.0000771  0.4184000  2
    460    924    918    915     1  0.0000000  1.6024720  3
    464    465    477    489     1  0.0000000  0.6508444  3
    464    468    480    486     1  0.0000000  0.6508444  3
    464    471    474    483     1  0.0000000  0.6508444  3
    465    464    468    480     1  180.0000771  2.0083200  2
    465    464    468    480     1  0.0000000  1.2552000  3
    465    464    471    474     1  180.0000771  2.0083200  2
    465    464    471    474     1  0.0000000  1.2552000  3
    465    477    489    952     1  0.0000000  0.6508444  3
    468    464    465    477     1  180.0000771  2.0083200  2
    468    464    465    477     1  0.0000000  1.2552000  3
    468    464    471    474     1  180.0000771  2.0083200  2
    468    464    471    474     1  0.0000000  1.2552000  3
    468    480    486    938     1  0.0000000  0.6508444  3
    471    464    465    477     1  180.0000771  2.0083200  2
    471    464    465    477     1  0.0000000  1.2552000  3
    471    464    468    480     1  180.0000771  2.0083200  2
    471    464    468    480     1  0.0000000  1.2552000  3
    471    474    483    492     1  0.0000000  0.6508444  3
    477    489    952    946     1  180.0000771  0.4184000  2
    477    489    952    946     1  0.0000000  1.6024720  3
    480    486    938    932     1  180.0000771  0.4184000  2
    480    486    938    932     1  0.0000000  1.6024720  3
    486    938    932    929     1  180.0000771  0.4184000  2
    486    938    932    929     1  0.0000000  1.6024720  3
    489    952    946    943     1  180.0000771  0.4184000  2
    489    952    946    943     1  0.0000000  1.6024720  3
    493    494    506    518     1  0.0000000  0.6508444  3
    493    497    509    515     1  0.0000000  0.6508444  3
    493    500    503    512     1  0.0000000  0.6508444  3
    494    493    497    509     1  180.0000771  2.0083200  2
    494    493    497    509     1  0.0000000  1.2552000  3
    494    493    500    503     1  180.0000771  2.0083200  2
    494    493    500    503     1  0.0000000  1.2552000  3
    494    506    518    980     1  0.0000000  0.6508444  3
    497    493    494    506     1  180.0000771  2.0083200  2
    497    493    494    506     1  0.0000000  1.2552000  3
    497    493    500    503     1  180.0000771  2.0083200  2
    497    493    500    503     1  0.0000000  1.2552000  3
    497    509    515    966     1  0.0000000  0.6508444  3
    500    493    494    506     1  180.0000771  2.0083200  2
    500    493    494    506     1  0.0000000  1.2552000  3
    500    493    497    509     1  180.0000771  2.0083200  2
    500    493    497    509     1  0.0000000  1.2552000  3
    500    503    512    521     1  0.0000000  0.6508444  3
    506    518    980    974     1  180.0000771  0.4184000  2
    506    518    980    974     1  0.0000000  1.6024720  3
    509    515    966    960     1  180.0000771  0.4184000  2
    509    515    966    960     1  0.0000000  1.6024720  3
    515    966    960    957     1  180.0000771  0.4184000  2
    515    966    960    957     1  0.0000000  1.6024720  3
    518    980    974    971     1  180.0000771  0.4184000  2
    518    980    974    971     1  0.0000000  1.6024720  3
    522    523    535    547     1  0.0000000  0.6508444  3
    522    526    538    544     1  0.0000000  0.6508444  3
    522    529    532    541     1  0.0000000  0.6508444  3
    523    522    526    538     1  180.0000771  2.0083200  2
    523    522    526    538     1  0.0000000  1.2552000  3
    523    522    529    532     1  180.0000771  2.0083200  2
    523    522    529    532     1  0.0000000  1.2552000  3
    523    535    547   1008     1  0.0000000  0.6508444  3
    526    522    523    535     1  180.0000771  2.0083200  2
    526    522    523    535     1  0.0000000  1.2552000  3
    526    522    529    532     1  180.0000771  2.0083200  2
    526    522    529    532     1  0.0000000  1.2552000  3
    526    538    544    994     1  0.0000000  0.6508444  3
    529    522    523    535     1  180.0000771  2.0083200  2
    529    522    523    535     1  0.0000000  1.2552000  3
    529    522    526    538     1  180.0000771  2.0083200  2
    529    522    526    538     1  0.0000000  1.2552000  3
    529    532    541    550     1  0.0000000  0.6508444  3
    535    547   1008   1002     1  180.0000771  0.4184000  2
    535    547   1008   1002     1  0.0000000  1.6024720  3
    538    544    994    988     1  180.0000771  0.4184000  2
    538    544    994    988     1  0.0000000  1.6024720  3
    544    994    988    985     1  180.0000771  0.4184000  2
    544    994    988    985     1  0.0000000  1.6024720  3
    547   1008   1002    999     1  180.0000771  0.4184000  2
    547   1008   1002    999     1  0.0000000  1.6024720  3
    551    552    564    576     1  0.0000000  0.6508444  3
    551    555    567    573     1  0.0000000  0.6508444  3
    551    558    561    570     1  0.0000000  0.6508444  3
    552    551    555    567     1  180.0000771  2.0083200  2
    552    551    555    567     1  0.0000000  1.2552000  3
    552    551    558    561     1  180.0000771  2.0083200  2
    552    551    558    561     1  0.0000000  1.2552000  3
    552    564    576   1036     1  0.0000000  0.6508444  3
    555    551    552    564     1  180.0000771  2.0083200  2
    555    551    552    564     1  0.0000000  1.2552000  3
    555    551    558    561     1  180.0000771  2.0083200  2
    555    551    558    561     1  0.0000000  1.2552000  3
    555    567    573   1022     1  0.0000000  0.6508444  3
    558    551    552    564     1  180.0000771  2.0083200  2
    558    551    552    564     1  0.0000000  1.2552000  3
    558    551    555    567     1  180.0000771  2.0083200  2
    558    551    555    567     1  0.0000000  1.2552000  3
    558    561    570    579     1  0.0000000  0.6508444  3
    564    576   1036   1030     1  180.0000771  0.4184000  2
    564    576   1036   1030     1  0.0000000  1.6024720  3
    567    573   1022   1016     1  180.0000771  0.4184000  2
    567    573   1022   1016     1  0.0000000  1.6024720  3
    573   1022   1016   1013     1  180.0000771  0.4184000  2
    573   1022   1016   1013     1  0.0000000  1.6024720  3
    576   1036   1030   1027     1  180.0000771  0.4184000  2
    576   1036   1030   1027     1  0.0000000  1.6024720  3
    580    581    593    605     1  0.0000000  0.6508444  3
    580    584    596    602     1  0.0000000  0.6508444  3
    580    587    590    599     1  0.0000000  0.6508444  3
    581    580    584    596     1  180.0000771  2.0083200  2
    581    580    584    596     1  0.0000000  1.2552000  3
    581    580    587    590     1  180.0000771  2.0083200  2
    581    580    587    590     1  0.0000000  1.2552000  3
    581    593    605   1064     1  0.0000000  0.6508444  3
    584    580    581    593     1  180.0000771  2.0083200  2
    584    580    581    593     1  0.0000000  1.2552000  3
    584    580    587    590     1  180.0000771  2.0083200  2
    584    580    587    590     1  0.0000000  1.2552000  3
    584    596    602   1050     1  0.0000000  0.6508444  3
    587    580    581    593     1  180.0000771  2.0083200  2
    587    580    581    593     1  0.0000000  1.2552000  3
    587    580    584    596     1  180.0000771  2.0083200  2
    587    580    584    596     1  0.0000000  1.2552000  3
    587    590    599    608     1  0.0000000  0.6508444  3
    593    605   1064   1058     1  180.0000771  0.4184000  2
    593    605   1064   1058     1  0.0000000  1.6024720  3
    596    602   1050   1044     1  180.0000771  0.4184000  2
    596    602   1050   1044     1  0.0000000  1.6024720  3
    602   1050   1044   1041     1  180.0000771  0.4184000  2
    602   1050   1044   1041     1  0.0000000  1.6024720  3
    605   1064   1058   1055     1  180.0000771  0.4184000  2
    605   1064   1058   1055     1  0.0000000  1.6024720  3
    609    610    622    634     1  0.0000000  0.6508444  3
    609    613    625    631     1  0.0000000  0.6508444  3
    609    616    619    628     1  0.0000000  0.6508444  3
    610    609    613    625     1  180.0000771  2.0083200  2
    610    609    613    625     1  0.0000000  1.2552000  3
    610    609    616    619     1  180.0000771  2.0083200  2
    610    609    616    619     1  0.0000000  1.2552000  3
    610    622    634   1092     1  0.0000000  0.6508444  3
    613    609    610    622     1  180.0000771  2.0083200  2
    613    609    610    622     1  0.0000000  1.2552000  3
    613    609    616    619     1  180.0000771  2.0083200  2
    613    609    616    619     1  0.0000000  1.2552000  3
    613    625    631   1078     1  0.0000000  0.6508444  3
    616    609    610    622     1  180.0000771  2.0083200  2
    616    609    610    622     1  0.0000000  1.2552000  3
    616    609    613    625     1  180.0000771  2.0083200  2
    616    609    613    625     1  0.0000000  1.2552000  3
    616    619    628    637     1  0.0000000  0.6508444  3
    622    634   1092   1086     1  180.0000771  0.4184000  2
    622    634   1092   1086     1  0.0000000  1.6024720  3
    625    631   1078   1072     1  180.0000771  0.4184000  2
    625    631   1078   1072     1  0.0000000  1.6024720  3
    631   1078   1072   1069     1  180.0000771  0.4184000  2
    631   1078   1072   1069     1  0.0000000  1.6024720  3
    634   1092   1086   1083     1  180.0000771  0.4184000  2
    634   1092   1086   1083     1  0.0000000  1.6024720  3
    638    639    651    663     1  0.0000000  0.6508444  3
    638    642    654    660     1  0.0000000  0.6508444  3
    638    645    648    657     1  0.0000000  0.6508444  3
    639    638    642    654     1  180.0000771  2.0083200  2
    639    638    642    654     1  0.0000000  1.2552000  3
    639    638    645    648     1  180.0000771  2.0083200  2
    639    638    645    648     1  0.0000000  1.2552000  3
    639    651    663   1120     1  0.0000000  0.6508444  3
    642    638    639    651     1  180.0000771  2.0083200  2
    642    638    639    651     1  0.0000000  1.2552000  3
    642    638    645    648     1  180.0000771  2.0083200  2
    642    638    645    648     1  0.0000000  1.2552000  3
    642    654    660   1106     1  0.0000000  0.6508444  3
    645    638    639    651     1  180.0000771  2.0083200  2
    645    638    639    651     1  0.0000000  1.2552000  3
    645    638    642    654     1  180.0000771  2.0083200  2
    645    638    642    654     1  0.0000000  1.2552000  3
    645    648    657    666     1  0.0000000  0.6508444  3
    651    663   1120   1114     1  180.0000771  0.4184000  2
    651    663   1120   1114     1  0.0000000  1.6024720  3
    654    660   1106   1100     1  180.0000771  0.4184000  2
    654    660   1106   1100     1  0.0000000  1.6024720  3
    660   1106   1100   1097     1  180.0000771  0.4184000  2
    660   1106   1100   1097     1  0.0000000  1.6024720  3
    663   1120   1114   1111     1  180.0000771  0.4184000  2
    663   1120   1114   1111     1  0.0000000  1.6024720  3
    667    668    680    692     1  0.0000000  0.6508444  3
    667    671    683    689     1  0.0000000  0.6508444  3
    667    674    677    686     1  0.0000000  0.6508444  3
    668    667    671    683     1  180.0000771  2.0083200  2
    668    667    671    683     1  0.0000000  1.2552000  3
    668    667    674    677     1  180.0000771  2.0083200  2
    668    667    674    677     1  0.0000000  1.2552000  3
    668    680    692   1148     1  0.0000000  0.6508444  3
    671    667    668    680     1  180.0000771  2.0083200  2
    671    667    668    680     1  0.0000000  1.2552000  3
    671    667    674    677     1  180.0000771  2.0083200  2
    671    667    674    677     1  0.0000000  1.2552000  3
    671    683    689   1134     1  0.0000000  0.6508444  3
    674    667    668    680     1  180.0000771  2.0083200  2
    674    667    668    680     1  0.0000000  1.2552000  3
    674    667    671    683     1  180.0000771  2.0083200  2
    674    667    671    683     1  0.0000000  1.2552000  3
    674    677    686    695     1  0.0000000  0.6508444  3
    680    692   1148   1142     1  180.0000771  0.4184000  2
    680    692   1148   1142     1  0.0000000  1.6024720  3
    683    689   1134   1128     1  180.0000771  0.4184000  2
    683    689   1134   1128     1  0.0000000  1.6024720  3
    689   1134   1128   1125     1  180.0000771  0.4184000  2
    689   1134   1128   1125     1  0.0000000  1.6024720  3
    692   1148   1142   1139     1  180.0000771  0.4184000  2
    692   1148   1142   1139     1  0.0000000  1.6024720  3
    696    697    709    721     1  0.0000000  0.6508444  3
    696    700    712    718     1  0.0000000  0.6508444  3
    696    703    706    715     1  0.0000000  0.6508444  3
    697    696    700    712     1  180.0000771  2.0083200  2
    697    696    700    712     1  0.0000000  1.2552000  3
    697    696    703    706     1  180.0000771  2.0083200  2
    697    696    703    706     1  0.0000000  1.2552000  3
    697    709    721   1176     1  0.0000000  0.6508444  3
    700    696    697    709     1  180.0000771  2.0083200  2
    700    696    697    709     1  0.0000000  1.2552000  3
    700    696    703    706     1  180.0000771  2.0083200  2
    700    696    703    706     1  0.0000000  1.2552000  3
    700    712    718   1162     1  0.0000000  0.6508444  3
    703    696    697    709     1  180.0000771  2.0083200  2
    703    696    697    709     1  0.0000000  1.2552000  3
    703    696    700    712     1  180.0000771  2.0083200  2
    703    696    700    712     1  0.0000000  1.2552000  3
    703    706    715    724     1  0.0000000  0.6508444  3
    709    721   1176   1170     1  180.0000771  0.4184000  2
    709    721   1176   1170     1  0.0000000  1.6024720  3
    712    718   1162   1156     1  180.0000771  0.4184000  2
    712    718   1162   1156     1  0.0000000  1.6024720  3
    718   1162   1156   1153     1  180.0000771  0.4184000  2
    718   1162   1156   1153     1  0.0000000  1.6024720  3
    721   1176   1170   1167     1  180.0000771  0.4184000  2
    721   1176   1170   1167     1  0.0000000  1.6024720  3
    725    726    738    750     1  0.0000000  0.6508444  3
    725    729    741    747     1  0.0000000  0.6508444  3
    725    732    735    744     1  0.0000000  0.6508444  3
    726    725    729    741     1  180.0000771  2.0083200  2
    726    725    729    741     1  0.0000000  1.2552000  3
    726    725    732    735     1  180.0000771  2.0083200  2
    726    725    732    735     1  0.0000000  1.2552000  3
    726    738    750   1204     1  0.0000000  0.6508444  3
    729    725    726    738     1  180.0000771  2.0083200  2
    729    725    726    738     1  0.0000000  1.2552000  3
    729    725    732    735     1  180.0000771  2.0083200  2
    729    725    732    735     1  0.0000000  1.2552000  3
    729    741    747   1190     1  0.0000000  0.6508444  3
    732    725    726    738     1  180.0000771  2.0083200  2
    732    725    726    738     1  0.0000000  1.2552000  3
    732    725    729    741     1  180.0000771  2.0083200  2
    732    725    729    741     1  0.0000000  1.2552000  3
    732    735    744    753     1  0.0000000  0.6508444  3
    738    750   1204   1198     1  180.0000771  0.4184000  2
    738    750   1204   1198     1  0.0000000  1.6024720  3
    741    747   1190   1184     1  180.0000771  0.4184000  2
    741    747   1190   1184     1  0.0000000  1.6024720  3
    747   1190   1184   1181     1  180.0000771  0.4184000  2
    747   1190   1184   1181     1  0.0000000  1.6024720  3
    750   1204   1198   1195     1  180.0000771  0.4184000  2
    750   1204   1198   1195     1  0.0000000  1.6024720  3
    754    755    767    779     1  0.0000000  0.6508444  3
    754    758    770    776     1  0.0000000  0.6508444  3
    754    761    764    773     1  0.0000000  0.6508444  3
    755    754    758    770     1  180.0000771  2.0083200  2
    755    754    758    770     1  0.0000000  1.2552000  3
    755    754    761    764     1  180.0000771  2.0083200  2
    755    754    761    764     1  0.0000000  1.2552000  3
    755    767    779   1232     1  0.0000000  0.6508444  3
    758    754    755    767     1  180.0000771  2.0083200  2
    758    754    755    767     1  0.0000000  1.2552000  3
    758    754    761    764     1  180.0000771  2.0083200  2
    758    754    761    764     1  0.0000000  1.2552000  3
    758    770    776   1218     1  0.0000000  0.6508444  3
    761    754    755    767     1  180.0000771  2.0083200  2
    761    754    755    767     1  0.0000000  1.2552000  3
    761    754    758    770     1  180.0000771  2.0083200  2
    761    754    758    770     1  0.0000000  1.2552000  3
    761    764    773    782     1  0.0000000  0.6508444  3
    767    779   1232   1226     1  180.0000771  0.4184000  2
    767    779   1232   1226     1  0.0000000  1.6024720  3
    770    776   1218   1212     1  180.0000771  0.4184000  2
    770    776   1218   1212     1  0.0000000  1.6024720  3
    776   1218   1212   1209     1  180.0000771  0.4184000  2
    776   1218   1212   1209     1  0.0000000  1.6024720  3
    779   1232   1226   1223     1  180.0000771  0.4184000  2
    779   1232   1226   1223     1  0.0000000  1.6024720  3
    783    784    796    808     1  0.0000000  0.6508444  3
    783    787    799    805     1  0.0000000  0.6508444  3
    783    790    793    802     1  0.0000000  0.6508444  3
    784    783    787    799     1  180.0000771  2.0083200  2
    784    783    787    799     1  0.0000000  1.2552000  3
    784    783    790    793     1  180.0000771  2.0083200  2
    784    783    790    793     1  0.0000000  1.2552000  3
    784    796    808   1260     1  0.0000000  0.6508444  3
    787    783    784    796     1  180.0000771  2.0083200  2
    787    783    784    796     1  0.0000000  1.2552000  3
    787    783    790    793     1  180.0000771  2.0083200  2
    787    783    790    793     1  0.0000000  1.2552000  3
    787    799    805   1246     1  0.0000000  0.6508444  3
    790    783    784    796     1  180.0000771  2.0083200  2
    790    783    784    796     1  0.0000000  1.2552000  3
    790    783    787    799     1  180.0000771  2.0083200  2
    790    783    787    799     1  0.0000000  1.2552000  3
    790    793    802    811     1  0.0000000  0.6508444  3
    796    808   1260   1254     1  180.0000771  0.4184000  2
    796    808   1260   1254     1  0.0000000  1.6024720  3
    799    805   1246   1240     1  180.0000771  0.4184000  2
    799    805   1246   1240     1  0.0000000  1.6024720  3
    805   1246   1240   1237     1  180.0000771  0.4184000  2
    805   1246   1240   1237     1  0.0000000  1.6024720  3
    808   1260   1254   1251     1  180.0000771  0.4184000  2
    808   1260   1254   1251     1  0.0000000  1.6024720  3
    812    813    825    837     1  0.0000000  0.6508444  3
    812    816    828    834     1  0.0000000  0.6508444  3
    812    819    822    831     1  0.0000000  0.6508444  3
    813    812    816    828     1  180.0000771  2.0083200  2
    813    812    816    828     1  0.0000000  1.2552000  3
    813    812    819    822     1  180.0000771  2.0083200  2
    813    812    819    822     1  0.0000000  1.2552000  3
    813    825    837   1288     1  0.0000000  0.6508444  3
    816    812    813    825     1  180.0000771  2.0083200  2
    816    812    813    825     1  0.0000000  1.2552000  3
    816    812    819    822     1  180.0000771  2.0083200  2
    816    812    819    822     1  0.0000000  1.2552000  3
    816    828    834   1274     1  0.0000000  0.6508444  3
    819    812    813    825     1  180.0000771  2.0083200  2
    819    812    813    825     1  0.0000000  1.2552000  3
    819    812    816    828     1  180.0000771  2.0083200  2
    819    812    816    828     1  0.0000000  1.2552000  3
    819    822    831    840     1  0.0000000  0.6508444  3
    825    837   1288   1282     1  180.0000771  0.4184000  2
    825    837   1288   1282     1  0.0000000  1.6024720  3
    828    834   1274   1268     1  180.0000771  0.4184000  2
    828    834   1274   1268     1  0.0000000  1.6024720  3
    834   1274   1268   1265     1  180.0000771  0.4184000  2
    834   1274   1268   1265     1  0.0000000  1.6024720  3
    837   1288   1282   1279     1  180.0000771  0.4184000  2
    837   1288   1282   1279     1  0.0000000  1.6024720  3
    841    842    854    866     1  0.0000000  0.6508444  3
    841    845    857    863     1  0.0000000  0.6508444  3
    841    848    851    860     1  0.0000000  0.6508444  3
    842    841    845    857     1  180.0000771  2.0083200  2
    842    841    845    857     1  0.0000000  1.2552000  3
    842    841    848    851     1  180.0000771  2.0083200  2
    842    841    848    851     1  0.0000000  1.2552000  3
    842    854    866   1316     1  0.0000000  0.6508444  3
    845    841    842    854     1  180.0000771  2.0083200  2
    845    841    842    854     1  0.0000000  1.2552000  3
    845    841    848    851     1  180.0000771  2.0083200  2
    845    841    848    851     1  0.0000000  1.2552000  3
    845    857    863   1302     1  0.0000000  0.6508444  3
    848    841    842    854     1  180.0000771  2.0083200  2
    848    841    842    854     1  0.0000000  1.2552000  3
    848    841    845    857     1  180.0000771  2.0083200  2
    848    841    845    857     1  0.0000000  1.2552000  3
    848    851    860    869     1  0.0000000  0.6508444  3
    854    866   1316   1310     1  180.0000771  0.4184000  2
    854    866   1316   1310     1  0.0000000  1.6024720  3
    857    863   1302   1296     1  180.0000771  0.4184000  2
    857    863   1302   1296     1  0.0000000  1.6024720  3
    863   1302   1296   1293     1  180.0000771  0.4184000  2
    863   1302   1296   1293     1  0.0000000  1.6024720  3
    866   1316   1310   1307     1  180.0000771  0.4184000  2
    866   1316   1310   1307     1  0.0000000  1.6024720  3
    870    873    876    882     1  0.0000000  0.6508444  3
    876    873    870    879     1  0.0000000  0.6508444  3
    884    887    890    896     1  0.0000000  0.6508444  3
    890    887    884    893     1  0.0000000  0.6508444  3
    898    901    904    910     1  0.0000000  0.6508444  3
    904    901    898    907     1  0.0000000  0.6508444  3
    912    915    918    924     1  0.0000000  0.6508444  3
    918    915    912    921     1  0.0000000  0.6508444  3
    926    929    932    938     1  0.0000000  0.6508444  3
    932    929    926    935     1  0.0000000  0.6508444  3
    940    943    946    952     1  0.0000000  0.6508444  3
    946    943    940    949     1  0.0000000  0.6508444  3
    954    957    960    966     1  0.0000000  0.6508444  3
    960    957    954    963     1  0.0000000  0.6508444  3
    968    971    974    980     1  0.0000000  0.6508444  3
    974    971    968    977     1  0.0000000  0.6508444  3
    982    985    988    994     1  0.0000000  0.6508444  3
    988    985    982    991     1  0.0000000  0.6508444  3
    996    999   1002   1008     1  0.0000000  0.6508444  3
   1002    999    996   1005     1  0.0000000  0.6508444  3
   1010   1013   1016   1022     1  0.0000000  0.6508444  3
   1016   1013   1010   1019     1  0.0000000  0.6508444  3
   1024   1027   1030   1036     1  0.0000000  0.6508444  3
   1030   1027   1024   1033     1  0.0000000  0.6508444  3
   1038   1041   1044   1050     1  0.0000000  0.6508444  3
   1044   1041   1038   1047     1  0.0000000  0.6508444  3
   1052   1055   1058   1064     1  0.0000000  0.6508444  3
   1058   1055   1052   1061     1  0.0000000  0.6508444  3
   1066   1069   1072   1078     1  0.0000000  0.6508444  3
   1072   1069   1066   1075     1  0.0000000  0.6508444  3
   1080   1083   1086   1092     1  0.0000000  0.6508444  3
   1086   1083   1080   1089     1  0.0000000  0.6508444  3
   1094   1097   1100   1106     1  0.0000000  0.6508444  3
   1100   1097   1094   1103     1  0.0000000  0.6508444  3
   1108   1111   1114   1120     1  0.0000000  0.6508444  3
   1114   1111   1108   1117     1  0.0000000  0.6508444  3
   1122   1125   1128   1134     1  0.0000000  0.6508444  3
   1128   1125   1122   1131     1  0.0000000  0.6508444  3
   1136   1139   1142   1148     1  0.0000000  0.6508444  3
   1142   1139   1136   1145     1  0.0000000  0.6508444  3
   1150   1153   1156   1162     1  0.0000000  0.6508444  3
   1156   1153   1150   1159     1  0.0000000  0.6508444  3
   1164   1167   1170   1176     1  0.0000000  0.6508444  3
   1170   1167   1164   1173     1  0.0000000  0.6508444  3
   1178   1181   1184   1190     1  0.0000000  0.6508444  3
   1184   1181   1178   1187     1  0.0000000  0.6508444  3
   1192   1195   1198   1204     1  0.0000000  0.6508444  3
   1198   1195   1192   1201     1  0.0000000  0.6508444  3
   1206   1209   1212   1218     1  0.0000000  0.6508444  3
   1212   1209   1206   1215     1  0.0000000  0.6508444  3
   1220   1223   1226   1232     1  0.0000000  0.6508444  3
   1226   1223   1220   1229     1  0.0000000  0.6508444  3
   1234   1237   1240   1246     1  0.0000000  0.6508444  3
   1240   1237   1234   1243     1  0.0000000  0.6508444  3
   1248   1251   1254   1260     1  0.0000000  0.6508444  3
   1254   1251   1248   1257     1  0.0000000  0.6508444  3
   1262   1265   1268   1274     1  0.0000000  0.6508444  3
   1268   1265   1262   1271     1  0.0000000  0.6508444  3
   1276   1279   1282   1288     1  0.0000000  0.6508444  3
   1282   1279   1276   1285     1  0.0000000  0.6508444  3
   1290   1293   1296   1302     1  0.0000000  0.6508444  3
   1296   1293   1290   1299     1  0.0000000  0.6508444  3
   1304   1307   1310   1316     1  0.0000000  0.6508444  3
   1310   1307   1304   1313     1  0.0000000  0.6508444  3
      1      2      8      9     1  0.0000000  1.0460000  1
      1      2      8      9     1  0.0000000  0.0000000  3
      1      2      8     10     1  0.0000000  1.0460000  1
      1      2      8     10     1  0.0000000  0.0000000  3
      1      5     11     12     1  0.0000000  1.0460000  1
      1      5     11     12     1  0.0000000  0.0000000  3
      1      5     11     13     1  0.0000000  1.0460000  1
      1      5     11     13     1  0.0000000  0.0000000  3
      2      1      5      6     1  0.0000000  1.6038667  3
      2      1      5      7     1  0.0000000  1.6038667  3
      2      8     14     15     1  0.0000000  0.6508444  3
      2      8     14     16     1  0.0000000  0.6508444  3
      5      1      2      3     1  0.0000000  1.6038667  3
      3      2      8     14     1  0.0000000  0.6508444  3
      3      2      8      9     1  0.0000000  0.6508444  3
      3      2      8     10     1  0.0000000  0.6508444  3
      5      1      2      4     1  0.0000000  1.6038667  3
      4      2      8     14     1  0.0000000  0.6508444  3
      4      2      8      9     1  0.0000000  0.6508444  3
      4      2      8     10     1  0.0000000  0.6508444  3
      5     11     17     18     1  0.0000000  0.6508444  3
      5     11     17     19     1  0.0000000  0.6508444  3
      6      5     11     17     1  0.0000000  0.6508444  3
      6      5     11     12     1  0.0000000  0.6508444  3
      6      5     11     13     1  0.0000000  0.6508444  3
      7      5     11     17     1  0.0000000  0.6508444  3
      7      5     11     12     1  0.0000000  0.6508444  3
      7      5     11     13     1  0.0000000  0.6508444  3
      9      8     14     20     1  0.0000000  0.6508444  3
      9      8     14     15     1  0.0000000  0.6508444  3
      9      8     14     16     1  0.0000000  0.6508444  3
     10      8     14     20     1  0.0000000  0.6508444  3
     10      8     14     15     1  0.0000000  0.6508444  3
     10      8     14     16     1  0.0000000  0.6508444  3
     12     11     17     21     1  0.0000000  0.6508444  3
     12     11     17     18     1  0.0000000  0.6508444  3
     12     11     17     19     1  0.0000000  0.6508444  3
     13     11     17     21     1  0.0000000  0.6508444  3
     13     11     17     18     1  0.0000000  0.6508444  3
     13     11     17     19     1  0.0000000  0.6508444  3
     14     20     28     29     1  0.0000000  1.2552000  3
     14     20     28     30     1  0.0000000  1.2552000  3
     14     20     31     32     1  0.0000000  1.2552000  3
     14     20     31     33     1  0.0000000  1.2552000  3
     15     14     20     28     1  0.0000000  1.2552000  3
     15     14     20     31     1  0.0000000  1.2552000  3
     16     14     20     28     1  0.0000000  1.2552000  3
     16     14     20     31     1  0.0000000  1.2552000  3
     17     21     22     23     1  0.0000000  1.2552000  3
     17     21     22     24     1  0.0000000  1.2552000  3
     17     21     25     26     1  0.0000000  1.2552000  3
     17     21     25     27     1  0.0000000  1.2552000  3
     18     17     21     22     1  0.0000000  1.2552000  3
     18     17     21     25     1  0.0000000  1.2552000  3
     19     17     21     22     1  0.0000000  1.2552000  3
     19     17     21     25     1  0.0000000  1.2552000  3
     20     28     40     41     1  0.0000000  0.6508444  3
     20     28     40     42     1  0.0000000  0.6508444  3
     20     31     43     44     1  0.0000000  0.6508444  3
     20     31     43     45     1  0.0000000  0.6508444  3
     21     22     34     35     1  0.0000000  0.6508444  3
     21     22     34     36     1  0.0000000  0.6508444  3
     21     25     37     38     1  0.0000000  0.6508444  3
     21     25     37     39     1  0.0000000  0.6508444  3
     22     21     25     26     1  0.0000000  1.2552000  3
     22     21     25     27     1  0.0000000  1.2552000  3
     22     34     55     56     1  0.0000000  0.6508444  3
     22     34     55     57     1  0.0000000  0.6508444  3
     23     22     21     25     1  0.0000000  1.2552000  3
     23     22     34     55     1  0.0000000  0.6508444  3
     23     22     34     35     1  0.0000000  0.6508444  3
     23     22     34     36     1  0.0000000  0.6508444  3
     24     22     21     25     1  0.0000000  1.2552000  3
     24     22     34     55     1  0.0000000  0.6508444  3
     24     22     34     35     1  0.0000000  0.6508444  3
     24     22     34     36     1  0.0000000  0.6508444  3
     25     37     52     53     1  0.0000000  0.6508444  3
     25     37     52     54     1  0.0000000  0.6508444  3
     26     25     37     52     1  0.0000000  0.6508444  3
     26     25     37     38     1  0.0000000  0.6508444  3
     26     25     37     39     1  0.0000000  0.6508444  3
     27     25     37     52     1  0.0000000  0.6508444  3
     27     25     37     38     1  0.0000000  0.6508444  3
     27     25     37     39     1  0.0000000  0.6508444  3
     28     20     31     32     1  0.0000000  1.2552000  3
     28     20     31     33     1  0.0000000  1.2552000  3
     28     40     49     50     1  0.0000000  0.6508444  3
     28     40     49     51     1  0.0000000  0.6508444  3
     29     28     20     31     1  0.0000000  1.2552000  3
     29     28     40     49     1  0.0000000  0.6508444  3
     29     28     40     41     1  0.0000000  0.6508444  3
     29     28     40     42     1  0.0000000  0.6508444  3
     30     28     20     31     1  0.0000000  1.2552000  3
     30     28     40     49     1  0.0000000  0.6508444  3
     30     28     40     41     1  0.0000000  0.6508444  3
     30     28     40     42     1  0.0000000  0.6508444  3
     31     43     46     47     1  0.0000000  0.6508444  3
     31     43     46     48     1  0.0000000  0.6508444  3
     32     31     43     46     1  0.0000000  0.6508444  3
     32     31     43     44     1  0.0000000  0.6508444  3
     32     31     43     45     1  0.0000000  0.6508444  3
     33     31     43     46     1  0.0000000  0.6508444  3
     33     31     43     44     1  0.0000000  0.6508444  3
     33     31     43     45     1  0.0000000  0.6508444  3
     35     34     55    173     1  0.0000000  1.0460000  1
     35     34     55    173     1  0.0000000  0.0000000  3
     35     34     55     56     1  0.0000000  0.6508444  3
     35     34     55     57     1  0.0000000  0.6508444  3
     36     34     55    173     1  0.0000000  1.0460000  1
     36     34     55    173     1  0.0000000  0.0000000  3
     36     34     55     56     1  0.0000000  0.6508444  3
     36     34     55     57     1  0.0000000  0.6508444  3
     38     37     52    144     1  0.0000000  1.0460000  1
     38     37     52    144     1  0.0000000  0.0000000  3
     38     37     52     53     1  0.0000000  0.6508444  3
     38     37     52     54     1  0.0000000  0.6508444  3
     39     37     52    144     1  0.0000000  1.0460000  1
     39     37     52    144     1  0.0000000  0.0000000  3
     39     37     52     53     1  0.0000000  0.6508444  3
     39     37     52     54     1  0.0000000  0.6508444  3
     41     40     49    115     1  0.0000000  1.0460000  1
     41     40     49    115     1  0.0000000  0.0000000  3
     41     40     49     50     1  0.0000000  0.6508444  3
     41     40     49     51     1  0.0000000  0.6508444  3
     42     40     49    115     1  0.0000000  1.0460000  1
     42     40     49    115     1  0.0000000  0.0000000  3
     42     40     49     50     1  0.0000000  0.6508444  3
     42     40     49     51     1  0.0000000  0.6508444  3
     44     43     46     86     1  0.0000000  1.0460000  1
     44     43     46     86     1  0.0000000  0.0000000  3
     44     43     46     47     1  0.0000000  0.6508444  3
     44     43     46     48     1  0.0000000  0.6508444  3
     45     43     46     86     1  0.0000000  1.0460000  1
     45     43     46     86     1  0.0000000  0.0000000  3
     45     43     46     47     1  0.0000000  0.6508444  3
     45     43     46     48     1  0.0000000  0.6508444  3
     46     86     77     78     1  0.0000000  1.6038667  3
     46     86     77     79     1  0.0000000  1.6038667  3
     47     46     86     77     1  0.0000000  1.6038667  3
     48     46     86     77     1  0.0000000  1.6038667  3
     49    115    106    107     1  0.0000000  1.6038667  3
     49    115    106    108     1  0.0000000  1.6038667  3
     50     49    115    106     1  0.0000000  1.6038667  3
     51     49    115    106     1  0.0000000  1.6038667  3
     52    144    135    136     1  0.0000000  1.6038667  3
     52    144    135    137     1  0.0000000  1.6038667  3
     53     52    144    135     1  0.0000000  1.6038667  3
     54     52    144    135     1  0.0000000  1.6038667  3
     55    173    164    165     1  0.0000000  1.6038667  3
     55    173    164    166     1  0.0000000  1.6038667  3
     56     55    173    164     1  0.0000000  1.6038667  3
     57     55    173    164     1  0.0000000  1.6038667  3
     58     59     71     72     1  0.0000000  0.6508444  3
     58     59     71     73     1  0.0000000  0.6508444  3
     58     62     74     75     1  0.0000000  0.6508444  3
     58     62     74     76     1  0.0000000  0.6508444  3
     58     65     68     69     1  0.0000000  0.6508444  3
     58     65     68     70     1  0.0000000  0.6508444  3
     59     58     62     63     1  0.0000000  1.2552000  3
     59     58     62     64     1  0.0000000  1.2552000  3
     59     58     65     66     1  0.0000000  1.2552000  3
     59     58     65     67     1  0.0000000  1.2552000  3
     59     71     83     84     1  0.0000000  0.6508444  3
     59     71     83     85     1  0.0000000  0.6508444  3
     60     59     58     62     1  0.0000000  1.2552000  3
     60     59     58     65     1  0.0000000  1.2552000  3
     60     59     71     83     1  0.0000000  0.6508444  3
     60     59     71     72     1  0.0000000  0.6508444  3
     60     59     71     73     1  0.0000000  0.6508444  3
     61     59     58     62     1  0.0000000  1.2552000  3
     61     59     58     65     1  0.0000000  1.2552000  3
     61     59     71     83     1  0.0000000  0.6508444  3
     61     59     71     72     1  0.0000000  0.6508444  3
     61     59     71     73     1  0.0000000  0.6508444  3
     62     58     65     66     1  0.0000000  1.2552000  3
     62     58     65     67     1  0.0000000  1.2552000  3
     62     74     80     81     1  0.0000000  0.6508444  3
     62     74     80     82     1  0.0000000  0.6508444  3
     63     62     58     65     1  0.0000000  1.2552000  3
     63     62     74     80     1  0.0000000  0.6508444  3
     63     62     74     75     1  0.0000000  0.6508444  3
     63     62     74     76     1  0.0000000  0.6508444  3
     64     62     58     65     1  0.0000000  1.2552000  3
     64     62     74     80     1  0.0000000  0.6508444  3
     64     62     74     75     1  0.0000000  0.6508444  3
     64     62     74     76     1  0.0000000  0.6508444  3
     65     68     77     78     1  0.0000000  0.6508444  3
     65     68     77     79     1  0.0000000  0.6508444  3
     66     65     68     77     1  0.0000000  0.6508444  3
     66     65     68     69     1  0.0000000  0.6508444  3
     66     65     68     70     1  0.0000000  0.6508444  3
     67     65     68     77     1  0.0000000  0.6508444  3
     67     65     68     69     1  0.0000000  0.6508444  3
     67     65     68     70     1  0.0000000  0.6508444  3
     69     68     77     86     1  0.0000000  1.0460000  1
     69     68     77     86     1  0.0000000  0.0000000  3
     69     68     77     78     1  0.0000000  0.6508444  3
     69     68     77     79     1  0.0000000  0.6508444  3
     70     68     77     86     1  0.0000000  1.0460000  1
     70     68     77     86     1  0.0000000  0.0000000  3
     70     68     77     78     1  0.0000000  0.6508444  3
     70     68     77     79     1  0.0000000  0.6508444  3
     72     71     83    231     1  0.0000000  1.0460000  1
     72     71     83    231     1  0.0000000  0.0000000  3
     72     71     83     84     1  0.0000000  0.6508444  3
     72     71     83     85     1  0.0000000  0.6508444  3
     73     71     83    231     1  0.0000000  1.0460000  1
     73     71     83    231     1  0.0000000  0.0000000  3
     73     71     83     84     1  0.0000000  0.6508444  3
     73     71     83     85     1  0.0000000  0.6508444  3
     75     74     80    202     1  0.0000000  1.0460000  1
     75     74     80    202     1  0.0000000  0.0000000  3
     75     74     80     81     1  0.0000000  0.6508444  3
     75     74     80     82     1  0.0000000  0.6508444  3
     76     74     80    202     1  0.0000000  1.0460000  1
     76     74     80    202     1  0.0000000  0.0000000  3
     76     74     80     81     1  0.0000000  0.6508444  3
     76     74     80     82     1  0.0000000  0.6508444  3
     80    202    193    194     1  0.0000000  1.6038667  3
     80    202    193    195     1  0.0000000  1.6038667  3
     81     80    202    193     1  0.0000000  1.6038667  3
     82     80    202    193     1  0.0000000  1.6038667  3
     83    231    222    223     1  0.0000000  1.6038667  3
     83    231    222    224     1  0.0000000  1.6038667  3
     84     83    231    222     1  0.0000000  1.6038667  3
     85     83    231    222     1  0.0000000  1.6038667  3
     87     88    100    101     1  0.0000000  0.6508444  3
     87     88    100    102     1  0.0000000  0.6508444  3
     87     91    103    104     1  0.0000000  0.6508444  3
     87     91    103    105     1  0.0000000  0.6508444  3
     87     94     97     98     1  0.0000000  0.6508444  3
     87     94     97     99     1  0.0000000  0.6508444  3
     88     87     91     92     1  0.0000000  1.2552000  3
     88     87     91     93     1  0.0000000  1.2552000  3
     88     87     94     95     1  0.0000000  1.2552000  3
     88     87     94     96     1  0.0000000  1.2552000  3
     88    100    112    113     1  0.0000000  0.6508444  3
     88    100    112    114     1  0.0000000  0.6508444  3
     89     88     87     91     1  0.0000000  1.2552000  3
     89     88     87     94     1  0.0000000  1.2552000  3
     89     88    100    112     1  0.0000000  0.6508444  3
     89     88    100    101     1  0.0000000  0.6508444  3
     89     88    100    102     1  0.0000000  0.6508444  3
     90     88     87     91     1  0.0000000  1.2552000  3
     90     88     87     94     1  0.0000000  1.2552000  3
     90     88    100    112     1  0.0000000  0.6508444  3
     90     88    100    101     1  0.0000000  0.6508444  3
     90     88    100    102     1  0.0000000  0.6508444  3
     91     87     94     95     1  0.0000000  1.2552000  3
     91     87     94     96     1  0.0000000  1.2552000  3
     91    103    109    110     1  0.0000000  0.6508444  3
     91    103    109    111     1  0.0000000  0.6508444  3
     92     91     87     94     1  0.0000000  1.2552000  3
     92     91    103    109     1  0.0000000  0.6508444  3
     92     91    103    104     1  0.0000000  0.6508444  3
     92     91    103    105     1  0.0000000  0.6508444  3
     93     91     87     94     1  0.0000000  1.2552000  3
     93     91    103    109     1  0.0000000  0.6508444  3
     93     91    103    104     1  0.0000000  0.6508444  3
     93     91    103    105     1  0.0000000  0.6508444  3
     94     97    106    107     1  0.0000000  0.6508444  3
     94     97    106    108     1  0.0000000  0.6508444  3
     95     94     97    106     1  0.0000000  0.6508444  3
     95     94     97     98     1  0.0000000  0.6508444  3
     95     94     97     99     1  0.0000000  0.6508444  3
     96     94     97    106     1  0.0000000  0.6508444  3
     96     94     97     98     1  0.0000000  0.6508444  3
     96     94     97     99     1  0.0000000  0.6508444  3
     98     97    106    115     1  0.0000000  1.0460000  1
     98     97    106    115     1  0.0000000  0.0000000  3
     98     97    106    107     1  0.0000000  0.6508444  3
     98     97    106    108     1  0.0000000  0.6508444  3
     99     97    106    115     1  0.0000000  1.0460000  1
     99     97    106    115     1  0.0000000  0.0000000  3
     99     97    106    107     1  0.0000000  0.6508444  3
     99     97    106    108     1  0.0000000  0.6508444  3
    101    100    112    289     1  0.0000000  1.0460000  1
    101    100    112    289     1  0.0000000  0.0000000  3
    101    100    112    113     1  0.0000000  0.6508444  3
    101    100    112    114     1  0.0000000  0.6508444  3
    102    100    112    289     1  0.0000000  1.0460000  1
    102    100    112    289     1  0.0000000  0.0000000  3
    102    100    112    113     1  0.0000000  0.6508444  3
    102    100    112    114     1  0.0000000  0.6508444  3
    104    103    109    260     1  0.0000000  1.0460000  1
    104    103    109    260     1  0.0000000  0.0000000  3
    104    103    109    110     1  0.0000000  0.6508444  3
    104    103    109    111     1  0.0000000  0.6508444  3
    105    103    109    260     1  0.0000000  1.0460000  1
    105    103    109    260     1  0.0000000  0.0000000  3
    105    103    109    110     1  0.0000000  0.6508444  3
    105    103    109    111     1  0.0000000  0.6508444  3
    109    260    251    252     1  0.0000000  1.6038667  3
    109    260    251    253     1  0.0000000  1.6038667  3
    110    109    260    251     1  0.0000000  1.6038667  3
    111    109    260    251     1  0.0000000  1.6038667  3
    112    289    280    281     1  0.0000000  1.6038667  3
    112    289    280    282     1  0.0000000  1.6038667  3
    113    112    289    280     1  0.0000000  1.6038667  3
    114    112    289    280     1  0.0000000  1.6038667  3
    116    117    129    130     1  0.0000000  0.6508444  3
    116    117    129    131     1  0.0000000  0.6508444  3
    116    120    132    133     1  0.0000000  0.6508444  3
    116    120    132    134     1  0.0000000  0.6508444  3
    116    123    126    127     1  0.0000000  0.6508444  3
    116    123    126    128     1  0.0000000  0.6508444  3
    117    116    120    121     1  0.0000000  1.2552000  3
    117    116    120    122     1  0.0000000  1.2552000  3
    117    116    123    124     1  0.0000000  1.2552000  3
    117    116    123    125     1  0.0000000  1.2552000  3
    117    129    141    142     1  0.0000000  0.6508444  3
    117    129    141    143     1  0.0000000  0.6508444  3
    118    117    116    120     1  0.0000000  1.2552000  3
    118    117    116    123     1  0.0000000  1.2552000  3
    118    117    129    141     1  0.0000000  0.6508444  3
    118    117    129    130     1  0.0000000  0.6508444  3
    118    117    129    131     1  0.0000000  0.6508444  3
    119    117    116    120     1  0.0000000  1.2552000  3
    119    117    116    123     1  0.0000000  1.2552000  3
    119    117    129    141     1  0.0000000  0.6508444  3
    119    117    129    130     1  0.0000000  0.6508444  3
    119    117    129    131     1  0.0000000  0.6508444  3
    120    116    123    124     1  0.0000000  1.2552000  3
    120    116    123    125     1  0.0000000  1.2552000  3
    120    132    138    139     1  0.0000000  0.6508444  3
    120    132    138    140     1  0.0000000  0.6508444  3
    121    120    116    123     1  0.0000000  1.2552000  3
    121    120    132    138     1  0.0000000  0.6508444  3
    121    120    132    133     1  0.0000000  0.6508444  3
    121    120    132    134     1  0.0000000  0.6508444  3
    122    120    116    123     1  0.0000000  1.2552000  3
    122    120    132    138     1  0.0000000  0.6508444  3
    122    120    132    133     1  0.0000000  0.6508444  3
    122    120    132    134     1  0.0000000  0.6508444  3
    123    126    135    136     1  0.0000000  0.6508444  3
    123    126    135    137     1  0.0000000  0.6508444  3
    124    123    126    135     1  0.0000000  0.6508444  3
    124    123    126    127     1  0.0000000  0.6508444  3
    124    123    126    128     1  0.0000000  0.6508444  3
    125    123    126    135     1  0.0000000  0.6508444  3
    125    123    126    127     1  0.0000000  0.6508444  3
    125    123    126    128     1  0.0000000  0.6508444  3
    127    126    135    144     1  0.0000000  1.0460000  1
    127    126    135    144     1  0.0000000  0.0000000  3
    127    126    135    136     1  0.0000000  0.6508444  3
    127    126    135    137     1  0.0000000  0.6508444  3
    128    126    135    144     1  0.0000000  1.0460000  1
    128    126    135    144     1  0.0000000  0.0000000  3
    128    126    135    136     1  0.0000000  0.6508444  3
    128    126    135    137     1  0.0000000  0.6508444  3
    130    129    141    347     1  0.0000000  1.0460000  1
    130    129    141    347     1  0.0000000  0.0000000  3
    130    129    141    142     1  0.0000000  0.6508444  3
    130    129    141    143     1  0.0000000  0.6508444  3
    131    129    141    347     1  0.0000000  1.0460000  1
    131    129    141    347     1  0.0000000  0.0000000  3
    131    129    141    142     1  0.0000000  0.6508444  3
    131    129    141    143     1  0.0000000  0.6508444  3
    133    132    138    318     1  0.0000000  1.0460000  1
    133    132    138    318     1  0.0000000  0.0000000  3
    133    132    138    139     1  0.0000000  0.6508444  3
    133    132    138    140     1  0.0000000  0.6508444  3
    134    132    138    318     1  0.0000000  1.0460000  1
    134    132    138    318     1  0.0000000  0.0000000  3
    134    132    138    139     1  0.0000000  0.6508444  3
    134    132    138    140     1  0.0000000  0.6508444  3
    138    318    309    310     1  0.0000000  1.6038667  3
    138    318    309    311     1  0.0000000  1.6038667  3
    139    138    318    309     1  0.0000000  1.6038667  3
    140    138    318    309     1  0.0000000  1.6038667  3
    141    347    338    339     1  0.0000000  1.6038667  3
    141    347    338    340     1  0.0000000  1.6038667  3
    142    141    347    338     1  0.0000000  1.6038667  3
    143    141    347    338     1  0.0000000  1.6038667  3
    145    146    158    159     1  0.0000000  0.6508444  3
    145    146    158    160     1  0.0000000  0.6508444  3
    145    149    161    162     1  0.0000000  0.6508444  3
    145    149    161    163     1  0.0000000  0.6508444  3
    145    152    155    156     1  0.0000000  0.6508444  3
    145    152    155    157     1  0.0000000  0.6508444  3
    146    145    149    150     1  0.0000000  1.2552000  3
    146    145    149    151     1  0.0000000  1.2552000  3
    146    145    152    153     1  0.0000000  1.2552000  3
    146    145    152    154     1  0.0000000  1.2552000  3
    146    158    170    171     1  0.0000000  0.6508444  3
    146    158    170    172     1  0.0000000  0.6508444  3
    147    146    145    149     1  0.0000000  1.2552000  3
    147    146    145    152     1  0.0000000  1.2552000  3
    147    146    158    170     1  0.0000000  0.6508444  3
    147    146    158    159     1  0.0000000  0.6508444  3
    147    146    158    160     1  0.0000000  0.6508444  3
    148    146    145    149     1  0.0000000  1.2552000  3
    148    146    145    152     1  0.0000000  1.2552000  3
    148    146    158    170     1  0.0000000  0.6508444  3
    148    146    158    159     1  0.0000000  0.6508444  3
    148    146    158    160     1  0.0000000  0.6508444  3
    149    145    152    153     1  0.0000000  1.2552000  3
    149    145    152    154     1  0.0000000  1.2552000  3
    149    161    167    168     1  0.0000000  0.6508444  3
    149    161    167    169     1  0.0000000  0.6508444  3
    150    149    145    152     1  0.0000000  1.2552000  3
    150    149    161    167     1  0.0000000  0.6508444  3
    150    149    161    162     1  0.0000000  0.6508444  3
    150    149    161    163     1  0.0000000  0.6508444  3
    151    149    145    152     1  0.0000000  1.2552000  3
    151    149    161    167     1  0.0000000  0.6508444  3
    151    149    161    162     1  0.0000000  0.6508444  3
    151    149    161    163     1  0.0000000  0.6508444  3
    152    155    164    165     1  0.0000000  0.6508444  3
    152    155    164    166     1  0.0000000  0.6508444  3
    153    152    155    164     1  0.0000000  0.6508444  3
    153    152    155    156     1  0.0000000  0.6508444  3
    153    152    155    157     1  0.0000000  0.6508444  3
    154    152    155    164     1  0.0000000  0.6508444  3
    154    152    155    156     1  0.0000000  0.6508444  3
    154    152    155    157     1  0.0000000  0.6508444  3
    156    155    164    173     1  0.0000000  1.0460000  1
    156    155    164    173     1  0.0000000  0.0000000  3
    156    155    164    165     1  0.0000000  0.6508444  3
    156    155    164    166     1  0.0000000  0.6508444  3
    157    155    164    173     1  0.0000000  1.0460000  1
    157    155    164    173     1  0.0000000  0.0000000  3
    157    155    164    165     1  0.0000000  0.6508444  3
    157    155    164    166     1  0.0000000  0.6508444  3
    159    158    170    405     1  0.0000000  1.0460000  1
    159    158    170    405     1  0.0000000  0.0000000  3
    159    158    170    171     1  0.0000000  0.6508444  3
    159    158    170    172     1  0.0000000  0.6508444  3
    160    158    170    405     1  0.0000000  1.0460000  1
    160    158    170    405     1  0.0000000  0.0000000  3
    160    158    170    171     1  0.0000000  0.6508444  3
    160    158    170    172     1  0.0000000  0.6508444  3
    162    161    167    376     1  0.0000000  1.0460000  1
    162    161    167    376     1  0.0000000  0.0000000  3
    162    161    167    168     1  0.0000000  0.6508444  3
    162    161    167    169     1  0.0000000  0.6508444  3
    163    161    167    376     1  0.0000000  1.0460000  1
    163    161    167    376     1  0.0000000  0.0000000  3
    163    161    167    168     1  0.0000000  0.6508444  3
    163    161    167    169     1  0.0000000  0.6508444  3
    167    376    367    368     1  0.0000000  1.6038667  3
    167    376    367    369     1  0.0000000  1.6038667  3
    168    167    376    367     1  0.0000000  1.6038667  3
    169    167    376    367     1  0.0000000  1.6038667  3
    170    405    396    397     1  0.0000000  1.6038667  3
    170    405    396    398     1  0.0000000  1.6038667  3
    171    170    405    396     1  0.0000000  1.6038667  3
    172    170    405    396     1  0.0000000  1.6038667  3
    174    175    187    188     1  0.0000000  0.6508444  3
    174    175    187    189     1  0.0000000  0.6508444  3
    174    178    190    191     1  0.0000000  0.6508444  3
    174    178    190    192     1  0.0000000  0.6508444  3
    174    181    184    185     1  0.0000000  0.6508444  3
    174    181    184    186     1  0.0000000  0.6508444  3
    175    174    178    179     1  0.0000000  1.2552000  3
    175    174    178    180     1  0.0000000  1.2552000  3
    175    174    181    182     1  0.0000000  1.2552000  3
    175    174    181    183     1  0.0000000  1.2552000  3
    175    187    199    200     1  0.0000000  0.6508444  3
    175    187    199    201     1  0.0000000  0.6508444  3
    176    175    174    178     1  0.0000000  1.2552000  3
    176    175    174    181     1  0.0000000  1.2552000  3
    176    175    187    199     1  0.0000000  0.6508444  3
    176    175    187    188     1  0.0000000  0.6508444  3
    176    175    187    189     1  0.0000000  0.6508444  3
    177    175    174    178     1  0.0000000  1.2552000  3
    177    175    174    181     1  0.0000000  1.2552000  3
    177    175    187    199     1  0.0000000  0.6508444  3
    177    175    187    188     1  0.0000000  0.6508444  3
    177    175    187    189     1  0.0000000  0.6508444  3
    178    174    181    182     1  0.0000000  1.2552000  3
    178    174    181    183     1  0.0000000  1.2552000  3
    178    190    196    197     1  0.0000000  0.6508444  3
    178    190    196    198     1  0.0000000  0.6508444  3
    179    178    174    181     1  0.0000000  1.2552000  3
    179    178    190    196     1  0.0000000  0.6508444  3
    179    178    190    191     1  0.0000000  0.6508444  3
    179    178    190    192     1  0.0000000  0.6508444  3
    180    178    174    181     1  0.0000000  1.2552000  3
    180    178    190    196     1  0.0000000  0.6508444  3
    180    178    190    191     1  0.0000000  0.6508444  3
    180    178    190    192     1  0.0000000  0.6508444  3
    181    184    193    194     1  0.0000000  0.6508444  3
    181    184    193    195     1  0.0000000  0.6508444  3
    182    181    184    193     1  0.0000000  0.6508444  3
    182    181    184    185     1  0.0000000  0.6508444  3
    182    181    184    186     1  0.0000000  0.6508444  3
    183    181    184    193     1  0.0000000  0.6508444  3
    183    181    184    185     1  0.0000000  0.6508444  3
    183    181    184    186     1  0.0000000  0.6508444  3
    185    184    193    202     1  0.0000000  1.0460000  1
    185    184    193    202     1  0.0000000  0.0000000  3
    185    184    193    194     1  0.0000000  0.6508444  3
    185    184    193    195     1  0.0000000  0.6508444  3
    186    184    193    202     1  0.0000000  1.0460000  1
    186    184    193    202     1  0.0000000  0.0000000  3
    186    184    193    194     1  0.0000000  0.6508444  3
    186    184    193    195     1  0.0000000  0.6508444  3
    188    187    199    463     1  0.0000000  1.0460000  1
    188    187    199    463     1  0.0000000  0.0000000  3
    188    187    199    200     1  0.0000000  0.6508444  3
    188    187    199    201     1  0.0000000  0.6508444  3
    189    187    199    463     1  0.0000000  1.0460000  1
    189    187    199    463     1  0.0000000  0.0000000  3
    189    187    199    200     1  0.0000000  0.6508444  3
    189    187    199    201     1  0.0000000  0.6508444  3
    191    190    196    434     1  0.0000000  1.0460000  1
    191    190    196    434     1  0.0000000  0.0000000  3
    191    190    196    197     1  0.0000000  0.6508444  3
    191    190    196    198     1  0.0000000  0.6508444  3
    192    190    196    434     1  0.0000000  1.0460000  1
    192    190    196    434     1  0.0000000  0.0000000  3
    192    190    196    197     1  0.0000000  0.6508444  3
    192    190    196    198     1  0.0000000  0.6508444  3
    196    434    425    426     1  0.0000000  1.6038667  3
    196    434    425    427     1  0.0000000  1.6038667  3
    197    196    434    425     1  0.0000000  1.6038667  3
    198    196    434    425     1  0.0000000  1.6038667  3
    199    463    454    455     1  0.0000000  1.6038667  3
    199    463    454    456     1  0.0000000  1.6038667  3
    200    199    463    454     1  0.0000000  1.6038667  3
    201    199    463    454     1  0.0000000  1.6038667  3
    203    204    216    217     1  0.0000000  0.6508444  3
    203    204    216    218     1  0.0000000  0.6508444  3
    203    207    219    220     1  0.0000000  0.6508444  3
    203    207    219    221     1  0.0000000  0.6508444  3
    203    210    213    214     1  0.0000000  0.6508444  3
    203    210    213    215     1  0.0000000  0.6508444  3
    204    203    207    208     1  0.0000000  1.2552000  3
    204    203    207    209     1  0.0000000  1.2552000  3
    204    203    210    211     1  0.0000000  1.2552000  3
    204    203    210    212     1  0.0000000  1.2552000  3
    204    216    228    229     1  0.0000000  0.6508444  3
    204    216    228    230     1  0.0000000  0.6508444  3
    205    204    203    207     1  0.0000000  1.2552000  3
    205    204    203    210     1  0.0000000  1.2552000  3
    205    204    216    228     1  0.0000000  0.6508444  3
    205    204    216    217     1  0.0000000  0.6508444  3
    205    204    216    218     1  0.0000000  0.6508444  3
    206    204    203    207     1  0.0000000  1.2552000  3
    206    204    203    210     1  0.0000000  1.2552000  3
    206    204    216    228     1  0.0000000  0.6508444  3
    206    204    216    217     1  0.0000000  0.6508444  3
    206    204    216    218     1  0.0000000  0.6508444  3
    207    203    210    211     1  0.0000000  1.2552000  3
    207    203    210    212     1  0.0000000  1.2552000  3
    207    219    225    226     1  0.0000000  0.6508444  3
    207    219    225    227     1  0.0000000  0.6508444  3
    208    207    203    210     1  0.0000000  1.2552000  3
    208    207    219    225     1  0.0000000  0.6508444  3
    208    207    219    220     1  0.0000000  0.6508444  3
    208    207    219    221     1  0.0000000  0.6508444  3
    209    207    203    210     1  0.0000000  1.2552000  3
    209    207    219    225     1  0.0000000  0.6508444  3
    209    207    219    220     1  0.0000000  0.6508444  3
    209    207    219    221     1  0.0000000  0.6508444  3
    210    213    222    223     1  0.0000000  0.6508444  3
    210    213    222    224     1  0.0000000  0.6508444  3
    211    210    213    222     1  0.0000000  0.6508444  3
    211    210    213    214     1  0.0000000  0.6508444  3
    211    210    213    215     1  0.0000000  0.6508444  3
    212    210    213    222     1  0.0000000  0.6508444  3
    212    210    213    214     1  0.0000000  0.6508444  3
    212    210    213    215     1  0.0000000  0.6508444  3
    214    213    222    231     1  0.0000000  1.0460000  1
    214    213    222    231     1  0.0000000  0.0000000  3
    214    213    222    223     1  0.0000000  0.6508444  3
    214    213    222    224     1  0.0000000  0.6508444  3
    215    213    222    231     1  0.0000000  1.0460000  1
    215    213    222    231     1  0.0000000  0.0000000  3
    215    213    222    223     1  0.0000000  0.6508444  3
    215    213    222    224     1  0.0000000  0.6508444  3
    217    216    228    521     1  0.0000000  1.0460000  1
    217    216    228    521     1  0.0000000  0.0000000  3
    217    216    228    229     1  0.0000000  0.6508444  3
    217    216    228    230     1  0.0000000  0.6508444  3
    218    216    228    521     1  0.0000000  1.0460000  1
    218    216    228    521     1  0.0000000  0.0000000  3
    218    216    228    229     1  0.0000000  0.6508444  3
    218    216    228    230     1  0.0000000  0.6508444  3
    220    219    225    492     1  0.0000000  1.0460000  1
    220    219    225    492     1  0.0000000  0.0000000  3
    220    219    225    226     1  0.0000000  0.6508444  3
    220    219    225    227     1  0.0000000  0.6508444  3
    221    219    225    492     1  0.0000000  1.0460000  1
    221    219    225    492     1  0.0000000  0.0000000  3
    221    219    225    226     1  0.0000000  0.6508444  3
    221    219    225    227     1  0.0000000  0.6508444  3
    225    492    483    484     1  0.0000000  1.6038667  3
    225    492    483    485     1  0.0000000  1.6038667  3
    226    225    492    483     1  0.0000000  1.6038667  3
    227    225    492    483     1  0.0000000  1.6038667  3
    228    521    512    513     1  0.0000000  1.6038667  3
    228    521    512    514     1  0.0000000  1.6038667  3
    229    228    521    512     1  0.0000000  1.6038667  3
    230    228    521    512     1  0.0000000  1.6038667  3
    232    233    245    246     1  0.0000000  0.6508444  3
    232    233    245    247     1  0.0000000  0.6508444  3
    232    236    248    249     1  0.0000000  0.6508444  3
    232    236    248    250     1  0.0000000  0.6508444  3
    232    239    242    243     1  0.0000000  0.6508444  3
    232    239    242    244     1  0.0000000  0.6508444  3
    233    232    236    237     1  0.0000000  1.2552000  3
    233    232    236    238     1  0.0000000  1.2552000  3
    233    232    239    240     1  0.0000000  1.2552000  3
    233    232    239    241     1  0.0000000  1.2552000  3
    233    245    257    258     1  0.0000000  0.6508444  3
    233    245    257    259     1  0.0000000  0.6508444  3
    234    233    232    236     1  0.0000000  1.2552000  3
    234    233    232    239     1  0.0000000  1.2552000  3
    234    233    245    257     1  0.0000000  0.6508444  3
    234    233    245    246     1  0.0000000  0.6508444  3
    234    233    245    247     1  0.0000000  0.6508444  3
    235    233    232    236     1  0.0000000  1.2552000  3
    235    233    232    239     1  0.0000000  1.2552000  3
    235    233    245    257     1  0.0000000  0.6508444  3
    235    233    245    246     1  0.0000000  0.6508444  3
    235    233    245    247     1  0.0000000  0.6508444  3
    236    232    239    240     1  0.0000000  1.2552000  3
    236    232    239    241     1  0.0000000  1.2552000  3
    236    248    254    255     1  0.0000000  0.6508444  3
    236    248    254    256     1  0.0000000  0.6508444  3
    237    236    232    239     1  0.0000000  1.2552000  3
    237    236    248    254     1  0.0000000  0.6508444  3
    237    236    248    249     1  0.0000000  0.6508444  3
    237    236    248    250     1  0.0000000  0.6508444  3
    238    236    232    239     1  0.0000000  1.2552000  3
    238    236    248    254     1  0.0000000  0.6508444  3
    238    236    248    249     1  0.0000000  0.6508444  3
    238    236    248    250     1  0.0000000  0.6508444  3
    239    242    251    252     1  0.0000000  0.6508444  3
    239    242    251    253     1  0.0000000  0.6508444  3
    240    239    242    251     1  0.0000000  0.6508444  3
    240    239    242    243     1  0.0000000  0.6508444  3
    240    239    242    244     1  0.0000000  0.6508444  3
    241    239    242    251     1  0.0000000  0.6508444  3
    241    239    242    243     1  0.0000000  0.6508444  3
    241    239    242    244     1  0.0000000  0.6508444  3
    243    242    251    260     1  0.0000000  1.0460000  1
    243    242    251    260     1  0.0000000  0.0000000  3
    243    242    251    252     1  0.0000000  0.6508444  3
    243    242    251    253     1  0.0000000  0.6508444  3
    244    242    251    260     1  0.0000000  1.0460000  1
    244    242    251    260     1  0.0000000  0.0000000  3
    244    242    251    252     1  0.0000000  0.6508444  3
    244    242    251    253     1  0.0000000  0.6508444  3
    246    245    257    579     1  0.0000000  1.0460000  1
    246    245    257    579     1  0.0000000  0.0000000  3
    246    245    257    258     1  0.0000000  0.6508444  3
    246    245    257    259     1  0.0000000  0.6508444  3
    247    245    257    579     1  0.0000000  1.0460000  1
    247    245    257    579     1  0.0000000  0.0000000  3
    247    245    257    258     1  0.0000000  0.6508444  3
    247    245    257    259     1  0.0000000  0.6508444  3
    249    248    254    550     1  0.0000000  1.0460000  1
    249    248    254    550     1  0.0000000  0.0000000  3
    249    248    254    255     1  0.0000000  0.6508444  3
    249    248    254    256     1  0.0000000  0.6508444  3
    250    248    254    550     1  0.0000000  1.0460000  1
    250    248    254    550     1  0.0000000  0.0000000  3
    250    248    254    255     1  0.0000000  0.6508444  3
    250    248    254    256     1  0.0000000  0.6508444  3
    254    550    541    542     1  0.0000000  1.6038667  3
    254    550    541    543     1  0.0000000  1.6038667  3
    255    254    550    541     1  0.0000000  1.6038667  3
    256    254    550    541     1  0.0000000  1.6038667  3
    257    579    570    571     1  0.0000000  1.6038667  3
    257    579    570    572     1  0.0000000  1.6038667  3
    258    257    579    570     1  0.0000000  1.6038667  3
    259    257    579    570     1  0.0000000  1.6038667  3
    261    262    274    275     1  0.0000000  0.6508444  3
    261    262    274    276     1  0.0000000  0.6508444  3
    261    265    277    278     1  0.0000000  0.6508444  3
    261    265    277    279     1  0.0000000  0.6508444  3
    261    268    271    272     1  0.0000000  0.6508444  3
    261    268    271    273     1  0.0000000  0.6508444  3
    262    261    265    266     1  0.0000000  1.2552000  3
    262    261    265    267     1  0.0000000  1.2552000  3
    262    261    268    269     1  0.0000000  1.2552000  3
    262    261    268    270     1  0.0000000  1.2552000  3
    262    274    286    287     1  0.0000000  0.6508444  3
    262    274    286    288     1  0.0000000  0.6508444  3
    263    262    261    265     1  0.0000000  1.2552000  3
    263    262    261    268     1  0.0000000  1.2552000  3
    263    262    274    286     1  0.0000000  0.6508444  3
    263    262    274    275     1  0.0000000  0.6508444  3
    263    262    274    276     1  0.0000000  0.6508444  3
    264    262    261    265     1  0.0000000  1.2552000  3
    264    262    261    268     1  0.0000000  1.2552000  3
    264    262    274    286     1  0.0000000  0.6508444  3
    264    262    274    275     1  0.0000000  0.6508444  3
    264    262    274    276     1  0.0000000  0.6508444  3
    265    261    268    269     1  0.0000000  1.2552000  3
    265    261    268    270     1  0.0000000  1.2552000  3
    265    277    283    284     1  0.0000000  0.6508444  3
    265    277    283    285     1  0.0000000  0.6508444  3
    266    265    261    268     1  0.0000000  1.2552000  3
    266    265    277    283     1  0.0000000  0.6508444  3
    266    265    277    278     1  0.0000000  0.6508444  3
    266    265    277    279     1  0.0000000  0.6508444  3
    267    265    261    268     1  0.0000000  1.2552000  3
    267    265    277    283     1  0.0000000  0.6508444  3
    267    265    277    278     1  0.0000000  0.6508444  3
    267    265    277    279     1  0.0000000  0.6508444  3
    268    271    280    281     1  0.0000000  0.6508444  3
    268    271    280    282     1  0.0000000  0.6508444  3
    269    268    271    280     1  0.0000000  0.6508444  3
    269    268    271    272     1  0.0000000  0.6508444  3
    269    268    271    273     1  0.0000000  0.6508444  3
    270    268    271    280     1  0.0000000  0.6508444  3
    270    268    271    272     1  0.0000000  0.6508444  3
    270    268    271    273     1  0.0000000  0.6508444  3
    272    271    280    289     1  0.0000000  1.0460000  1
    272    271    280    289     1  0.0000000  0.0000000  3
    272    271    280    281     1  0.0000000  0.6508444  3
    272    271    280    282     1  0.0000000  0.6508444  3
    273    271    280    289     1  0.0000000  1.0460000  1
    273    271    280    289     1  0.0000000  0.0000000  3
    273    271    280    281     1  0.0000000  0.6508444  3
    273    271    280    282     1  0.0000000  0.6508444  3
    275    274    286    637     1  0.0000000  1.0460000  1
    275    274    286    637     1  0.0000000  0.0000000  3
    275    274    286    287     1  0.0000000  0.6508444  3
    275    274    286    288     1  0.0000000  0.6508444  3
    276    274    286    637     1  0.0000000  1.0460000  1
    276    274    286    637     1  0.0000000  0.0000000  3
    276    274    286    287     1  0.0000000  0.6508444  3
    276    274    286    288     1  0.0000000  0.6508444  3
    278    277    283    608     1  0.0000000  1.0460000  1
    278    277    283    608     1  0.0000000  0.0000000  3
    278    277    283    284     1  0.0000000  0.6508444  3
    278    277    283    285     1  0.0000000  0.6508444  3
    279    277    283    608     1  0.0000000  1.0460000  1
    279    277    283    608     1  0.0000000  0.0000000  3
    279    277    283    284     1  0.0000000  0.6508444  3
    279    277    283    285     1  0.0000000  0.6508444  3
    283    608    599    600     1  0.0000000  1.6038667  3
    283    608    599    601     1  0.0000000  1.6038667  3
    284    283    608    599     1  0.0000000  1.6038667  3
    285    283    608    599     1  0.0000000  1.6038667  3
    286    637    628    629     1  0.0000000  1.6038667  3
    286    637    628    630     1  0.0000000  1.6038667  3
    287    286    637    628     1  0.0000000  1.6038667  3
    288    286    637    628     1  0.0000000  1.6038667  3
    290    291    303    304     1  0.0000000  0.6508444  3
    290    291    303    305     1  0.0000000  0.6508444  3
    290    294    306    307     1  0.0000000  0.6508444  3
    290    294    306    308     1  0.0000000  0.6508444  3
    290    297    300    301     1  0.0000000  0.6508444  3
    290    297    300    302     1  0.0000000  0.6508444  3
    291    290    294    295     1  0.0000000  1.2552000  3
    291    290    294    296     1  0.0000000  1.2552000  3
    291    290    297    298     1  0.0000000  1.2552000  3
    291    290    297    299     1  0.0000000  1.2552000  3
    291    303    315    316     1  0.0000000  0.6508444  3
    291    303    315    317     1  0.0000000  0.6508444  3
    292    291    290    294     1  0.0000000  1.2552000  3
    292    291    290    297     1  0.0000000  1.2552000  3
    292    291    303    315     1  0.0000000  0.6508444  3
    292    291    303    304     1  0.0000000  0.6508444  3
    292    291    303    305     1  0.0000000  0.6508444  3
    293    291    290    294     1  0.0000000  1.2552000  3
    293    291    290    297     1  0.0000000  1.2552000  3
    293    291    303    315     1  0.0000000  0.6508444  3
    293    291    303    304     1  0.0000000  0.6508444  3
    293    291    303    305     1  0.0000000  0.6508444  3
    294    290    297    298     1  0.0000000  1.2552000  3
    294    290    297    299     1  0.0000000  1.2552000  3
    294    306    312    313     1  0.0000000  0.6508444  3
    294    306    312    314     1  0.0000000  0.6508444  3
    295    294    290    297     1  0.0000000  1.2552000  3
    295    294    306    312     1  0.0000000  0.6508444  3
    295    294    306    307     1  0.0000000  0.6508444  3
    295    294    306    308     1  0.0000000  0.6508444  3
    296    294    290    297     1  0.0000000  1.2552000  3
    296    294    306    312     1  0.0000000  0.6508444  3
    296    294    306    307     1  0.0000000  0.6508444  3
    296    294    306    308     1  0.0000000  0.6508444  3
    297    300    309    310     1  0.0000000  0.6508444  3
    297    300    309    311     1  0.0000000  0.6508444  3
    298    297    300    309     1  0.0000000  0.6508444  3
    298    297    300    301     1  0.0000000  0.6508444  3
    298    297    300    302     1  0.0000000  0.6508444  3
    299    297    300    309     1  0.0000000  0.6508444  3
    299    297    300    301     1  0.0000000  0.6508444  3
    299    297    300    302     1  0.0000000  0.6508444  3
    301    300    309    318     1  0.0000000  1.0460000  1
    301    300    309    318     1  0.0000000  0.0000000  3
    301    300    309    310     1  0.0000000  0.6508444  3
    301    300    309    311     1  0.0000000  0.6508444  3
    302    300    309    318     1  0.0000000  1.0460000  1
    302    300    309    318     1  0.0000000  0.0000000  3
    302    300    309    310     1  0.0000000  0.6508444  3
    302    300    309    311     1  0.0000000  0.6508444  3
    304    303    315    695     1  0.0000000  1.0460000  1
    304    303    315    695     1  0.0000000  0.0000000  3
    304    303    315    316     1  0.0000000  0.6508444  3
    304    303    315    317     1  0.0000000  0.6508444  3
    305    303    315    695     1  0.0000000  1.0460000  1
    305    303    315    695     1  0.0000000  0.0000000  3
    305    303    315    316     1  0.0000000  0.6508444  3
    305    303    315    317     1  0.0000000  0.6508444  3
    307    306    312    666     1  0.0000000  1.0460000  1
    307    306    312    666     1  0.0000000  0.0000000  3
    307    306    312    313     1  0.0000000  0.6508444  3
    307    306    312    314     1  0.0000000  0.6508444  3
    308    306    312    666     1  0.0000000  1.0460000  1
    308    306    312    666     1  0.0000000  0.0000000  3
    308    306    312    313     1  0.0000000  0.6508444  3
    308    306    312    314     1  0.0000000  0.6508444  3
    312    666    657    658     1  0.0000000  1.6038667  3
    312    666    657    659     1  0.0000000  1.6038667  3
    313    312    666    657     1  0.0000000  1.6038667  3
    314    312    666    657     1  0.0000000  1.6038667  3
    315    695    686    687     1  0.0000000  1.6038667  3
    315    695    686    688     1  0.0000000  1.6038667  3
    316    315    695    686     1  0.0000000  1.6038667  3
    317    315    695    686     1  0.0000000  1.6038667  3
    319    320    332    333     1  0.0000000  0.6508444  3
    319    320    332    334     1  0.0000000  0.6508444  3
    319    323    335    336     1  0.0000000  0.6508444  3
    319    323    335    337     1  0.0000000  0.6508444  3
    319    326    329    330     1  0.0000000  0.6508444  3
    319    326    329    331     1  0.0000000  0.6508444  3
    320    319    323    324     1  0.0000000  1.2552000  3
    320    319    323    325     1  0.0000000  1.2552000  3
    320    319    326    327     1  0.0000000  1.2552000  3
    320    319    326    328     1  0.0000000  1.2552000  3
    320    332    344    345     1  0.0000000  0.6508444  3
    320    332    344    346     1  0.0000000  0.6508444  3
    321    320    319    323     1  0.0000000  1.2552000  3
    321    320    319    326     1  0.0000000  1.2552000  3
    321    320    332    344     1  0.0000000  0.6508444  3
    321    320    332    333     1  0.0000000  0.6508444  3
    321    320    332    334     1  0.0000000  0.6508444  3
    322    320    319    323     1  0.0000000  1.2552000  3
    322    320    319    326     1  0.0000000  1.2552000  3
    322    320    332    344     1  0.0000000  0.6508444  3
    322    320    332    333     1  0.0000000  0.6508444  3
    322    320    332    334     1  0.0000000  0.6508444  3
    323    319    326    327     1  0.0000000  1.2552000  3
    323    319    326    328     1  0.0000000  1.2552000  3
    323    335    341    342     1  0.0000000  0.6508444  3
    323    335    341    343     1  0.0000000  0.6508444  3
    324    323    319    326     1  0.0000000  1.2552000  3
    324    323    335    341     1  0.0000000  0.6508444  3
    324    323    335    336     1  0.0000000  0.6508444  3
    324    323    335    337     1  0.0000000  0.6508444  3
    325    323    319    326     1  0.0000000  1.2552000  3
    325    323    335    341     1  0.0000000  0.6508444  3
    325    323    335    336     1  0.0000000  0.6508444  3
    325    323    335    337     1  0.0000000  0.6508444  3
    326    329    338    339     1  0.0000000  0.6508444  3
    326    329    338    340     1  0.0000000  0.6508444  3
    327    326    329    338     1  0.0000000  0.6508444  3
    327    326    329    330     1  0.0000000  0.6508444  3
    327    326    329    331     1  0.0000000  0.6508444  3
    328    326    329    338     1  0.0000000  0.6508444  3
    328    326    329    330     1  0.0000000  0.6508444  3
    328    326    329    331     1  0.0000000  0.6508444  3
    330    329    338    347     1  0.0000000  1.0460000  1
    330    329    338    347     1  0.0000000  0.0000000  3
    330    329    338    339     1  0.0000000  0.6508444  3
    330    329    338    340     1  0.0000000  0.6508444  3
    331    329    338    347     1  0.0000000  1.0460000  1
    331    329    338    347     1  0.0000000  0.0000000  3
    331    329    338    339     1  0.0000000  0.6508444  3
    331    329    338    340     1  0.0000000  0.6508444  3
    333    332    344    753     1  0.0000000  1.0460000  1
    333    332    344    753     1  0.0000000  0.0000000  3
    333    332    344    345     1  0.0000000  0.6508444  3
    333    332    344    346     1  0.0000000  0.6508444  3
    334    332    344    753     1  0.0000000  1.0460000  1
    334    332    344    753     1  0.0000000  0.0000000  3
    334    332    344    345     1  0.0000000  0.6508444  3
    334    332    344    346     1  0.0000000  0.6508444  3
    336    335    341    724     1  0.0000000  1.0460000  1
    336    335    341    724     1  0.0000000  0.0000000  3
    336    335    341    342     1  0.0000000  0.6508444  3
    336    335    341    343     1  0.0000000  0.6508444  3
    337    335    341    724     1  0.0000000  1.0460000  1
    337    335    341    724     1  0.0000000  0.0000000  3
    337    335    341    342     1  0.0000000  0.6508444  3
    337    335    341    343     1  0.0000000  0.6508444  3
    341    724    715    716     1  0.0000000  1.6038667  3
    341    724    715    717     1  0.0000000  1.6038667  3
    342    341    724    715     1  0.0000000  1.6038667  3
    343    341    724    715     1  0.0000000  1.6038667  3
    344    753    744    745     1  0.0000000  1.6038667  3
    344    753    744    746     1  0.0000000  1.6038667  3
    345    344    753    744     1  0.0000000  1.6038667  3
    346    344    753    744     1  0.0000000  1.6038667  3
    348    349    361    362     1  0.0000000  0.6508444  3
    348    349    361    363     1  0.0000000  0.6508444  3
    348    352    364    365     1  0.0000000  0.6508444  3
    348    352    364    366     1  0.0000000  0.6508444  3
    348    355    358    359     1  0.0000000  0.6508444  3
    348    355    358    360     1  0.0000000  0.6508444  3
    349    348    352    353     1  0.0000000  1.2552000  3
    349    348    352    354     1  0.0000000  1.2552000  3
    349    348    355    356     1  0.0000000  1.2552000  3
    349    348    355    357     1  0.0000000  1.2552000  3
    349    361    373    374     1  0.0000000  0.6508444  3
    349    361    373    375     1  0.0000000  0.6508444  3
    350    349    348    352     1  0.0000000  1.2552000  3
    350    349    348    355     1  0.0000000  1.2552000  3
    350    349    361    373     1  0.0000000  0.6508444  3
    350    349    361    362     1  0.0000000  0.6508444  3
    350    349    361    363     1  0.0000000  0.6508444  3
    351    349    348    352     1  0.0000000  1.2552000  3
    351    349    348    355     1  0.0000000  1.2552000  3
    351    349    361    373     1  0.0000000  0.6508444  3
    351    349    361    362     1  0.0000000  0.6508444  3
    351    349    361    363     1  0.0000000  0.6508444  3
    352    348    355    356     1  0.0000000  1.2552000  3
    352    348    355    357     1  0.0000000  1.2552000  3
    352    364    370    371     1  0.0000000  0.6508444  3
    352    364    370    372     1  0.0000000  0.6508444  3
    353    352    348    355     1  0.0000000  1.2552000  3
    353    352    364    370     1  0.0000000  0.6508444  3
    353    352    364    365     1  0.0000000  0.6508444  3
    353    352    364    366     1  0.0000000  0.6508444  3
    354    352    348    355     1  0.0000000  1.2552000  3
    354    352    364    370     1  0.0000000  0.6508444  3
    354    352    364    365     1  0.0000000  0.6508444  3
    354    352    364    366     1  0.0000000  0.6508444  3
    355    358    367    368     1  0.0000000  0.6508444  3
    355    358    367    369     1  0.0000000  0.6508444  3
    356    355    358    367     1  0.0000000  0.6508444  3
    356    355    358    359     1  0.0000000  0.6508444  3
    356    355    358    360     1  0.0000000  0.6508444  3
    357    355    358    367     1  0.0000000  0.6508444  3
    357    355    358    359     1  0.0000000  0.6508444  3
    357    355    358    360     1  0.0000000  0.6508444  3
    359    358    367    376     1  0.0000000  1.0460000  1
    359    358    367    376     1  0.0000000  0.0000000  3
    359    358    367    368     1  0.0000000  0.6508444  3
    359    358    367    369     1  0.0000000  0.6508444  3
    360    358    367    376     1  0.0000000  1.0460000  1
    360    358    367    376     1  0.0000000  0.0000000  3
    360    358    367    368     1  0.0000000  0.6508444  3
    360    358    367    369     1  0.0000000  0.6508444  3
    362    361    373    811     1  0.0000000  1.0460000  1
    362    361    373    811     1  0.0000000  0.0000000  3
    362    361    373    374     1  0.0000000  0.6508444  3
    362    361    373    375     1  0.0000000  0.6508444  3
    363    361    373    811     1  0.0000000  1.0460000  1
    363    361    373    811     1  0.0000000  0.0000000  3
    363    361    373    374     1  0.0000000  0.6508444  3
    363    361    373    375     1  0.0000000  0.6508444  3
    365    364    370    782     1  0.0000000  1.0460000  1
    365    364    370    782     1  0.0000000  0.0000000  3
    365    364    370    371     1  0.0000000  0.6508444  3
    365    364    370    372     1  0.0000000  0.6508444  3
    366    364    370    782     1  0.0000000  1.0460000  1
    366    364    370    782     1  0.0000000  0.0000000  3
    366    364    370    371     1  0.0000000  0.6508444  3
    366    364    370    372     1  0.0000000  0.6508444  3
    370    782    773    774     1  0.0000000  1.6038667  3
    370    782    773    775     1  0.0000000  1.6038667  3
    371    370    782    773     1  0.0000000  1.6038667  3
    372    370    782    773     1  0.0000000  1.6038667  3
    373    811    802    803     1  0.0000000  1.6038667  3
    373    811    802    804     1  0.0000000  1.6038667  3
    374    373    811    802     1  0.0000000  1.6038667  3
    375    373    811    802     1  0.0000000  1.6038667  3
    377    378    390    391     1  0.0000000  0.6508444  3
    377    378    390    392     1  0.0000000  0.6508444  3
    377    381    393    394     1  0.0000000  0.6508444  3
    377    381    393    395     1  0.0000000  0.6508444  3
    377    384    387    388     1  0.0000000  0.6508444  3
    377    384    387    389     1  0.0000000  0.6508444  3
    378    377    381    382     1  0.0000000  1.2552000  3
    378    377    381    383     1  0.0000000  1.2552000  3
    378    377    384    385     1  0.0000000  1.2552000  3
    378    377    384    386     1  0.0000000  1.2552000  3
    378    390    402    403     1  0.0000000  0.6508444  3
    378    390    402    404     1  0.0000000  0.6508444  3
    379    378    377    381     1  0.0000000  1.2552000  3
    379    378    377    384     1  0.0000000  1.2552000  3
    379    378    390    402     1  0.0000000  0.6508444  3
    379    378    390    391     1  0.0000000  0.6508444  3
    379    378    390    392     1  0.0000000  0.6508444  3
    380    378    377    381     1  0.0000000  1.2552000  3
    380    378    377    384     1  0.0000000  1.2552000  3
    380    378    390    402     1  0.0000000  0.6508444  3
    380    378    390    391     1  0.0000000  0.6508444  3
    380    378    390    392     1  0.0000000  0.6508444  3
    381    377    384    385     1  0.0000000  1.2552000  3
    381    377    384    386     1  0.0000000  1.2552000  3
    381    393    399    400     1  0.0000000  0.6508444  3
    381    393    399    401     1  0.0000000  0.6508444  3
    382    381    377    384     1  0.0000000  1.2552000  3
    382    381    393    399     1  0.0000000  0.6508444  3
    382    381    393    394     1  0.0000000  0.6508444  3
    382    381    393    395     1  0.0000000  0.6508444  3
    383    381    377    384     1  0.0000000  1.2552000  3
    383    381    393    399     1  0.0000000  0.6508444  3
    383    381    393    394     1  0.0000000  0.6508444  3
    383    381    393    395     1  0.0000000  0.6508444  3
    384    387    396    397     1  0.0000000  0.6508444  3
    384    387    396    398     1  0.0000000  0.6508444  3
    385    384    387    396     1  0.0000000  0.6508444  3
    385    384    387    388     1  0.0000000  0.6508444  3
    385    384    387    389     1  0.0000000  0.6508444  3
    386    384    387    396     1  0.0000000  0.6508444  3
    386    384    387    388     1  0.0000000  0.6508444  3
    386    384    387    389     1  0.0000000  0.6508444  3
    388    387    396    405     1  0.0000000  1.0460000  1
    388    387    396    405     1  0.0000000  0.0000000  3
    388    387    396    397     1  0.0000000  0.6508444  3
    388    387    396    398     1  0.0000000  0.6508444  3
    389    387    396    405     1  0.0000000  1.0460000  1
    389    387    396    405     1  0.0000000  0.0000000  3
    389    387    396    397     1  0.0000000  0.6508444  3
    389    387    396    398     1  0.0000000  0.6508444  3
    391    390    402    869     1  0.0000000  1.0460000  1
    391    390    402    869     1  0.0000000  0.0000000  3
    391    390    402    403     1  0.0000000  0.6508444  3
    391    390    402    404     1  0.0000000  0.6508444  3
    392    390    402    869     1  0.0000000  1.0460000  1
    392    390    402    869     1  0.0000000  0.0000000  3
    392    390    402    403     1  0.0000000  0.6508444  3
    392    390    402    404     1  0.0000000  0.6508444  3
    394    393    399    840     1  0.0000000  1.0460000  1
    394    393    399    840     1  0.0000000  0.0000000  3
    394    393    399    400     1  0.0000000  0.6508444  3
    394    393    399    401     1  0.0000000  0.6508444  3
    395    393    399    840     1  0.0000000  1.0460000  1
    395    393    399    840     1  0.0000000  0.0000000  3
    395    393    399    400     1  0.0000000  0.6508444  3
    395    393    399    401     1  0.0000000  0.6508444  3
    399    840    831    832     1  0.0000000  1.6038667  3
    399    840    831    833     1  0.0000000  1.6038667  3
    400    399    840    831     1  0.0000000  1.6038667  3
    401    399    840    831     1  0.0000000  1.6038667  3
    402    869    860    861     1  0.0000000  1.6038667  3
    402    869    860    862     1  0.0000000  1.6038667  3
    403    402    869    860     1  0.0000000  1.6038667  3
    404    402    869    860     1  0.0000000  1.6038667  3
    406    407    419    420     1  0.0000000  0.6508444  3
    406    407    419    421     1  0.0000000  0.6508444  3
    406    410    422    423     1  0.0000000  0.6508444  3
    406    410    422    424     1  0.0000000  0.6508444  3
    406    413    416    417     1  0.0000000  0.6508444  3
    406    413    416    418     1  0.0000000  0.6508444  3
    407    406    410    411     1  0.0000000  1.2552000  3
    407    406    410    412     1  0.0000000  1.2552000  3
    407    406    413    414     1  0.0000000  1.2552000  3
    407    406    413    415     1  0.0000000  1.2552000  3
    407    419    431    432     1  0.0000000  0.6508444  3
    407    419    431    433     1  0.0000000  0.6508444  3
    408    407    406    410     1  0.0000000  1.2552000  3
    408    407    406    413     1  0.0000000  1.2552000  3
    408    407    419    431     1  0.0000000  0.6508444  3
    408    407    419    420     1  0.0000000  0.6508444  3
    408    407    419    421     1  0.0000000  0.6508444  3
    409    407    406    410     1  0.0000000  1.2552000  3
    409    407    406    413     1  0.0000000  1.2552000  3
    409    407    419    431     1  0.0000000  0.6508444  3
    409    407    419    420     1  0.0000000  0.6508444  3
    409    407    419    421     1  0.0000000  0.6508444  3
    410    406    413    414     1  0.0000000  1.2552000  3
    410    406    413    415     1  0.0000000  1.2552000  3
    410    422    428    429     1  0.0000000  0.6508444  3
    410    422    428    430     1  0.0000000  0.6508444  3
    411    410    406    413     1  0.0000000  1.2552000  3
    411    410    422    428     1  0.0000000  0.6508444  3
    411    410    422    423     1  0.0000000  0.6508444  3
    411    410    422    424     1  0.0000000  0.6508444  3
    412    410    406    413     1  0.0000000  1.2552000  3
    412    410    422    428     1  0.0000000  0.6508444  3
    412    410    422    423     1  0.0000000  0.6508444  3
    412    410    422    424     1  0.0000000  0.6508444  3
    413    416    425    426     1  0.0000000  0.6508444  3
    413    416    425    427     1  0.0000000  0.6508444  3
    414    413    416    425     1  0.0000000  0.6508444  3
    414    413    416    417     1  0.0000000  0.6508444  3
    414    413    416    418     1  0.0000000  0.6508444  3
    415    413    416    425     1  0.0000000  0.6508444  3
    415    413    416    417     1  0.0000000  0.6508444  3
    415    413    416    418     1  0.0000000  0.6508444  3
    417    416    425    434     1  0.0000000  1.0460000  1
    417    416    425    434     1  0.0000000  0.0000000  3
    417    416    425    426     1  0.0000000  0.6508444  3
    417    416    425    427     1  0.0000000  0.6508444  3
    418    416    425    434     1  0.0000000  1.0460000  1
    418    416    425    434     1  0.0000000  0.0000000  3
    418    416    425    426     1  0.0000000  0.6508444  3
    418    416    425    427     1  0.0000000  0.6508444  3
    420    419    431    896     1  0.0000000  1.0460000  1
    420    419    431    896     1  0.0000000  0.0000000  3
    420    419    431    432     1  0.0000000  0.6508444  3
    420    419    431    433     1  0.0000000  0.6508444  3
    421    419    431    896     1  0.0000000  1.0460000  1
    421    419    431    896     1  0.0000000  0.0000000  3
    421    419    431    432     1  0.0000000  0.6508444  3
    421    419    431    433     1  0.0000000  0.6508444  3
    423    422    428    882     1  0.0000000  1.0460000  1
    423    422    428    882     1  0.0000000  0.0000000  3
    423    422    428    429     1  0.0000000  0.6508444  3
    423    422    428    430     1  0.0000000  0.6508444  3
    424    422    428    882     1  0.0000000  1.0460000  1
    424    422    428    882     1  0.0000000  0.0000000  3
    424    422    428    429     1  0.0000000  0.6508444  3
    424    422    428    430     1  0.0000000  0.6508444  3
    428    882    876    877     1  0.0000000  1.6038667  3
    428    882    876    878     1  0.0000000  1.6038667  3
    429    428    882    876     1  0.0000000  1.6038667  3
    430    428    882    876     1  0.0000000  1.6038667  3
    431    896    890    891     1  0.0000000  1.6038667  3
    431    896    890    892     1  0.0000000  1.6038667  3
    432    431    896    890     1  0.0000000  1.6038667  3
    433    431    896    890     1  0.0000000  1.6038667  3
    435    436    448    449     1  0.0000000  0.6508444  3
    435    436    448    450     1  0.0000000  0.6508444  3
    435    439    451    452     1  0.0000000  0.6508444  3
    435    439    451    453     1  0.0000000  0.6508444  3
    435    442    445    446     1  0.0000000  0.6508444  3
    435    442    445    447     1  0.0000000  0.6508444  3
    436    435    439    440     1  0.0000000  1.2552000  3
    436    435    439    441     1  0.0000000  1.2552000  3
    436    435    442    443     1  0.0000000  1.2552000  3
    436    435    442    444     1  0.0000000  1.2552000  3
    436    448    460    461     1  0.0000000  0.6508444  3
    436    448    460    462     1  0.0000000  0.6508444  3
    437    436    435    439     1  0.0000000  1.2552000  3
    437    436    435    442     1  0.0000000  1.2552000  3
    437    436    448    460     1  0.0000000  0.6508444  3
    437    436    448    449     1  0.0000000  0.6508444  3
    437    436    448    450     1  0.0000000  0.6508444  3
    438    436    435    439     1  0.0000000  1.2552000  3
    438    436    435    442     1  0.0000000  1.2552000  3
    438    436    448    460     1  0.0000000  0.6508444  3
    438    436    448    449     1  0.0000000  0.6508444  3
    438    436    448    450     1  0.0000000  0.6508444  3
    439    435    442    443     1  0.0000000  1.2552000  3
    439    435    442    444     1  0.0000000  1.2552000  3
    439    451    457    458     1  0.0000000  0.6508444  3
    439    451    457    459     1  0.0000000  0.6508444  3
    440    439    435    442     1  0.0000000  1.2552000  3
    440    439    451    457     1  0.0000000  0.6508444  3
    440    439    451    452     1  0.0000000  0.6508444  3
    440    439    451    453     1  0.0000000  0.6508444  3
    441    439    435    442     1  0.0000000  1.2552000  3
    441    439    451    457     1  0.0000000  0.6508444  3
    441    439    451    452     1  0.0000000  0.6508444  3
    441    439    451    453     1  0.0000000  0.6508444  3
    442    445    454    455     1  0.0000000  0.6508444  3
    442    445    454    456     1  0.0000000  0.6508444  3
    443    442    445    454     1  0.0000000  0.6508444  3
    443    442    445    446     1  0.0000000  0.6508444  3
    443    442    445    447     1  0.0000000  0.6508444  3
    444    442    445    454     1  0.0000000  0.6508444  3
    444    442    445    446     1  0.0000000  0.6508444  3
    444    442    445    447     1  0.0000000  0.6508444  3
    446    445    454    463     1  0.0000000  1.0460000  1
    446    445    454    463     1  0.0000000  0.0000000  3
    446    445    454    455     1  0.0000000  0.6508444  3
    446    445    454    456     1  0.0000000  0.6508444  3
    447    445    454    463     1  0.0000000  1.0460000  1
    447    445    454    463     1  0.0000000  0.0000000  3
    447    445    454    455     1  0.0000000  0.6508444  3
    447    445    454    456     1  0.0000000  0.6508444  3
    449    448    460    924     1  0.0000000  1.0460000  1
    449    448    460    924     1  0.0000000  0.0000000  3
    449    448    460    461     1  0.0000000  0.6508444  3
    449    448    460    462     1  0.0000000  0.6508444  3
    450    448    460    924     1  0.0000000  1.0460000  1
    450    448    460    924     1  0.0000000  0.0000000  3
    450    448    460    461     1  0.0000000  0.6508444  3
    450    448    460    462     1  0.0000000  0.6508444  3
    452    451    457    910     1  0.0000000  1.0460000  1
    452    451    457    910     1  0.0000000  0.0000000  3
    452    451    457    458     1  0.0000000  0.6508444  3
    452    451    457    459     1  0.0000000  0.6508444  3
    453    451    457    910     1  0.0000000  1.0460000  1
    453    451    457    910     1  0.0000000  0.0000000  3
    453    451    457    458     1  0.0000000  0.6508444  3
    453    451    457    459     1  0.0000000  0.6508444  3
    457    910    904    905     1  0.0000000  1.6038667  3
    457    910    904    906     1  0.0000000  1.6038667  3
    458    457    910    904     1  0.0000000  1.6038667  3
    459    457    910    904     1  0.0000000  1.6038667  3
    460    924    918    919     1  0.0000000  1.6038667  3
    460    924    918    920     1  0.0000000  1.6038667  3
    461    460    924    918     1  0.0000000  1.6038667  3
    462    460    924    918     1  0.0000000  1.6038667  3
    464    465    477    478     1  0.0000000  0.6508444  3
    464    465    477    479     1  0.0000000  0.6508444  3
    464    468    480    481     1  0.0000000  0.6508444  3
    464    468    480    482     1  0.0000000  0.6508444  3
    464    471    474    475     1  0.0000000  0.6508444  3
    464    471    474    476     1  0.0000000  0.6508444  3
    465    464    468    469     1  0.0000000  1.2552000  3
    465    464    468    470     1  0.0000000  1.2552000  3
    465    464    471    472     1  0.0000000  1.2552000  3
    465    464    471    473     1  0.0000000  1.2552000  3
    465    477    489    490     1  0.0000000  0.6508444  3
    465    477    489    491     1  0.0000000  0.6508444  3
    466    465    464    468     1  0.0000000  1.2552000  3
    466    465    464    471     1  0.0000000  1.2552000  3
    466    465    477    489     1  0.0000000  0.6508444  3
    466    465    477    478     1  0.0000000  0.6508444  3
    466    465    477    479     1  0.0000000  0.6508444  3
    467    465    464    468     1  0.0000000  1.2552000  3
    467    465    464    471     1  0.0000000  1.2552000  3
    467    465    477    489     1  0.0000000  0.6508444  3
    467    465    477    478     1  0.0000000  0.6508444  3
    467    465    477    479     1  0.0000000  0.6508444  3
    468    464    471    472     1  0.0000000  1.2552000  3
    468    464    471    473     1  0.0000000  1.2552000  3
    468    480    486    487     1  0.0000000  0.6508444  3
    468    480    486    488     1  0.0000000  0.6508444  3
    469    468    464    471     1  0.0000000  1.2552000  3
    469    468    480    486     1  0.0000000  0.6508444  3
    469    468    480    481     1  0.0000000  0.6508444  3
    469    468    480    482     1  0.0000000  0.6508444  3
    470    468    464    471     1  0.0000000  1.2552000  3
    470    468    480    486     1  0.0000000  0.6508444  3
    470    468    480    481     1  0.0000000  0.6508444  3
    470    468    480    482     1  0.0000000  0.6508444  3
    471    474    483    484     1  0.0000000  0.6508444  3
    471    474    483    485     1  0.0000000  0.6508444  3
    472    471    474    483     1  0.0000000  0.6508444  3
    472    471    474    475     1  0.0000000  0.6508444  3
    472    471    474    476     1  0.0000000  0.6508444  3
    473    471    474    483     1  0.0000000  0.6508444  3
    473    471    474    475     1  0.0000000  0.6508444  3
    473    471    474    476     1  0.0000000  0.6508444  3
    475    474    483    492     1  0.0000000  1.0460000  1
    475    474    483    492     1  0.0000000  0.0000000  3
    475    474    483    484     1  0.0000000  0.6508444  3
    475    474    483    485     1  0.0000000  0.6508444  3
    476    474    483    492     1  0.0000000  1.0460000  1
    476    474    483    492     1  0.0000000  0.0000000  3
    476    474    483    484     1  0.0000000  0.6508444  3
    476    474    483    485     1  0.0000000  0.6508444  3
    478    477    489    952     1  0.0000000  1.0460000  1
    478    477    489    952     1  0.0000000  0.0000000  3
    478    477    489    490     1  0.0000000  0.6508444  3
    478    477    489    491     1  0.0000000  0.6508444  3
    479    477    489    952     1  0.0000000  1.0460000  1
    479    477    489    952     1  0.0000000  0.0000000  3
    479    477    489    490     1  0.0000000  0.6508444  3
    479    477    489    491     1  0.0000000  0.6508444  3
    481    480    486    938     1  0.0000000  1.0460000  1
    481    480    486    938     1  0.0000000  0.0000000  3
    481    480    486    487     1  0.0000000  0.6508444  3
    481    480    486    488     1  0.0000000  0.6508444  3
    482    480    486    938     1  0.0000000  1.0460000  1
    482    480    486    938     1  0.0000000  0.0000000  3
    482    480    486    487     1  0.0000000  0.6508444  3
    482    480    486    488     1  0.0000000  0.6508444  3
    486    938    932    933     1  0.0000000  1.6038667  3
    486    938    932    934     1  0.0000000  1.6038667  3
    487    486    938    932     1  0.0000000  1.6038667  3
    488    486    938    932     1  0.0000000  1.6038667  3
    489    952    946    947     1  0.0000000  1.6038667  3
    489    952    946    948     1  0.0000000  1.6038667  3
    490    489    952    946     1  0.0000000  1.6038667  3
    491    489    952    946     1  0.0000000  1.6038667  3
    493    494    506    507     1  0.0000000  0.6508444  3
    493    494    506    508     1  0.0000000  0.6508444  3
    493    497    509    510     1  0.0000000  0.6508444  3
    493    497    509    511     1  0.0000000  0.6508444  3
    493    500    503    504     1  0.0000000  0.6508444  3
    493    500    503    505     1  0.0000000  0.6508444  3
    494    493    497    498     1  0.0000000  1.2552000  3
    494    493    497    499     1  0.0000000  1.2552000  3
    494    493    500    501     1  0.0000000  1.2552000  3
    494    493    500    502     1  0.0000000  1.2552000  3
    494    506    518    519     1  0.0000000  0.6508444  3
    494    506    518    520     1  0.0000000  0.6508444  3
    495    494    493    497     1  0.0000000  1.2552000  3
    495    494    493    500     1  0.0000000  1.2552000  3
    495    494    506    518     1  0.0000000  0.6508444  3
    495    494    506    507     1  0.0000000  0.6508444  3
    495    494    506    508     1  0.0000000  0.6508444  3
    496    494    493    497     1  0.0000000  1.2552000  3
    496    494    493    500     1  0.0000000  1.2552000  3
    496    494    506    518     1  0.0000000  0.6508444  3
    496    494    506    507     1  0.0000000  0.6508444  3
    496    494    506    508     1  0.0000000  0.6508444  3
    497    493    500    501     1  0.0000000  1.2552000  3
    497    493    500    502     1  0.0000000  1.2552000  3
    497    509    515    516     1  0.0000000  0.6508444  3
    497    509    515    517     1  0.0000000  0.6508444  3
    498    497    493    500     1  0.0000000  1.2552000  3
    498    497    509    515     1  0.0000000  0.6508444  3
    498    497    509    510     1  0.0000000  0.6508444  3
    498    497    509    511     1  0.0000000  0.6508444  3
    499    497    493    500     1  0.0000000  1.2552000  3
    499    497    509    515     1  0.0000000  0.6508444  3
    499    497    509    510     1  0.0000000  0.6508444  3
    499    497    509    511     1  0.0000000  0.6508444  3
    500    503    512    513     1  0.0000000  0.6508444  3
    500    503    512    514     1  0.0000000  0.6508444  3
    501    500    503    512     1  0.0000000  0.6508444  3
    501    500    503    504     1  0.0000000  0.6508444  3
    501    500    503    505     1  0.0000000  0.6508444  3
    502    500    503    512     1  0.0000000  0.6508444  3
    502    500    503    504     1  0.0000000  0.6508444  3
    502    500    503    505     1  0.0000000  0.6508444  3
    504    503    512    521     1  0.0000000  1.0460000  1
    504    503    512    521     1  0.0000000  0.0000000  3
    504    503    512    513     1  0.0000000  0.6508444  3
    504    503    512    514     1  0.0000000  0.6508444  3
    505    503    512    521     1  0.0000000  1.0460000  1
    505    503    512    521     1  0.0000000  0.0000000  3
    505    503    512    513     1  0.0000000  0.6508444  3
    505    503    512    514     1  0.0000000  0.6508444  3
    507    506    518    980     1  0.0000000  1.0460000  1
    507    506    518    980     1  0.0000000  0.0000000  3
    507    506    518    519     1  0.0000000  0.6508444  3
    507    506    518    520     1  0.0000000  0.6508444  3
    508    506    518    980     1  0.0000000  1.0460000  1
    508    506    518    980     1  0.0000000  0.0000000  3
    508    506    518    519     1  0.0000000  0.6508444  3
    508    506    518    520     1  0.0000000  0.6508444  3
    510    509    515    966     1  0.0000000  1.0460000  1
    510    509    515    966     1  0.0000000  0.0000000  3
    510    509    515    516     1  0.0000000  0.6508444  3
    510    509    515    517     1  0.0000000  0.6508444  3
    511    509    515    966     1  0.0000000  1.0460000  1
    511    509    515    966     1  0.0000000  0.0000000  3
    511    509    515    516     1  0.0000000  0.6508444  3
    511    509    515    517     1  0.0000000  0.6508444  3
    515    966    960    961     1  0.0000000  1.6038667  3
    515    966    960    962     1  0.0000000  1.6038667  3
    516    515    966    960     1  0.0000000  1.6038667  3
    517    515    966    960     1  0.0000000  1.6038667  3
    518    980    974    975     1  0.0000000  1.6038667  3
    518    980    974    976     1  0.0000000  1.6038667  3
    519    518    980    974     1  0.0000000  1.6038667  3
    520    518    980    974     1  0.0000000  1.6038667  3
    522    523    535    536     1  0.0000000  0.6508444  3
    522    523    535    537     1  0.0000000  0.6508444  3
    522    526    538    539     1  0.0000000  0.6508444  3
    522    526    538    540     1  0.0000000  0.6508444  3
    522    529    532    533     1  0.0000000  0.6508444  3
    522    529    532    534     1  0.0000000  0.6508444  3
    523    522    526    527     1  0.0000000  1.2552000  3
    523    522    526    528     1  0.0000000  1.2552000  3
    523    522    529    530     1  0.0000000  1.2552000  3
    523    522    529    531     1  0.0000000  1.2552000  3
    523    535    547    548     1  0.0000000  0.6508444  3
    523    535    547    549     1  0.0000000  0.6508444  3
    524    523    522    526     1  0.0000000  1.2552000  3
    524    523    522    529     1  0.0000000  1.2552000  3
    524    523    535    547     1  0.0000000  0.6508444  3
    524    523    535    536     1  0.0000000  0.6508444  3
    524    523    535    537     1  0.0000000  0.6508444  3
    525    523    522    526     1  0.0000000  1.2552000  3
    525    523    522    529     1  0.0000000  1.2552000  3
    525    523    535    547     1  0.0000000  0.6508444  3
    525    523    535    536     1  0.0000000  0.6508444  3
    525    523    535    537     1  0.0000000  0.6508444  3
    526    522    529    530     1  0.0000000  1.2552000  3
    526    522    529    531     1  0.0000000  1.2552000  3
    526    538    544    545     1  0.0000000  0.6508444  3
    526    538    544    546     1  0.0000000  0.6508444  3
    527    526    522    529     1  0.0000000  1.2552000  3
    527    526    538    544     1  0.0000000  0.6508444  3
    527    526    538    539     1  0.0000000  0.6508444  3
    527    526    538    540     1  0.0000000  0.6508444  3
    528    526    522    529     1  0.0000000  1.2552000  3
    528    526    538    544     1  0.0000000  0.6508444  3
    528    526    538    539     1  0.0000000  0.6508444  3
    528    526    538    540     1  0.0000000  0.6508444  3
    529    532    541    542     1  0.0000000  0.6508444  3
    529    532    541    543     1  0.0000000  0.6508444  3
    530    529    532    541     1  0.0000000  0.6508444  3
    530    529    532    533     1  0.0000000  0.6508444  3
    530    529    532    534     1  0.0000000  0.6508444  3
    531    529    532    541     1  0.0000000  0.6508444  3
    531    529    532    533     1  0.0000000  0.6508444  3
    531    529    532    534     1  0.0000000  0.6508444  3
    533    532    541    550     1  0.0000000  1.0460000  1
    533    532    541    550     1  0.0000000  0.0000000  3
    533    532    541    542     1  0.0000000  0.6508444  3
    533    532    541    543     1  0.0000000  0.6508444  3
    534    532    541    550     1  0.0000000  1.0460000  1
    534    532    541    550     1  0.0000000  0.0000000  3
    534    532    541    542     1  0.0000000  0.6508444  3
    534    532    541    543     1  0.0000000  0.6508444  3
    536    535    547   1008     1  0.0000000  1.0460000  1
    536    535    547   1008     1  0.0000000  0.0000000  3
    536    535    547    548     1  0.0000000  0.6508444  3
    536    535    547    549     1  0.0000000  0.6508444  3
    537    535    547   1008     1  0.0000000  1.0460000  1
    537    535    547   1008     1  0.0000000  0.0000000  3
    537    535    547    548     1  0.0000000  0.6508444  3
    537    535    547    549     1  0.0000000  0.6508444  3
    539    538    544    994     1  0.0000000  1.0460000  1
    539    538    544    994     1  0.0000000  0.0000000  3
    539    538    544    545     1  0.0000000  0.6508444  3
    539    538    544    546     1  0.0000000  0.6508444  3
    540    538    544    994     1  0.0000000  1.0460000  1
    540    538    544    994     1  0.0000000  0.0000000  3
    540    538    544    545     1  0.0000000  0.6508444  3
    540    538    544    546     1  0.0000000  0.6508444  3
    544    994    988    989     1  0.0000000  1.6038667  3
    544    994    988    990     1  0.0000000  1.6038667  3
    545    544    994    988     1  0.0000000  1.6038667  3
    546    544    994    988     1  0.0000000  1.6038667  3
    547   1008   1002   1003     1  0.0000000  1.6038667  3
    547   1008   1002   1004     1  0.0000000  1.6038667  3
    548    547   1008   1002     1  0.0000000  1.6038667  3
    549    547   1008   1002     1  0.0000000  1.6038667  3
    551    552    564    565     1  0.0000000  0.6508444  3
    551    552    564    566     1  0.0000000  0.6508444  3
    551    555    567    568     1  0.0000000  0.6508444  3
    551    555    567    569     1  0.0000000  0.6508444  3
    551    558    561    562     1  0.0000000  0.6508444  3
    551    558    561    563     1  0.0000000  0.6508444  3
    552    551    555    556     1  0.0000000  1.2552000  3
    552    551    555    557     1  0.0000000  1.2552000  3
    552    551    558    559     1  0.0000000  1.2552000  3
    552    551    558    560     1  0.0000000  1.2552000  3
    552    564    576    577     1  0.0000000  0.6508444  3
    552    564    576    578     1  0.0000000  0.6508444  3
    553    552    551    555     1  0.0000000  1.2552000  3
    553    552    551    558     1  0.0000000  1.2552000  3
    553    552    564    576     1  0.0000000  0.6508444  3
    553    552    564    565     1  0.0000000  0.6508444  3
    553    552    564    566     1  0.0000000  0.6508444  3
    554    552    551    555     1  0.0000000  1.2552000  3
    554    552    551    558     1  0.0000000  1.2552000  3
    554    552    564    576     1  0.0000000  0.6508444  3
    554    552    564    565     1  0.0000000  0.6508444  3
    554    552    564    566     1  0.0000000  0.6508444  3
    555    551    558    559     1  0.0000000  1.2552000  3
    555    551    558    560     1  0.0000000  1.2552000  3
    555    567    573    574     1  0.0000000  0.6508444  3
    555    567    573    575     1  0.0000000  0.6508444  3
    556    555    551    558     1  0.0000000  1.2552000  3
    556    555    567    573     1  0.0000000  0.6508444  3
    556    555    567    568     1  0.0000000  0.6508444  3
    556    555    567    569     1  0.0000000  0.6508444  3
    557    555    551    558     1  0.0000000  1.2552000  3
    557    555    567    573     1  0.0000000  0.6508444  3
    557    555    567    568     1  0.0000000  0.6508444  3
    557    555    567    569     1  0.0000000  0.6508444  3
    558    561    570    571     1  0.0000000  0.6508444  3
    558    561    570    572     1  0.0000000  0.6508444  3
    559    558    561    570     1  0.0000000  0.6508444  3
    559    558    561    562     1  0.0000000  0.6508444  3
    559    558    561    563     1  0.0000000  0.6508444  3
    560    558    561    570     1  0.0000000  0.6508444  3
    560    558    561    562     1  0.0000000  0.6508444  3
    560    558    561    563     1  0.0000000  0.6508444  3
    562    561    570    579     1  0.0000000  1.0460000  1
    562    561    570    579     1  0.0000000  0.0000000  3
    562    561    570    571     1  0.0000000  0.6508444  3
    562    561    570    572     1  0.0000000  0.6508444  3
    563    561    570    579     1  0.0000000  1.0460000  1
    563    561    570    579     1  0.0000000  0.0000000  3
    563    561    570    571     1  0.0000000  0.6508444  3
    563    561    570    572     1  0.0000000  0.6508444  3
    565    564    576   1036     1  0.0000000  1.0460000  1
    565    564    576   1036     1  0.0000000  0.0000000  3
    565    564    576    577     1  0.0000000  0.6508444  3
    565    564    576    578     1  0.0000000  0.6508444  3
    566    564    576   1036     1  0.0000000  1.0460000  1
    566    564    576   1036     1  0.0000000  0.0000000  3
    566    564    576    577     1  0.0000000  0.6508444  3
    566    564    576    578     1  0.0000000  0.6508444  3
    568    567    573   1022     1  0.0000000  1.0460000  1
    568    567    573   1022     1  0.0000000  0.0000000  3
    568    567    573    574     1  0.0000000  0.6508444  3
    568    567    573    575     1  0.0000000  0.6508444  3
    569    567    573   1022     1  0.0000000  1.0460000  1
    569    567    573   1022     1  0.0000000  0.0000000  3
    569    567    573    574     1  0.0000000  0.6508444  3
    569    567    573    575     1  0.0000000  0.6508444  3
    573   1022   1016   1017     1  0.0000000  1.6038667  3
    573   1022   1016   1018     1  0.0000000  1.6038667  3
    574    573   1022   1016     1  0.0000000  1.6038667  3
    575    573   1022   1016     1  0.0000000  1.6038667  3
    576   1036   1030   1031     1  0.0000000  1.6038667  3
    576   1036   1030   1032     1  0.0000000  1.6038667  3
    577    576   1036   1030     1  0.0000000  1.6038667  3
    578    576   1036   1030     1  0.0000000  1.6038667  3
    580    581    593    594     1  0.0000000  0.6508444  3
    580    581    593    595     1  0.0000000  0.6508444  3
    580    584    596    597     1  0.0000000  0.6508444  3
    580    584    596    598     1  0.0000000  0.6508444  3
    580    587    590    591     1  0.0000000  0.6508444  3
    580    587    590    592     1  0.0000000  0.6508444  3
    581    580    584    585     1  0.0000000  1.2552000  3
    581    580    584    586     1  0.0000000  1.2552000  3
    581    580    587    588     1  0.0000000  1.2552000  3
    581    580    587    589     1  0.0000000  1.2552000  3
    581    593    605    606     1  0.0000000  0.6508444  3
    581    593    605    607     1  0.0000000  0.6508444  3
    582    581    580    584     1  0.0000000  1.2552000  3
    582    581    580    587     1  0.0000000  1.2552000  3
    582    581    593    605     1  0.0000000  0.6508444  3
    582    581    593    594     1  0.0000000  0.6508444  3
    582    581    593    595     1  0.0000000  0.6508444  3
    583    581    580    584     1  0.0000000  1.2552000  3
    583    581    580    587     1  0.0000000  1.2552000  3
    583    581    593    605     1  0.0000000  0.6508444  3
    583    581    593    594     1  0.0000000  0.6508444  3
    583    581    593    595     1  0.0000000  0.6508444  3
    584    580    587    588     1  0.0000000  1.2552000  3
    584    580    587    589     1  0.0000000  1.2552000  3
    584    596    602    603     1  0.0000000  0.6508444  3
    584    596    602    604     1  0.0000000  0.6508444  3
    585    584    580    587     1  0.0000000  1.2552000  3
    585    584    596    602     1  0.0000000  0.6508444  3
    585    584    596    597     1  0.0000000  0.6508444  3
    585    584    596    598     1  0.0000000  0.6508444  3
    586    584    580    587     1  0.0000000  1.2552000  3
    586    584    596    602     1  0.0000000  0.6508444  3
    586    584    596    597     1  0.0000000  0.6508444  3
    586    584    596    598     1  0.0000000  0.6508444  3
    587    590    599    600     1  0.0000000  0.6508444  3
    587    590    599    601     1  0.0000000  0.6508444  3
    588    587    590    599     1  0.0000000  0.6508444  3
    588    587    590    591     1  0.0000000  0.6508444  3
    588    587    590    592     1  0.0000000  0.6508444  3
    589    587    590    599     1  0.0000000  0.6508444  3
    589    587    590    591     1  0.0000000  0.6508444  3
    589    587    590    592     1  0.0000000  0.6508444  3
    591    590    599    608     1  0.0000000  1.0460000  1
    591    590    599    608     1  0.0000000  0.0000000  3
    591    590    599    600     1  0.0000000  0.6508444  3
    591    590    599    601     1  0.0000000  0.6508444  3
    592    590    599    608     1  0.0000000  1.0460000  1
    592    590    599    608     1  0.0000000  0.0000000  3
    592    590    599    600     1  0.0000000  0.6508444  3
    592    590    599    601     1  0.0000000  0.6508444  3
    594    593    605   1064     1  0.0000000  1.0460000  1
    594    593    605   1064     1  0.0000000  0.0000000  3
    594    593    605    606     1  0.0000000  0.6508444  3
    594    593    605    607     1  0.0000000  0.6508444  3
    595    593    605   1064     1  0.0000000  1.0460000  1
    595    593    605   1064     1  0.0000000  0.0000000  3
    595    593    605    606     1  0.0000000  0.6508444  3
    595    593    605    607     1  0.0000000  0.6508444  3
    597    596    602   1050     1  0.0000000  1.0460000  1
    597    596    602   1050     1  0.0000000  0.0000000  3
    597    596    602    603     1  0.0000000  0.6508444  3
    597    596    602    604     1  0.0000000  0.6508444  3
    598    596    602   1050     1  0.0000000  1.0460000  1
    598    596    602   1050     1  0.0000000  0.0000000  3
    598    596    602    603     1  0.0000000  0.6508444  3
    598    596    602    604     1  0.0000000  0.6508444  3
    602   1050   1044   1045     1  0.0000000  1.6038667  3
    602   1050   1044   1046     1  0.0000000  1.6038667  3
    603    602   1050   1044     1  0.0000000  1.6038667  3
    604    602   1050   1044     1  0.0000000  1.6038667  3
    605   1064   1058   1059     1  0.0000000  1.6038667  3
    605   1064   1058   1060     1  0.0000000  1.6038667  3
    606    605   1064   1058     1  0.0000000  1.6038667  3
    607    605   1064   1058     1  0.0000000  1.6038667  3
    609    610    622    623     1  0.0000000  0.6508444  3
    609    610    622    624     1  0.0000000  0.6508444  3
    609    613    625    626     1  0.0000000  0.6508444  3
    609    613    625    627     1  0.0000000  0.6508444  3
    609    616    619    620     1  0.0000000  0.6508444  3
    609    616    619    621     1  0.0000000  0.6508444  3
    610    609    613    614     1  0.0000000  1.2552000  3
    610    609    613    615     1  0.0000000  1.2552000  3
    610    609    616    617     1  0.0000000  1.2552000  3
    610    609    616    618     1  0.0000000  1.2552000  3
    610    622    634    635     1  0.0000000  0.6508444  3
    610    622    634    636     1  0.0000000  0.6508444  3
    611    610    609    613     1  0.0000000  1.2552000  3
    611    610    609    616     1  0.0000000  1.2552000  3
    611    610    622    634     1  0.0000000  0.6508444  3
    611    610    622    623     1  0.0000000  0.6508444  3
    611    610    622    624     1  0.0000000  0.6508444  3
    612    610    609    613     1  0.0000000  1.2552000  3
    612    610    609    616     1  0.0000000  1.2552000  3
    612    610    622    634     1  0.0000000  0.6508444  3
    612    610    622    623     1  0.0000000  0.6508444  3
    612    610    622    624     1  0.0000000  0.6508444  3
    613    609    616    617     1  0.0000000  1.2552000  3
    613    609    616    618     1  0.0000000  1.2552000  3
    613    625    631    632     1  0.0000000  0.6508444  3
    613    625    631    633     1  0.0000000  0.6508444  3
    614    613    609    616     1  0.0000000  1.2552000  3
    614    613    625    631     1  0.0000000  0.6508444  3
    614    613    625    626     1  0.0000000  0.6508444  3
    614    613    625    627     1  0.0000000  0.6508444  3
    615    613    609    616     1  0.0000000  1.2552000  3
    615    613    625    631     1  0.0000000  0.6508444  3
    615    613    625    626     1  0.0000000  0.6508444  3
    615    613    625    627     1  0.0000000  0.6508444  3
    616    619    628    629     1  0.0000000  0.6508444  3
    616    619    628    630     1  0.0000000  0.6508444  3
    617    616    619    628     1  0.0000000  0.6508444  3
    617    616    619    620     1  0.0000000  0.6508444  3
    617    616    619    621     1  0.0000000  0.6508444  3
    618    616    619    628     1  0.0000000  0.6508444  3
    618    616    619    620     1  0.0000000  0.6508444  3
    618    616    619    621     1  0.0000000  0.6508444  3
    620    619    628    637     1  0.0000000  1.0460000  1
    620    619    628    637     1  0.0000000  0.0000000  3
    620    619    628    629     1  0.0000000  0.6508444  3
    620    619    628    630     1  0.0000000  0.6508444  3
    621    619    628    637     1  0.0000000  1.0460000  1
    621    619    628    637     1  0.0000000  0.0000000  3
    621    619    628    629     1  0.0000000  0.6508444  3
    621    619    628    630     1  0.0000000  0.6508444  3
    623    622    634   1092     1  0.0000000  1.0460000  1
    623    622    634   1092     1  0.0000000  0.0000000  3
    623    622    634    635     1  0.0000000  0.6508444  3
    623    622    634    636     1  0.0000000  0.6508444  3
    624    622    634   1092     1  0.0000000  1.0460000  1
    624    622    634   1092     1  0.0000000  0.0000000  3
    624    622    634    635     1  0.0000000  0.6508444  3
    624    622    634    636     1  0.0000000  0.6508444  3
    626    625    631   1078     1  0.0000000  1.0460000  1
    626    625    631   1078     1  0.0000000  0.0000000  3
    626    625    631    632     1  0.0000000  0.6508444  3
    626    625    631    633     1  0.0000000  0.6508444  3
    627    625    631   1078     1  0.0000000  1.0460000  1
    627    625    631   1078     1  0.0000000  0.0000000  3
    627    625    631    632     1  0.0000000  0.6508444  3
    627    625    631    633     1  0.0000000  0.6508444  3
    631   1078   1072   1073     1  0.0000000  1.6038667  3
    631   1078   1072   1074     1  0.0000000  1.6038667  3
    632    631   1078   1072     1  0.0000000  1.6038667  3
    633    631   1078   1072     1  0.0000000  1.6038667  3
    634   1092   1086   1087     1  0.0000000  1.6038667  3
    634   1092   1086   1088     1  0.0000000  1.6038667  3
    635    634   1092   1086     1  0.0000000  1.6038667  3
    636    634   1092   1086     1  0.0000000  1.6038667  3
    638    639    651    652     1  0.0000000  0.6508444  3
    638    639    651    653     1  0.0000000  0.6508444  3
    638    642    654    655     1  0.0000000  0.6508444  3
    638    642    654    656     1  0.0000000  0.6508444  3
    638    645    648    649     1  0.0000000  0.6508444  3
    638    645    648    650     1  0.0000000  0.6508444  3
    639    638    642    643     1  0.0000000  1.2552000  3
    639    638    642    644     1  0.0000000  1.2552000  3
    639    638    645    646     1  0.0000000  1.2552000  3
    639    638    645    647     1  0.0000000  1.2552000  3
    639    651    663    664     1  0.0000000  0.6508444  3
    639    651    663    665     1  0.0000000  0.6508444  3
    640    639    638    642     1  0.0000000  1.2552000  3
    640    639    638    645     1  0.0000000  1.2552000  3
    640    639    651    663     1  0.0000000  0.6508444  3
    640    639    651    652     1  0.0000000  0.6508444  3
    640    639    651    653     1  0.0000000  0.6508444  3
    641    639    638    642     1  0.0000000  1.2552000  3
    641    639    638    645     1  0.0000000  1.2552000  3
    641    639    651    663     1  0.0000000  0.6508444  3
    641    639    651    652     1  0.0000000  0.6508444  3
    641    639    651    653     1  0.0000000  0.6508444  3
    642    638    645    646     1  0.0000000  1.2552000  3
    642    638    645    647     1  0.0000000  1.2552000  3
    642    654    660    661     1  0.0000000  0.6508444  3
    642    654    660    662     1  0.0000000  0.6508444  3
    643    642    638    645     1  0.0000000  1.2552000  3
    643    642    654    660     1  0.0000000  0.6508444  3
    643    642    654    655     1  0.0000000  0.6508444  3
    643    642    654    656     1  0.0000000  0.6508444  3
    644    642    638    645     1  0.0000000  1.2552000  3
    644    642    654    660     1  0.0000000  0.6508444  3
    644    642    654    655     1  0.0000000  0.6508444  3
    644    642    654    656     1  0.0000000  0.6508444  3
    645    648    657    658     1  0.0000000  0.6508444  3
    645    648    657    659     1  0.0000000  0.6508444  3
    646    645    648    657     1  0.0000000  0.6508444  3
    646    645    648    649     1  0.0000000  0.6508444  3
    646    645    648    650     1  0.0000000  0.6508444  3
    647    645    648    657     1  0.0000000  0.6508444  3
    647    645    648    649     1  0.0000000  0.6508444  3
    647    645    648    650     1  0.0000000  0.6508444  3
    649    648    657    666     1  0.0000000  1.0460000  1
    649    648    657    666     1  0.0000000  0.0000000  3
    649    648    657    658     1  0.0000000  0.6508444  3
    649    648    657    659     1  0.0000000  0.6508444  3
    650    648    657    666     1  0.0000000  1.0460000  1
    650    648    657    666     1  0.0000000  0.0000000  3
    650    648    657    658     1  0.0000000  0.6508444  3
    650    648    657    659     1  0.0000000  0.6508444  3
    652    651    663   1120     1  0.0000000  1.0460000  1
    652    651    663   1120     1  0.0000000  0.0000000  3
    652    651    663    664     1  0.0000000  0.6508444  3
    652    651    663    665     1  0.0000000  0.6508444  3
    653    651    663   1120     1  0.0000000  1.0460000  1
    653    651    663   1120     1  0.0000000  0.0000000  3
    653    651    663    664     1  0.0000000  0.6508444  3
    653    651    663    665     1  0.0000000  0.6508444  3
    655    654    660   1106     1  0.0000000  1.0460000  1
    655    654    660   1106     1  0.0000000  0.0000000  3
    655    654    660    661     1  0.0000000  0.6508444  3
    655    654    660    662     1  0.0000000  0.6508444  3
    656    654    660   1106     1  0.0000000  1.0460000  1
    656    654    660   1106     1  0.0000000  0.0000000  3
    656    654    660    661     1  0.0000000  0.6508444  3
    656    654    660    662     1  0.0000000  0.6508444  3
    660   1106   1100   1101     1  0.0000000  1.6038667  3
    660   1106   1100   1102     1  0.0000000  1.6038667  3
    661    660   1106   1100     1  0.0000000  1.6038667  3
    662    660   1106   1100     1  0.0000000  1.6038667  3
    663   1120   1114   1115     1  0.0000000  1.6038667  3
    663   1120   1114   1116     1  0.0000000  1.6038667  3
    664    663   1120   1114     1  0.0000000  1.6038667  3
    665    663   1120   1114     1  0.0000000  1.6038667  3
    667    668    680    681     1  0.0000000  0.6508444  3
    667    668    680    682     1  0.0000000  0.6508444  3
    667    671    683    684     1  0.0000000  0.6508444  3
    667    671    683    685     1  0.0000000  0.6508444  3
    667    674    677    678     1  0.0000000  0.6508444  3
    667    674    677    679     1  0.0000000  0.6508444  3
    668    667    671    672     1  0.0000000  1.2552000  3
    668    667    671    673     1  0.0000000  1.2552000  3
    668    667    674    675     1  0.0000000  1.2552000  3
    668    667    674    676     1  0.0000000  1.2552000  3
    668    680    692    693     1  0.0000000  0.6508444  3
    668    680    692    694     1  0.0000000  0.6508444  3
    669    668    667    671     1  0.0000000  1.2552000  3
    669    668    667    674     1  0.0000000  1.2552000  3
    669    668    680    692     1  0.0000000  0.6508444  3
    669    668    680    681     1  0.0000000  0.6508444  3
    669    668    680    682     1  0.0000000  0.6508444  3
    670    668    667    671     1  0.0000000  1.2552000  3
    670    668    667    674     1  0.0000000  1.2552000  3
    670    668    680    692     1  0.0000000  0.6508444  3
    670    668    680    681     1  0.0000000  0.6508444  3
    670    668    680    682     1  0.0000000  0.6508444  3
    671    667    674    675     1  0.0000000  1.2552000  3
    671    667    674    676     1  0.0000000  1.2552000  3
    671    683    689    690     1  0.0000000  0.6508444  3
    671    683    689    691     1  0.0000000  0.6508444  3
    672    671    667    674     1  0.0000000  1.2552000  3
    672    671    683    689     1  0.0000000  0.6508444  3
    672    671    683    684     1  0.0000000  0.6508444  3
    672    671    683    685     1  0.0000000  0.6508444  3
    673    671    667    674     1  0.0000000  1.2552000  3
    673    671    683    689     1  0.0000000  0.6508444  3
    673    671    683    684     1  0.0000000  0.6508444  3
    673    671    683    685     1  0.0000000  0.6508444  3
    674    677    686    687     1  0.0000000  0.6508444  3
    674    677    686    688     1  0.0000000  0.6508444  3
    675    674    677    686     1  0.0000000  0.6508444  3
    675    674    677    678     1  0.0000000  0.6508444  3
    675    674    677    679     1  0.0000000  0.6508444  3
    676    674    677    686     1  0.0000000  0.6508444  3
    676    674    677    678     1  0.0000000  0.6508444  3
    676    674    677    679     1  0.0000000  0.6508444  3
    678    677    686    695     1  0.0000000  1.0460000  1
    678    677    686    695     1  0.0000000  0.0000000  3
    678    677    686    687     1  0.0000000  0.6508444  3
    678    677    686    688     1  0.0000000  0.6508444  3
    679    677    686    695     1  0.0000000  1.0460000  1
    679    677    686    695     1  0.0000000  0.0000000  3
    679    677    686    687     1  0.0000000  0.6508444  3
    679    677    686    688     1  0.0000000  0.6508444  3
    681    680    692   1148     1  0.0000000  1.0460000  1
    681    680    692   1148     1  0.0000000  0.0000000  3
    681    680    692    693     1  0.0000000  0.6508444  3
    681    680    692    694     1  0.0000000  0.6508444  3
    682    680    692   1148     1  0.0000000  1.0460000  1
    682    680    692   1148     1  0.0000000  0.0000000  3
    682    680    692    693     1  0.0000000  0.6508444  3
    682    680    692    694     1  0.0000000  0.6508444  3
    684    683    689   1134     1  0.0000000  1.0460000  1
    684    683    689   1134     1  0.0000000  0.0000000  3
    684    683    689    690     1  0.0000000  0.6508444  3
    684    683    689    691     1  0.0000000  0.6508444  3
    685    683    689   1134     1  0.0000000  1.0460000  1
    685    683    689   1134     1  0.0000000  0.0000000  3
    685    683    689    690     1  0.0000000  0.6508444  3
    685    683    689    691     1  0.0000000  0.6508444  3
    689   1134   1128   1129     1  0.0000000  1.6038667  3
    689   1134   1128   1130     1  0.0000000  1.6038667  3
    690    689   1134   1128     1  0.0000000  1.6038667  3
    691    689   1134   1128     1  0.0000000  1.6038667  3
    692   1148   1142   1143     1  0.0000000  1.6038667  3
    692   1148   1142   1144     1  0.0000000  1.6038667  3
    693    692   1148   1142     1  0.0000000  1.6038667  3
    694    692   1148   1142     1  0.0000000  1.6038667  3
    696    697    709    710     1  0.0000000  0.6508444  3
    696    697    709    711     1  0.0000000  0.6508444  3
    696    700    712    713     1  0.0000000  0.6508444  3
    696    700    712    714     1  0.0000000  0.6508444  3
    696    703    706    707     1  0.0000000  0.6508444  3
    696    703    706    708     1  0.0000000  0.6508444  3
    697    696    700    701     1  0.0000000  1.2552000  3
    697    696    700    702     1  0.0000000  1.2552000  3
    697    696    703    704     1  0.0000000  1.2552000  3
    697    696    703    705     1  0.0000000  1.2552000  3
    697    709    721    722     1  0.0000000  0.6508444  3
    697    709    721    723     1  0.0000000  0.6508444  3
    698    697    696    700     1  0.0000000  1.2552000  3
    698    697    696    703     1  0.0000000  1.2552000  3
    698    697    709    721     1  0.0000000  0.6508444  3
    698    697    709    710     1  0.0000000  0.6508444  3
    698    697    709    711     1  0.0000000  0.6508444  3
    699    697    696    700     1  0.0000000  1.2552000  3
    699    697    696    703     1  0.0000000  1.2552000  3
    699    697    709    721     1  0.0000000  0.6508444  3
    699    697    709    710     1  0.0000000  0.6508444  3
    699    697    709    711     1  0.0000000  0.6508444  3
    700    696    703    704     1  0.0000000  1.2552000  3
    700    696    703    705     1  0.0000000  1.2552000  3
    700    712    718    719     1  0.0000000  0.6508444  3
    700    712    718    720     1  0.0000000  0.6508444  3
    701    700    696    703     1  0.0000000  1.2552000  3
    701    700    712    718     1  0.0000000  0.6508444  3
    701    700    712    713     1  0.0000000  0.6508444  3
    701    700    712    714     1  0.0000000  0.6508444  3
    702    700    696    703     1  0.0000000  1.2552000  3
    702    700    712    718     1  0.0000000  0.6508444  3
    702    700    712    713     1  0.0000000  0.6508444  3
    702    700    712    714     1  0.0000000  0.6508444  3
    703    706    715    716     1  0.0000000  0.6508444  3
    703    706    715    717     1  0.0000000  0.6508444  3
    704    703    706    715     1  0.0000000  0.6508444  3
    704    703    706    707     1  0.0000000  0.6508444  3
    704    703    706    708     1  0.0000000  0.6508444  3
    705    703    706    715     1  0.0000000  0.6508444  3
    705    703    706    707     1  0.0000000  0.6508444  3
    705    703    706    708     1  0.0000000  0.6508444  3
    707    706    715    724     1  0.0000000  1.0460000  1
    707    706    715    724     1  0.0000000  0.0000000  3
    707    706    715    716     1  0.0000000  0.6508444  3
    707    706    715    717     1  0.0000000  0.6508444  3
    708    706    715    724     1  0.0000000  1.0460000  1
    708    706    715    724     1  0.0000000  0.0000000  3
    708    706    715    716     1  0.0000000  0.6508444  3
    708    706    715    717     1  0.0000000  0.6508444  3
    710    709    721   1176     1  0.0000000  1.0460000  1
    710    709    721   1176     1  0.0000000  0.0000000  3
    710    709    721    722     1  0.0000000  0.6508444  3
    710    709    721    723     1  0.0000000  0.6508444  3
    711    709    721   1176     1  0.0000000  1.0460000  1
    711    709    721   1176     1  0.0000000  0.0000000  3
    711    709    721    722     1  0.0000000  0.6508444  3
    711    709    721    723     1  0.0000000  0.6508444  3
    713    712    718   1162     1  0.0000000  1.0460000  1
    713    712    718   1162     1  0.0000000  0.0000000  3
    713    712    718    719     1  0.0000000  0.6508444  3
    713    712    718    720     1  0.0000000  0.6508444  3
    714    712    718   1162     1  0.0000000  1.0460000  1
    714    712    718   1162     1  0.0000000  0.0000000  3
    714    712    718    719     1  0.0000000  0.6508444  3
    714    712    718    720     1  0.0000000  0.6508444  3
    718   1162   1156   1157     1  0.0000000  1.6038667  3
    718   1162   1156   1158     1  0.0000000  1.6038667  3
    719    718   1162   1156     1  0.0000000  1.6038667  3
    720    718   1162   1156     1  0.0000000  1.6038667  3
    721   1176   1170   1171     1  0.0000000  1.6038667  3
    721   1176   1170   1172     1  0.0000000  1.6038667  3
    722    721   1176   1170     1  0.0000000  1.6038667  3
    723    721   1176   1170     1  0.0000000  1.6038667  3
    725    726    738    739     1  0.0000000  0.6508444  3
    725    726    738    740     1  0.0000000  0.6508444  3
    725    729    741    742     1  0.0000000  0.6508444  3
    725    729    741    743     1  0.0000000  0.6508444  3
    725    732    735    736     1  0.0000000  0.6508444  3
    725    732    735    737     1  0.0000000  0.6508444  3
    726    725    729    730     1  0.0000000  1.2552000  3
    726    725    729    731     1  0.0000000  1.2552000  3
    726    725    732    733     1  0.0000000  1.2552000  3
    726    725    732    734     1  0.0000000  1.2552000  3
    726    738    750    751     1  0.0000000  0.6508444  3
    726    738    750    752     1  0.0000000  0.6508444  3
    727    726    725    729     1  0.0000000  1.2552000  3
    727    726    725    732     1  0.0000000  1.2552000  3
    727    726    738    750     1  0.0000000  0.6508444  3
    727    726    738    739     1  0.0000000  0.6508444  3
    727    726    738    740     1  0.0000000  0.6508444  3
    728    726    725    729     1  0.0000000  1.2552000  3
    728    726    725    732     1  0.0000000  1.2552000  3
    728    726    738    750     1  0.0000000  0.6508444  3
    728    726    738    739     1  0.0000000  0.6508444  3
    728    726    738    740     1  0.0000000  0.6508444  3
    729    725    732    733     1  0.0000000  1.2552000  3
    729    725    732    734     1  0.0000000  1.2552000  3
    729    741    747    748     1  0.0000000  0.6508444  3
    729    741    747    749     1  0.0000000  0.6508444  3
    730    729    725    732     1  0.0000000  1.2552000  3
    730    729    741    747     1  0.0000000  0.6508444  3
    730    729    741    742     1  0.0000000  0.6508444  3
    730    729    741    743     1  0.0000000  0.6508444  3
    731    729    725    732     1  0.0000000  1.2552000  3
    731    729    741    747     1  0.0000000  0.6508444  3
    731    729    741    742     1  0.0000000  0.6508444  3
    731    729    741    743     1  0.0000000  0.6508444  3
    732    735    744    745     1  0.0000000  0.6508444  3
    732    735    744    746     1  0.0000000  0.6508444  3
    733    732    735    744     1  0.0000000  0.6508444  3
    733    732    735    736     1  0.0000000  0.6508444  3
    733    732    735    737     1  0.0000000  0.6508444  3
    734    732    735    744     1  0.0000000  0.6508444  3
    734    732    735    736     1  0.0000000  0.6508444  3
    734    732    735    737     1  0.0000000  0.6508444  3
    736    735    744    753     1  0.0000000  1.0460000  1
    736    735    744    753     1  0.0000000  0.0000000  3
    736    735    744    745     1  0.0000000  0.6508444  3
    736    735    744    746     1  0.0000000  0.6508444  3
    737    735    744    753     1  0.0000000  1.0460000  1
    737    735    744    753     1  0.0000000  0.0000000  3
    737    735    744    745     1  0.0000000  0.6508444  3
    737    735    744    746     1  0.0000000  0.6508444  3
    739    738    750   1204     1  0.0000000  1.0460000  1
    739    738    750   1204     1  0.0000000  0.0000000  3
    739    738    750    751     1  0.0000000  0.6508444  3
    739    738    750    752     1  0.0000000  0.6508444  3
    740    738    750   1204     1  0.0000000  1.0460000  1
    740    738    750   1204     1  0.0000000  0.0000000  3
    740    738    750    751     1  0.0000000  0.6508444  3
    740    738    750    752     1  0.0000000  0.6508444  3
    742    741    747   1190     1  0.0000000  1.0460000  1
    742    741    747   1190     1  0.0000000  0.0000000  3
    742    741    747    748     1  0.0000000  0.6508444  3
    742    741    747    749     1  0.0000000  0.6508444  3
    743    741    747   1190     1  0.0000000  1.0460000  1
    743    741    747   1190     1  0.0000000  0.0000000  3
    743    741    747    748     1  0.0000000  0.6508444  3
    743    741    747    749     1  0.0000000  0.6508444  3
    747   1190   1184   1185     1  0.0000000  1.6038667  3
    747   1190   1184   1186     1  0.0000000  1.6038667  3
    748    747   1190   1184     1  0.0000000  1.6038667  3
    749    747   1190   1184     1  0.0000000  1.6038667  3
    750   1204   1198   1199     1  0.0000000  1.6038667  3
    750   1204   1198   1200     1  0.0000000  1.6038667  3
    751    750   1204   1198     1  0.0000000  1.6038667  3
    752    750   1204   1198     1  0.0000000  1.6038667  3
    754    755    767    768     1  0.0000000  0.6508444  3
    754    755    767    769     1  0.0000000  0.6508444  3
    754    758    770    771     1  0.0000000  0.6508444  3
    754    758    770    772     1  0.0000000  0.6508444  3
    754    761    764    765     1  0.0000000  0.6508444  3
    754    761    764    766     1  0.0000000  0.6508444  3
    755    754    758    759     1  0.0000000  1.2552000  3
    755    754    758    760     1  0.0000000  1.2552000  3
    755    754    761    762     1  0.0000000  1.2552000  3
    755    754    761    763     1  0.0000000  1.2552000  3
    755    767    779    780     1  0.0000000  0.6508444  3
    755    767    779    781     1  0.0000000  0.6508444  3
    756    755    754    758     1  0.0000000  1.2552000  3
    756    755    754    761     1  0.0000000  1.2552000  3
    756    755    767    779     1  0.0000000  0.6508444  3
    756    755    767    768     1  0.0000000  0.6508444  3
    756    755    767    769     1  0.0000000  0.6508444  3
    757    755    754    758     1  0.0000000  1.2552000  3
    757    755    754    761     1  0.0000000  1.2552000  3
    757    755    767    779     1  0.0000000  0.6508444  3
    757    755    767    768     1  0.0000000  0.6508444  3
    757    755    767    769     1  0.0000000  0.6508444  3
    758    754    761    762     1  0.0000000  1.2552000  3
    758    754    761    763     1  0.0000000  1.2552000  3
    758    770    776    777     1  0.0000000  0.6508444  3
    758    770    776    778     1  0.0000000  0.6508444  3
    759    758    754    761     1  0.0000000  1.2552000  3
    759    758    770    776     1  0.0000000  0.6508444  3
    759    758    770    771     1  0.0000000  0.6508444  3
    759    758    770    772     1  0.0000000  0.6508444  3
    760    758    754    761     1  0.0000000  1.2552000  3
    760    758    770    776     1  0.0000000  0.6508444  3
    760    758    770    771     1  0.0000000  0.6508444  3
    760    758    770    772     1  0.0000000  0.6508444  3
    761    764    773    774     1  0.0000000  0.6508444  3
    761    764    773    775     1  0.0000000  0.6508444  3
    762    761    764    773     1  0.0000000  0.6508444  3
    762    761    764    765     1  0.0000000  0.6508444  3
    762    761    764    766     1  0.0000000  0.6508444  3
    763    761    764    773     1  0.0000000  0.6508444  3
    763    761    764    765     1  0.0000000  0.6508444  3
    763    761    764    766     1  0.0000000  0.6508444  3
    765    764    773    782     1  0.0000000  1.0460000  1
    765    764    773    782     1  0.0000000  0.0000000  3
    765    764    773    774     1  0.0000000  0.6508444  3
    765    764    773    775     1  0.0000000  0.6508444  3
    766    764    773    782     1  0.0000000  1.0460000  1
    766    764    773    782     1  0.0000000  0.0000000  3
    766    764    773    774     1  0.0000000  0.6508444  3
    766    764    773    775     1  0.0000000  0.6508444  3
    768    767    779   1232     1  0.0000000  1.0460000  1
    768    767    779   1232     1  0.0000000  0.0000000  3
    768    767    779    780     1  0.0000000  0.6508444  3
    768    767    779    781     1  0.0000000  0.6508444  3
    769    767    779   1232     1  0.0000000  1.0460000  1
    769    767    779   1232     1  0.0000000  0.0000000  3
    769    767    779    780     1  0.0000000  0.6508444  3
    769    767    779    781     1  0.0000000  0.6508444  3
    771    770    776   1218     1  0.0000000  1.0460000  1
    771    770    776   1218     1  0.0000000  0.0000000  3
    771    770    776    777     1  0.0000000  0.6508444  3
    771    770    776    778     1  0.0000000  0.6508444  3
    772    770    776   1218     1  0.0000000  1.0460000  1
    772    770    776   1218     1  0.0000000  0.0000000  3
    772    770    776    777     1  0.0000000  0.6508444  3
    772    770    776    778     1  0.0000000  0.6508444  3
    776   1218   1212   1213     1  0.0000000  1.6038667  3
    776   1218   1212   1214     1  0.0000000  1.6038667  3
    777    776   1218   1212     1  0.0000000  1.6038667  3
    778    776   1218   1212     1  0.0000000  1.6038667  3
    779   1232   1226   1227     1  0.0000000  1.6038667  3
    779   1232   1226   1228     1  0.0000000  1.6038667  3
    780    779   1232   1226     1  0.0000000  1.6038667  3
    781    779   1232   1226     1  0.0000000  1.6038667  3
    783    784    796    797     1  0.0000000  0.6508444  3
    783    784    796    798     1  0.0000000  0.6508444  3
    783    787    799    800     1  0.0000000  0.6508444  3
    783    787    799    801     1  0.0000000  0.6508444  3
    783    790    793    794     1  0.0000000  0.6508444  3
    783    790    793    795     1  0.0000000  0.6508444  3
    784    783    787    788     1  0.0000000  1.2552000  3
    784    783    787    789     1  0.0000000  1.2552000  3
    784    783    790    791     1  0.0000000  1.2552000  3
    784    783    790    792     1  0.0000000  1.2552000  3
    784    796    808    809     1  0.0000000  0.6508444  3
    784    796    808    810     1  0.0000000  0.6508444  3
    785    784    783    787     1  0.0000000  1.2552000  3
    785    784    783    790     1  0.0000000  1.2552000  3
    785    784    796    808     1  0.0000000  0.6508444  3
    785    784    796    797     1  0.0000000  0.6508444  3
    785    784    796    798     1  0.0000000  0.6508444  3
    786    784    783    787     1  0.0000000  1.2552000  3
    786    784    783    790     1  0.0000000  1.2552000  3
    786    784    796    808     1  0.0000000  0.6508444  3
    786    784    796    797     1  0.0000000  0.6508444  3
    786    784    796    798     1  0.0000000  0.6508444  3
    787    783    790    791     1  0.0000000  1.2552000  3
    787    783    790    792     1  0.0000000  1.2552000  3
    787    799    805    806     1  0.0000000  0.6508444  3
    787    799    805    807     1  0.0000000  0.6508444  3
    788    787    783    790     1  0.0000000  1.2552000  3
    788    787    799    805     1  0.0000000  0.6508444  3
    788    787    799    800     1  0.0000000  0.6508444  3
    788    787    799    801     1  0.0000000  0.6508444  3
    789    787    783    790     1  0.0000000  1.2552000  3
    789    787    799    805     1  0.0000000  0.6508444  3
    789    787    799    800     1  0.0000000  0.6508444  3
    789    787    799    801     1  0.0000000  0.6508444  3
    790    793    802    803     1  0.0000000  0.6508444  3
    790    793    802    804     1  0.0000000  0.6508444  3
    791    790    793    802     1  0.0000000  0.6508444  3
    791    790    793    794     1  0.0000000  0.6508444  3
    791    790    793    795     1  0.0000000  0.6508444  3
    792    790    793    802     1  0.0000000  0.6508444  3
    792    790    793    794     1  0.0000000  0.6508444  3
    792    790    793    795     1  0.0000000  0.6508444  3
    794    793    802    811     1  0.0000000  1.0460000  1
    794    793    802    811     1  0.0000000  0.0000000  3
    794    793    802    803     1  0.0000000  0.6508444  3
    794    793    802    804     1  0.0000000  0.6508444  3
    795    793    802    811     1  0.0000000  1.0460000  1
    795    793    802    811     1  0.0000000  0.0000000  3
    795    793    802    803     1  0.0000000  0.6508444  3
    795    793    802    804     1  0.0000000  0.6508444  3
    797    796    808   1260     1  0.0000000  1.0460000  1
    797    796    808   1260     1  0.0000000  0.0000000  3
    797    796    808    809     1  0.0000000  0.6508444  3
    797    796    808    810     1  0.0000000  0.6508444  3
    798    796    808   1260     1  0.0000000  1.0460000  1
    798    796    808   1260     1  0.0000000  0.0000000  3
    798    796    808    809     1  0.0000000  0.6508444  3
    798    796    808    810     1  0.0000000  0.6508444  3
    800    799    805   1246     1  0.0000000  1.0460000  1
    800    799    805   1246     1  0.0000000  0.0000000  3
    800    799    805    806     1  0.0000000  0.6508444  3
    800    799    805    807     1  0.0000000  0.6508444  3
    801    799    805   1246     1  0.0000000  1.0460000  1
    801    799    805   1246     1  0.0000000  0.0000000  3
    801    799    805    806     1  0.0000000  0.6508444  3
    801    799    805    807     1  0.0000000  0.6508444  3
    805   1246   1240   1241     1  0.0000000  1.6038667  3
    805   1246   1240   1242     1  0.0000000  1.6038667  3
    806    805   1246   1240     1  0.0000000  1.6038667  3
    807    805   1246   1240     1  0.0000000  1.6038667  3
    808   1260   1254   1255     1  0.0000000  1.6038667  3
    808   1260   1254   1256     1  0.0000000  1.6038667  3
    809    808   1260   1254     1  0.0000000  1.6038667  3
    810    808   1260   1254     1  0.0000000  1.6038667  3
    812    813    825    826     1  0.0000000  0.6508444  3
    812    813    825    827     1  0.0000000  0.6508444  3
    812    816    828    829     1  0.0000000  0.6508444  3
    812    816    828    830     1  0.0000000  0.6508444  3
    812    819    822    823     1  0.0000000  0.6508444  3
    812    819    822    824     1  0.0000000  0.6508444  3
    813    812    816    817     1  0.0000000  1.2552000  3
    813    812    816    818     1  0.0000000  1.2552000  3
    813    812    819    820     1  0.0000000  1.2552000  3
    813    812    819    821     1  0.0000000  1.2552000  3
    813    825    837    838     1  0.0000000  0.6508444  3
    813    825    837    839     1  0.0000000  0.6508444  3
    814    813    812    816     1  0.0000000  1.2552000  3
    814    813    812    819     1  0.0000000  1.2552000  3
    814    813    825    837     1  0.0000000  0.6508444  3
    814    813    825    826     1  0.0000000  0.6508444  3
    814    813    825    827     1  0.0000000  0.6508444  3
    815    813    812    816     1  0.0000000  1.2552000  3
    815    813    812    819     1  0.0000000  1.2552000  3
    815    813    825    837     1  0.0000000  0.6508444  3
    815    813    825    826     1  0.0000000  0.6508444  3
    815    813    825    827     1  0.0000000  0.6508444  3
    816    812    819    820     1  0.0000000  1.2552000  3
    816    812    819    821     1  0.0000000  1.2552000  3
    816    828    834    835     1  0.0000000  0.6508444  3
    816    828    834    836     1  0.0000000  0.6508444  3
    817    816    812    819     1  0.0000000  1.2552000  3
    817    816    828    834     1  0.0000000  0.6508444  3
    817    816    828    829     1  0.0000000  0.6508444  3
    817    816    828    830     1  0.0000000  0.6508444  3
    818    816    812    819     1  0.0000000  1.2552000  3
    818    816    828    834     1  0.0000000  0.6508444  3
    818    816    828    829     1  0.0000000  0.6508444  3
    818    816    828    830     1  0.0000000  0.6508444  3
    819    822    831    832     1  0.0000000  0.6508444  3
    819    822    831    833     1  0.0000000  0.6508444  3
    820    819    822    831     1  0.0000000  0.6508444  3
    820    819    822    823     1  0.0000000  0.6508444  3
    820    819    822    824     1  0.0000000  0.6508444  3
    821    819    822    831     1  0.0000000  0.6508444  3
    821    819    822    823     1  0.0000000  0.6508444  3
    821    819    822    824     1  0.0000000  0.6508444  3
    823    822    831    840     1  0.0000000  1.0460000  1
    823    822    831    840     1  0.0000000  0.0000000  3
    823    822    831    832     1  0.0000000  0.6508444  3
    823    822    831    833     1  0.0000000  0.6508444  3
    824    822    831    840     1  0.0000000  1.0460000  1
    824    822    831    840     1  0.0000000  0.0000000  3
    824    822    831    832     1  0.0000000  0.6508444  3
    824    822    831    833     1  0.0000000  0.6508444  3
    826    825    837   1288     1  0.0000000  1.0460000  1
    826    825    837   1288     1  0.0000000  0.0000000  3
    826    825    837    838     1  0.0000000  0.6508444  3
    826    825    837    839     1  0.0000000  0.6508444  3
    827    825    837   1288     1  0.0000000  1.0460000  1
    827    825    837   1288     1  0.0000000  0.0000000  3
    827    825    837    838     1  0.0000000  0.6508444  3
    827    825    837    839     1  0.0000000  0.6508444  3
    829    828    834   1274     1  0.0000000  1.0460000  1
    829    828    834   1274     1  0.0000000  0.0000000  3
    829    828    834    835     1  0.0000000  0.6508444  3
    829    828    834    836     1  0.0000000  0.6508444  3
    830    828    834   1274     1  0.0000000  1.0460000  1
    830    828    834   1274     1  0.0000000  0.0000000  3
    830    828    834    835     1  0.0000000  0.6508444  3
    830    828    834    836     1  0.0000000  0.6508444  3
    834   1274   1268   1269     1  0.0000000  1.6038667  3
    834   1274   1268   1270     1  0.0000000  1.6038667  3
    835    834   1274   1268     1  0.0000000  1.6038667  3
    836    834   1274   1268     1  0.0000000  1.6038667  3
    837   1288   1282   1283     1  0.0000000  1.6038667  3
    837   1288   1282   1284     1  0.0000000  1.6038667  3
    838    837   1288   1282     1  0.0000000  1.6038667  3
    839    837   1288   1282     1  0.0000000  1.6038667  3
    841    842    854    855     1  0.0000000  0.6508444  3
    841    842    854    856     1  0.0000000  0.6508444  3
    841    845    857    858     1  0.0000000  0.6508444  3
    841    845    857    859     1  0.0000000  0.6508444  3
    841    848    851    852     1  0.0000000  0.6508444  3
    841    848    851    853     1  0.0000000  0.6508444  3
    842    841    845    846     1  0.0000000  1.2552000  3
    842    841    845    847     1  0.0000000  1.2552000  3
    842    841    848    849     1  0.0000000  1.2552000  3
    842    841    848    850     1  0.0000000  1.2552000  3
    842    854    866    867     1  0.0000000  0.6508444  3
    842    854    866    868     1  0.0000000  0.6508444  3
    843    842    841    845     1  0.0000000  1.2552000  3
    843    842    841    848     1  0.0000000  1.2552000  3
    843    842    854    866     1  0.0000000  0.6508444  3
    843    842    854    855     1  0.0000000  0.6508444  3
    843    842    854    856     1  0.0000000  0.6508444  3
    844    842    841    845     1  0.0000000  1.2552000  3
    844    842    841    848     1  0.0000000  1.2552000  3
    844    842    854    866     1  0.0000000  0.6508444  3
    844    842    854    855     1  0.0000000  0.6508444  3
    844    842    854    856     1  0.0000000  0.6508444  3
    845    841    848    849     1  0.0000000  1.2552000  3
    845    841    848    850     1  0.0000000  1.2552000  3
    845    857    863    864     1  0.0000000  0.6508444  3
    845    857    863    865     1  0.0000000  0.6508444  3
    846    845    841    848     1  0.0000000  1.2552000  3
    846    845    857    863     1  0.0000000  0.6508444  3
    846    845    857    858     1  0.0000000  0.6508444  3
    846    845    857    859     1  0.0000000  0.6508444  3
    847    845    841    848     1  0.0000000  1.2552000  3
    847    845    857    863     1  0.0000000  0.6508444  3
    847    845    857    858     1  0.0000000  0.6508444  3
    847    845    857    859     1  0.0000000  0.6508444  3
    848    851    860    861     1  0.0000000  0.6508444  3
    848    851    860    862     1  0.0000000  0.6508444  3
    849    848    851    860     1  0.0000000  0.6508444  3
    849    848    851    852     1  0.0000000  0.6508444  3
    849    848    851    853     1  0.0000000  0.6508444  3
    850    848    851    860     1  0.0000000  0.6508444  3
    850    848    851    852     1  0.0000000  0.6508444  3
    850    848    851    853     1  0.0000000  0.6508444  3
    852    851    860    869     1  0.0000000  1.0460000  1
    852    851    860    869     1  0.0000000  0.0000000  3
    852    851    860    861     1  0.0000000  0.6508444  3
    852    851    860    862     1  0.0000000  0.6508444  3
    853    851    860    869     1  0.0000000  1.0460000  1
    853    851    860    869     1  0.0000000  0.0000000  3
    853    851    860    861     1  0.0000000  0.6508444  3
    853    851    860    862     1  0.0000000  0.6508444  3
    855    854    866   1316     1  0.0000000  1.0460000  1
    855    854    866   1316     1  0.0000000  0.0000000  3
    855    854    866    867     1  0.0000000  0.6508444  3
    855    854    866    868     1  0.0000000  0.6508444  3
    856    854    866   1316     1  0.0000000  1.0460000  1
    856    854    866   1316     1  0.0000000  0.0000000  3
    856    854    866    867     1  0.0000000  0.6508444  3
    856    854    866    868     1  0.0000000  0.6508444  3
    858    857    863   1302     1  0.0000000  1.0460000  1
    858    857    863   1302     1  0.0000000  0.0000000  3
    858    857    863    864     1  0.0000000  0.6508444  3
    858    857    863    865     1  0.0000000  0.6508444  3
    859    857    863   1302     1  0.0000000  1.0460000  1
    859    857    863   1302     1  0.0000000  0.0000000  3
    859    857    863    864     1  0.0000000  0.6508444  3
    859    857    863    865     1  0.0000000  0.6508444  3
    863   1302   1296   1297     1  0.0000000  1.6038667  3
    863   1302   1296   1298     1  0.0000000  1.6038667  3
    864    863   1302   1296     1  0.0000000  1.6038667  3
    865    863   1302   1296     1  0.0000000  1.6038667  3
    866   1316   1310   1311     1  0.0000000  1.6038667  3
    866   1316   1310   1312     1  0.0000000  1.6038667  3
    867    866   1316   1310     1  0.0000000  1.6038667  3
    868    866   1316   1310     1  0.0000000  1.6038667  3
    870    873    876    877     1  0.0000000  0.6508444  3
    870    873    876    878     1  0.0000000  0.6508444  3
    871    870    873    876     1  0.0000000  0.6508444  3
    871    870    873    874     1  0.0000000  0.6508444  3
    871    870    873    875     1  0.0000000  0.6508444  3
    871    870    879    880     1  0.0000000  0.6508444  3
    871    870    879    881     1  0.0000000  0.6508444  3
    871    870    879    883     1  0.0000000  0.6508444  3
    872    870    873    876     1  0.0000000  0.6508444  3
    872    870    873    874     1  0.0000000  0.6508444  3
    872    870    873    875     1  0.0000000  0.6508444  3
    872    870    879    880     1  0.0000000  0.6508444  3
    872    870    879    881     1  0.0000000  0.6508444  3
    872    870    879    883     1  0.0000000  0.6508444  3
    873    870    879    880     1  0.0000000  0.6508444  3
    873    870    879    881     1  0.0000000  0.6508444  3
    873    870    879    883     1  0.0000000  0.6508444  3
    874    873    870    879     1  0.0000000  0.6508444  3
    874    873    876    882     1  0.0000000  1.0460000  1
    874    873    876    882     1  0.0000000  0.0000000  3
    874    873    876    877     1  0.0000000  0.6508444  3
    874    873    876    878     1  0.0000000  0.6508444  3
    875    873    870    879     1  0.0000000  0.6508444  3
    875    873    876    882     1  0.0000000  1.0460000  1
    875    873    876    882     1  0.0000000  0.0000000  3
    875    873    876    877     1  0.0000000  0.6508444  3
    875    873    876    878     1  0.0000000  0.6508444  3
    884    887    890    891     1  0.0000000  0.6508444  3
    884    887    890    892     1  0.0000000  0.6508444  3
    885    884    887    890     1  0.0000000  0.6508444  3
    885    884    887    888     1  0.0000000  0.6508444  3
    885    884    887    889     1  0.0000000  0.6508444  3
    885    884    893    894     1  0.0000000  0.6508444  3
    885    884    893    895     1  0.0000000  0.6508444  3
    885    884    893    897     1  0.0000000  0.6508444  3
    886    884    887    890     1  0.0000000  0.6508444  3
    886    884    887    888     1  0.0000000  0.6508444  3
    886    884    887    889     1  0.0000000  0.6508444  3
    886    884    893    894     1  0.0000000  0.6508444  3
    886    884    893    895     1  0.0000000  0.6508444  3
    886    884    893    897     1  0.0000000  0.6508444  3
    887    884    893    894     1  0.0000000  0.6508444  3
    887    884    893    895     1  0.0000000  0.6508444  3
    887    884    893    897     1  0.0000000  0.6508444  3
    888    887    890    896     1  0.0000000  1.0460000  1
    888    887    890    896     1  0.0000000  0.0000000  3
    888    887    890    891     1  0.0000000  0.6508444  3
    888    887    890    892     1  0.0000000  0.6508444  3
    888    887    884    893     1  0.0000000  0.6508444  3
    889    887    890    896     1  0.0000000  1.0460000  1
    889    887    890    896     1  0.0000000  0.0000000  3
    889    887    890    891     1  0.0000000  0.6508444  3
    889    887    890    892     1  0.0000000  0.6508444  3
    889    887    884    893     1  0.0000000  0.6508444  3
    898    901    904    905     1  0.0000000  0.6508444  3
    898    901    904    906     1  0.0000000  0.6508444  3
    899    898    901    904     1  0.0000000  0.6508444  3
    899    898    901    902     1  0.0000000  0.6508444  3
    899    898    901    903     1  0.0000000  0.6508444  3
    899    898    907    908     1  0.0000000  0.6508444  3
    899    898    907    909     1  0.0000000  0.6508444  3
    899    898    907    911     1  0.0000000  0.6508444  3
    900    898    901    904     1  0.0000000  0.6508444  3
    900    898    901    902     1  0.0000000  0.6508444  3
    900    898    901    903     1  0.0000000  0.6508444  3
    900    898    907    908     1  0.0000000  0.6508444  3
    900    898    907    909     1  0.0000000  0.6508444  3
    900    898    907    911     1  0.0000000  0.6508444  3
    901    898    907    908     1  0.0000000  0.6508444  3
    901    898    907    909     1  0.0000000  0.6508444  3
    901    898    907    911     1  0.0000000  0.6508444  3
    902    901    898    907     1  0.0000000  0.6508444  3
    902    901    904    910     1  0.0000000  1.0460000  1
    902    901    904    910     1  0.0000000  0.0000000  3
    902    901    904    905     1  0.0000000  0.6508444  3
    902    901    904    906     1  0.0000000  0.6508444  3
    903    901    898    907     1  0.0000000  0.6508444  3
    903    901    904    910     1  0.0000000  1.0460000  1
    903    901    904    910     1  0.0000000  0.0000000  3
    903    901    904    905     1  0.0000000  0.6508444  3
    903    901    904    906     1  0.0000000  0.6508444  3
    912    915    918    919     1  0.0000000  0.6508444  3
    912    915    918    920     1  0.0000000  0.6508444  3
    913    912    915    918     1  0.0000000  0.6508444  3
    913    912    915    916     1  0.0000000  0.6508444  3
    913    912    915    917     1  0.0000000  0.6508444  3
    913    912    921    922     1  0.0000000  0.6508444  3
    913    912    921    923     1  0.0000000  0.6508444  3
    913    912    921    925     1  0.0000000  0.6508444  3
    914    912    915    918     1  0.0000000  0.6508444  3
    914    912    915    916     1  0.0000000  0.6508444  3
    914    912    915    917     1  0.0000000  0.6508444  3
    914    912    921    922     1  0.0000000  0.6508444  3
    914    912    921    923     1  0.0000000  0.6508444  3
    914    912    921    925     1  0.0000000  0.6508444  3
    915    912    921    922     1  0.0000000  0.6508444  3
    915    912    921    923     1  0.0000000  0.6508444  3
    915    912    921    925     1  0.0000000  0.6508444  3
    916    915    918    924     1  0.0000000  1.0460000  1
    916    915    918    924     1  0.0000000  0.0000000  3
    916    915    918    919     1  0.0000000  0.6508444  3
    916    915    918    920     1  0.0000000  0.6508444  3
    916    915    912    921     1  0.0000000  0.6508444  3
    917    915    918    924     1  0.0000000  1.0460000  1
    917    915    918    924     1  0.0000000  0.0000000  3
    917    915    918    919     1  0.0000000  0.6508444  3
    917    915    918    920     1  0.0000000  0.6508444  3
    917    915    912    921     1  0.0000000  0.6508444  3
    926    929    932    933     1  0.0000000  0.6508444  3
    926    929    932    934     1  0.0000000  0.6508444  3
    927    926    929    932     1  0.0000000  0.6508444  3
    927    926    929    930     1  0.0000000  0.6508444  3
    927    926    929    931     1  0.0000000  0.6508444  3
    927    926    935    936     1  0.0000000  0.6508444  3
    927    926    935    937     1  0.0000000  0.6508444  3
    927    926    935    939     1  0.0000000  0.6508444  3
    928    926    929    932     1  0.0000000  0.6508444  3
    928    926    929    930     1  0.0000000  0.6508444  3
    928    926    929    931     1  0.0000000  0.6508444  3
    928    926    935    936     1  0.0000000  0.6508444  3
    928    926    935    937     1  0.0000000  0.6508444  3
    928    926    935    939     1  0.0000000  0.6508444  3
    929    926    935    936     1  0.0000000  0.6508444  3
    929    926    935    937     1  0.0000000  0.6508444  3
    929    926    935    939     1  0.0000000  0.6508444  3
    930    929    926    935     1  0.0000000  0.6508444  3
    930    929    932    938     1  0.0000000  1.0460000  1
    930    929    932    938     1  0.0000000  0.0000000  3
    930    929    932    933     1  0.0000000  0.6508444  3
    930    929    932    934     1  0.0000000  0.6508444  3
    931    929    926    935     1  0.0000000  0.6508444  3
    931    929    932    938     1  0.0000000  1.0460000  1
    931    929    932    938     1  0.0000000  0.0000000  3
    931    929    932    933     1  0.0000000  0.6508444  3
    931    929    932    934     1  0.0000000  0.6508444  3
    940    943    946    947     1  0.0000000  0.6508444  3
    940    943    946    948     1  0.0000000  0.6508444  3
    941    940    943    946     1  0.0000000  0.6508444  3
    941    940    943    944     1  0.0000000  0.6508444  3
    941    940    943    945     1  0.0000000  0.6508444  3
    941    940    949    950     1  0.0000000  0.6508444  3
    941    940    949    951     1  0.0000000  0.6508444  3
    941    940    949    953     1  0.0000000  0.6508444  3
    942    940    943    946     1  0.0000000  0.6508444  3
    942    940    943    944     1  0.0000000  0.6508444  3
    942    940    943    945     1  0.0000000  0.6508444  3
    942    940    949    950     1  0.0000000  0.6508444  3
    942    940    949    951     1  0.0000000  0.6508444  3
    942    940    949    953     1  0.0000000  0.6508444  3
    943    940    949    950     1  0.0000000  0.6508444  3
    943    940    949    951     1  0.0000000  0.6508444  3
    943    940    949    953     1  0.0000000  0.6508444  3
    944    943    946    952     1  0.0000000  1.0460000  1
    944    943    946    952     1  0.0000000  0.0000000  3
    944    943    946    947     1  0.0000000  0.6508444  3
    944    943    946    948     1  0.0000000  0.6508444  3
    944    943    940    949     1  0.0000000  0.6508444  3
    945    943    946    952     1  0.0000000  1.0460000  1
    945    943    946    952     1  0.0000000  0.0000000  3
    945    943    946    947     1  0.0000000  0.6508444  3
    945    943    946    948     1  0.0000000  0.6508444  3
    945    943    940    949     1  0.0000000  0.6508444  3
    954    957    960    961     1  0.0000000  0.6508444  3
    954    957    960    962     1  0.0000000  0.6508444  3
    955    954    957    960     1  0.0000000  0.6508444  3
    955    954    957    958     1  0.0000000  0.6508444  3
    955    954    957    959     1  0.0000000  0.6508444  3
    955    954    963    964     1  0.0000000  0.6508444  3
    955    954    963    965     1  0.0000000  0.6508444  3
    955    954    963    967     1  0.0000000  0.6508444  3
    956    954    957    960     1  0.0000000  0.6508444  3
    956    954    957    958     1  0.0000000  0.6508444  3
    956    954    957    959     1  0.0000000  0.6508444  3
    956    954    963    964     1  0.0000000  0.6508444  3
    956    954    963    965     1  0.0000000  0.6508444  3
    956    954    963    967     1  0.0000000  0.6508444  3
    957    954    963    964     1  0.0000000  0.6508444  3
    957    954    963    965     1  0.0000000  0.6508444  3
    957    954    963    967     1  0.0000000  0.6508444  3
    958    957    954    963     1  0.0000000  0.6508444  3
    958    957    960    966     1  0.0000000  1.0460000  1
    958    957    960    966     1  0.0000000  0.0000000  3
    958    957    960    961     1  0.0000000  0.6508444  3
    958    957    960    962     1  0.0000000  0.6508444  3
    959    957    954    963     1  0.0000000  0.6508444  3
    959    957    960    966     1  0.0000000  1.0460000  1
    959    957    960    966     1  0.0000000  0.0000000  3
    959    957    960    961     1  0.0000000  0.6508444  3
    959    957    960    962     1  0.0000000  0.6508444  3
    968    971    974    975     1  0.0000000  0.6508444  3
    968    971    974    976     1  0.0000000  0.6508444  3
    969    968    971    974     1  0.0000000  0.6508444  3
    969    968    971    972     1  0.0000000  0.6508444  3
    969    968    971    973     1  0.0000000  0.6508444  3
    969    968    977    978     1  0.0000000  0.6508444  3
    969    968    977    979     1  0.0000000  0.6508444  3
    969    968    977    981     1  0.0000000  0.6508444  3
    970    968    971    974     1  0.0000000  0.6508444  3
    970    968    971    972     1  0.0000000  0.6508444  3
    970    968    971    973     1  0.0000000  0.6508444  3
    970    968    977    978     1  0.0000000  0.6508444  3
    970    968    977    979     1  0.0000000  0.6508444  3
    970    968    977    981     1  0.0000000  0.6508444  3
    971    968    977    978     1  0.0000000  0.6508444  3
    971    968    977    979     1  0.0000000  0.6508444  3
    971    968    977    981     1  0.0000000  0.6508444  3
    972    971    974    980     1  0.0000000  1.0460000  1
    972    971    974    980     1  0.0000000  0.0000000  3
    972    971    974    975     1  0.0000000  0.6508444  3
    972    971    974    976     1  0.0000000  0.6508444  3
    972    971    968    977     1  0.0000000  0.6508444  3
    973    971    974    980     1  0.0000000  1.0460000  1
    973    971    974    980     1  0.0000000  0.0000000  3
    973    971    974    975     1  0.0000000  0.6508444  3
    973    971    974    976     1  0.0000000  0.6508444  3
    973    971    968    977     1  0.0000000  0.6508444  3
    982    985    988    989     1  0.0000000  0.6508444  3
    982    985    988    990     1  0.0000000  0.6508444  3
    983    982    985    988     1  0.0000000  0.6508444  3
    983    982    985    986     1  0.0000000  0.6508444  3
    983    982    985    987     1  0.0000000  0.6508444  3
    983    982    991    992     1  0.0000000  0.6508444  3
    983    982    991    993     1  0.0000000  0.6508444  3
    983    982    991    995     1  0.0000000  0.6508444  3
    984    982    985    988     1  0.0000000  0.6508444  3
    984    982    985    986     1  0.0000000  0.6508444  3
    984    982    985    987     1  0.0000000  0.6508444  3
    984    982    991    992     1  0.0000000  0.6508444  3
    984    982    991    993     1  0.0000000  0.6508444  3
    984    982    991    995     1  0.0000000  0.6508444  3
    985    982    991    992     1  0.0000000  0.6508444  3
    985    982    991    993     1  0.0000000  0.6508444  3
    985    982    991    995     1  0.0000000  0.6508444  3
    986    985    982    991     1  0.0000000  0.6508444  3
    986    985    988    994     1  0.0000000  1.0460000  1
    986    985    988    994     1  0.0000000  0.0000000  3
    986    985    988    989     1  0.0000000  0.6508444  3
    986    985    988    990     1  0.0000000  0.6508444  3
    987    985    982    991     1  0.0000000  0.6508444  3
    987    985    988    994     1  0.0000000  1.0460000  1
    987    985    988    994     1  0.0000000  0.0000000  3
    987    985    988    989     1  0.0000000  0.6508444  3
    987    985    988    990     1  0.0000000  0.6508444  3
    996    999   1002   1003     1  0.0000000  0.6508444  3
    996    999   1002   1004     1  0.0000000  0.6508444  3
    997    996    999   1002     1  0.0000000  0.6508444  3
    997    996    999   1000     1  0.0000000  0.6508444  3
    997    996    999   1001     1  0.0000000  0.6508444  3
    997    996   1005   1006     1  0.0000000  0.6508444  3
    997    996   1005   1007     1  0.0000000  0.6508444  3
    997    996   1005   1009     1  0.0000000  0.6508444  3
    998    996    999   1002     1  0.0000000  0.6508444  3
    998    996    999   1000     1  0.0000000  0.6508444  3
    998    996    999   1001     1  0.0000000  0.6508444  3
    998    996   1005   1006     1  0.0000000  0.6508444  3
    998    996   1005   1007     1  0.0000000  0.6508444  3
    998    996   1005   1009     1  0.0000000  0.6508444  3
    999    996   1005   1006     1  0.0000000  0.6508444  3
    999    996   1005   1007     1  0.0000000  0.6508444  3
    999    996   1005   1009     1  0.0000000  0.6508444  3
   1000    999   1002   1008     1  0.0000000  1.0460000  1
   1000    999   1002   1008     1  0.0000000  0.0000000  3
   1000    999   1002   1003     1  0.0000000  0.6508444  3
   1000    999   1002   1004     1  0.0000000  0.6508444  3
   1000    999    996   1005     1  0.0000000  0.6508444  3
   1001    999   1002   1008     1  0.0000000  1.0460000  1
   1001    999   1002   1008     1  0.0000000  0.0000000  3
   1001    999   1002   1003     1  0.0000000  0.6508444  3
   1001    999   1002   1004     1  0.0000000  0.6508444  3
   1001    999    996   1005     1  0.0000000  0.6508444  3
   1010   1013   1016   1017     1  0.0000000  0.6508444  3
   1010   1013   1016   1018     1  0.0000000  0.6508444  3
   1011   1010   1013   1016     1  0.0000000  0.6508444  3
   1011   1010   1013   1014     1  0.0000000  0.6508444  3
   1011   1010   1013   1015     1  0.0000000  0.6508444  3
   1011   1010   1019   1020     1  0.0000000  0.6508444  3
   1011   1010   1019   1021     1  0.0000000  0.6508444  3
   1011   1010   1019   1023     1  0.0000000  0.6508444  3
   1012   1010   1013   1016     1  0.0000000  0.6508444  3
   1012   1010   1013   1014     1  0.0000000  0.6508444  3
   1012   1010   1013   1015     1  0.0000000  0.6508444  3
   1012   1010   1019   1020     1  0.0000000  0.6508444  3
   1012   1010   1019   1021     1  0.0000000  0.6508444  3
   1012   1010   1019   1023     1  0.0000000  0.6508444  3
   1013   1010   1019   1020     1  0.0000000  0.6508444  3
   1013   1010   1019   1021     1  0.0000000  0.6508444  3
   1013   1010   1019   1023     1  0.0000000  0.6508444  3
   1014   1013   1010   1019     1  0.0000000  0.6508444  3
   1014   1013   1016   1022     1  0.0000000  1.0460000  1
   1014   1013   1016   1022     1  0.0000000  0.0000000  3
   1014   1013   1016   1017     1  0.0000000  0.6508444  3
   1014   1013   1016   1018     1  0.0000000  0.6508444  3
   1015   1013   1010   1019     1  0.0000000  0.6508444  3
   1015   1013   1016   1022     1  0.0000000  1.0460000  1
   1015   1013   1016   1022     1  0.0000000  0.0000000  3
   1015   1013   1016   1017     1  0.0000000  0.6508444  3
   1015   1013   1016   1018     1  0.0000000  0.6508444  3
   1024   1027   1030   1031     1  0.0000000  0.6508444  3
   1024   1027   1030   1032     1  0.0000000  0.6508444  3
   1025   1024   1027   1030     1  0.0000000  0.6508444  3
   1025   1024   1027   1028     1  0.0000000  0.6508444  3
   1025   1024   1027   1029     1  0.0000000  0.6508444  3
   1025   1024   1033   1034     1  0.0000000  0.6508444  3
   1025   1024   1033   1035     1  0.0000000  0.6508444  3
   1025   1024   1033   1037     1  0.0000000  0.6508444  3
   1026   1024   1027   1030     1  0.0000000  0.6508444  3
   1026   1024   1027   1028     1  0.0000000  0.6508444  3
   1026   1024   1027   1029     1  0.0000000  0.6508444  3
   1026   1024   1033   1034     1  0.0000000  0.6508444  3
   1026   1024   1033   1035     1  0.0000000  0.6508444  3
   1026   1024   1033   1037     1  0.0000000  0.6508444  3
   1027   1024   1033   1034     1  0.0000000  0.6508444  3
   1027   1024   1033   1035     1  0.0000000  0.6508444  3
   1027   1024   1033   1037     1  0.0000000  0.6508444  3
   1028   1027   1030   1036     1  0.0000000  1.0460000  1
   1028   1027   1030   1036     1  0.0000000  0.0000000  3
   1028   1027   1030   1031     1  0.0000000  0.6508444  3
   1028   1027   1030   1032     1  0.0000000  0.6508444  3
   1028   1027   1024   1033     1  0.0000000  0.6508444  3
   1029   1027   1030   1036     1  0.0000000  1.0460000  1
   1029   1027   1030   1036     1  0.0000000  0.0000000  3
   1029   1027   1030   1031     1  0.0000000  0.6508444  3
   1029   1027   1030   1032     1  0.0000000  0.6508444  3
   1029   1027   1024   1033     1  0.0000000  0.6508444  3
   1038   1041   1044   1045     1  0.0000000  0.6508444  3
   1038   1041   1044   1046     1  0.0000000  0.6508444  3
   1039   1038   1041   1044     1  0.0000000  0.6508444  3
   1039   1038   1041   1042     1  0.0000000  0.6508444  3
   1039   1038   1041   1043     1  0.0000000  0.6508444  3
   1039   1038   1047   1048     1  0.0000000  0.6508444  3
   1039   1038   1047   1049     1  0.0000000  0.6508444  3
   1039   1038   1047   1051     1  0.0000000  0.6508444  3
   1040   1038   1041   1044     1  0.0000000  0.6508444  3
   1040   1038   1041   1042     1  0.0000000  0.6508444  3
   1040   1038   1041   1043     1  0.0000000  0.6508444  3
   1040   1038   1047   1048     1  0.0000000  0.6508444  3
   1040   1038   1047   1049     1  0.0000000  0.6508444  3
   1040   1038   1047   1051     1  0.0000000  0.6508444  3
   1041   1038   1047   1048     1  0.0000000  0.6508444  3
   1041   1038   1047   1049     1  0.0000000  0.6508444  3
   1041   1038   1047   1051     1  0.0000000  0.6508444  3
   1042   1041   1038   1047     1  0.0000000  0.6508444  3
   1042   1041   1044   1050     1  0.0000000  1.0460000  1
   1042   1041   1044   1050     1  0.0000000  0.0000000  3
   1042   1041   1044   1045     1  0.0000000  0.6508444  3
   1042   1041   1044   1046     1  0.0000000  0.6508444  3
   1043   1041   1038   1047     1  0.0000000  0.6508444  3
   1043   1041   1044   1050     1  0.0000000  1.0460000  1
   1043   1041   1044   1050     1  0.0000000  0.0000000  3
   1043   1041   1044   1045     1  0.0000000  0.6508444  3
   1043   1041   1044   1046     1  0.0000000  0.6508444  3
   1052   1055   1058   1059     1  0.0000000  0.6508444  3
   1052   1055   1058   1060     1  0.0000000  0.6508444  3
   1053   1052   1055   1058     1  0.0000000  0.6508444  3
   1053   1052   1055   1056     1  0.0000000  0.6508444  3
   1053   1052   1055   1057     1  0.0000000  0.6508444  3
   1053   1052   1061   1062     1  0.0000000  0.6508444  3
   1053   1052   1061   1063     1  0.0000000  0.6508444  3
   1053   1052   1061   1065     1  0.0000000  0.6508444  3
   1054   1052   1055   1058     1  0.0000000  0.6508444  3
   1054   1052   1055   1056     1  0.0000000  0.6508444  3
   1054   1052   1055   1057     1  0.0000000  0.6508444  3
   1054   1052   1061   1062     1  0.0000000  0.6508444  3
   1054   1052   1061   1063     1  0.0000000  0.6508444  3
   1054   1052   1061   1065     1  0.0000000  0.6508444  3
   1055   1052   1061   1062     1  0.0000000  0.6508444  3
   1055   1052   1061   1063     1  0.0000000  0.6508444  3
   1055   1052   1061   1065     1  0.0000000  0.6508444  3
   1056   1055   1058   1064     1  0.0000000  1.0460000  1
   1056   1055   1058   1064     1  0.0000000  0.0000000  3
   1056   1055   1058   1059     1  0.0000000  0.6508444  3
   1056   1055   1058   1060     1  0.0000000  0.6508444  3
   1056   1055   1052   1061     1  0.0000000  0.6508444  3
   1057   1055   1058   1064     1  0.0000000  1.0460000  1
   1057   1055   1058   1064     1  0.0000000  0.0000000  3
   1057   1055   1058   1059     1  0.0000000  0.6508444  3
   1057   1055   1058   1060     1  0.0000000  0.6508444  3
   1057   1055   1052   1061     1  0.0000000  0.6508444  3
   1066   1069   1072   1073     1  0.0000000  0.6508444  3
   1066   1069   1072   1074     1  0.0000000  0.6508444  3
   1067   1066   1069   1072     1  0.0000000  0.6508444  3
   1067   1066   1069   1070     1  0.0000000  0.6508444  3
   1067   1066   1069   1071     1  0.0000000  0.6508444  3
   1067   1066   1075   1076     1  0.0000000  0.6508444  3
   1067   1066   1075   1077     1  0.0000000  0.6508444  3
   1067   1066   1075   1079     1  0.0000000  0.6508444  3
   1068   1066   1069   1072     1  0.0000000  0.6508444  3
   1068   1066   1069   1070     1  0.0000000  0.6508444  3
   1068   1066   1069   1071     1  0.0000000  0.6508444  3
   1068   1066   1075   1076     1  0.0000000  0.6508444  3
   1068   1066   1075   1077     1  0.0000000  0.6508444  3
   1068   1066   1075   1079     1  0.0000000  0.6508444  3
   1069   1066   1075   1076     1  0.0000000  0.6508444  3
   1069   1066   1075   1077     1  0.0000000  0.6508444  3
   1069   1066   1075   1079     1  0.0000000  0.6508444  3
   1070   1069   1066   1075     1  0.0000000  0.6508444  3
   1070   1069   1072   1078     1  0.0000000  1.0460000  1
   1070   1069   1072   1078     1  0.0000000  0.0000000  3
   1070   1069   1072   1073     1  0.0000000  0.6508444  3
   1070   1069   1072   1074     1  0.0000000  0.6508444  3
   1071   1069   1066   1075     1  0.0000000  0.6508444  3
   1071   1069   1072   1078     1  0.0000000  1.0460000  1
   1071   1069   1072   1078     1  0.0000000  0.0000000  3
   1071   1069   1072   1073     1  0.0000000  0.6508444  3
   1071   1069   1072   1074     1  0.0000000  0.6508444  3
   1080   1083   1086   1087     1  0.0000000  0.6508444  3
   1080   1083   1086   1088     1  0.0000000  0.6508444  3
   1081   1080   1083   1086     1  0.0000000  0.6508444  3
   1081   1080   1083   1084     1  0.0000000  0.6508444  3
   1081   1080   1083   1085     1  0.0000000  0.6508444  3
   1081   1080   1089   1090     1  0.0000000  0.6508444  3
   1081   1080   1089   1091     1  0.0000000  0.6508444  3
   1081   1080   1089   1093     1  0.0000000  0.6508444  3
   1082   1080   1083   1086     1  0.0000000  0.6508444  3
   1082   1080   1083   1084     1  0.0000000  0.6508444  3
   1082   1080   1083   1085     1  0.0000000  0.6508444  3
   1082   1080   1089   1090     1  0.0000000  0.6508444  3
   1082   1080   1089   1091     1  0.0000000  0.6508444  3
   1082   1080   1089   1093     1  0.0000000  0.6508444  3
   1083   1080   1089   1090     1  0.0000000  0.6508444  3
   1083   1080   1089   1091     1  0.0000000  0.6508444  3
   1083   1080   1089   1093     1  0.0000000  0.6508444  3
   1084   1083   1086   1092     1  0.0000000  1.0460000  1
   1084   1083   1086   1092     1  0.0000000  0.0000000  3
   1084   1083   1086   1087     1  0.0000000  0.6508444  3
   1084   1083   1086   1088     1  0.0000000  0.6508444  3
   1084   1083   1080   1089     1  0.0000000  0.6508444  3
   1085   1083   1086   1092     1  0.0000000  1.0460000  1
   1085   1083   1086   1092     1  0.0000000  0.0000000  3
   1085   1083   1086   1087     1  0.0000000  0.6508444  3
   1085   1083   1086   1088     1  0.0000000  0.6508444  3
   1085   1083   1080   1089     1  0.0000000  0.6508444  3
   1094   1097   1100   1101     1  0.0000000  0.6508444  3
   1094   1097   1100   1102     1  0.0000000  0.6508444  3
   1095   1094   1097   1100     1  0.0000000  0.6508444  3
   1095   1094   1097   1098     1  0.0000000  0.6508444  3
   1095   1094   1097   1099     1  0.0000000  0.6508444  3
   1095   1094   1103   1104     1  0.0000000  0.6508444  3
   1095   1094   1103   1105     1  0.0000000  0.6508444  3
   1095   1094   1103   1107     1  0.0000000  0.6508444  3
   1096   1094   1097   1100     1  0.0000000  0.6508444  3
   1096   1094   1097   1098     1  0.0000000  0.6508444  3
   1096   1094   1097   1099     1  0.0000000  0.6508444  3
   1096   1094   1103   1104     1  0.0000000  0.6508444  3
   1096   1094   1103   1105     1  0.0000000  0.6508444  3
   1096   1094   1103   1107     1  0.0000000  0.6508444  3
   1097   1094   1103   1104     1  0.0000000  0.6508444  3
   1097   1094   1103   1105     1  0.0000000  0.6508444  3
   1097   1094   1103   1107     1  0.0000000  0.6508444  3
   1098   1097   1094   1103     1  0.0000000  0.6508444  3
   1098   1097   1100   1106     1  0.0000000  1.0460000  1
   1098   1097   1100   1106     1  0.0000000  0.0000000  3
   1098   1097   1100   1101     1  0.0000000  0.6508444  3
   1098   1097   1100   1102     1  0.0000000  0.6508444  3
   1099   1097   1094   1103     1  0.0000000  0.6508444  3
   1099   1097   1100   1106     1  0.0000000  1.0460000  1
   1099   1097   1100   1106     1  0.0000000  0.0000000  3
   1099   1097   1100   1101     1  0.0000000  0.6508444  3
   1099   1097   1100   1102     1  0.0000000  0.6508444  3
   1108   1111   1114   1115     1  0.0000000  0.6508444  3
   1108   1111   1114   1116     1  0.0000000  0.6508444  3
   1109   1108   1111   1114     1  0.0000000  0.6508444  3
   1109   1108   1111   1112     1  0.0000000  0.6508444  3
   1109   1108   1111   1113     1  0.0000000  0.6508444  3
   1109   1108   1117   1118     1  0.0000000  0.6508444  3
   1109   1108   1117   1119     1  0.0000000  0.6508444  3
   1109   1108   1117   1121     1  0.0000000  0.6508444  3
   1110   1108   1111   1114     1  0.0000000  0.6508444  3
   1110   1108   1111   1112     1  0.0000000  0.6508444  3
   1110   1108   1111   1113     1  0.0000000  0.6508444  3
   1110   1108   1117   1118     1  0.0000000  0.6508444  3
   1110   1108   1117   1119     1  0.0000000  0.6508444  3
   1110   1108   1117   1121     1  0.0000000  0.6508444  3
   1111   1108   1117   1118     1  0.0000000  0.6508444  3
   1111   1108   1117   1119     1  0.0000000  0.6508444  3
   1111   1108   1117   1121     1  0.0000000  0.6508444  3
   1112   1111   1114   1120     1  0.0000000  1.0460000  1
   1112   1111   1114   1120     1  0.0000000  0.0000000  3
   1112   1111   1114   1115     1  0.0000000  0.6508444  3
   1112   1111   1114   1116     1  0.0000000  0.6508444  3
   1112   1111   1108   1117     1  0.0000000  0.6508444  3
   1113   1111   1114   1120     1  0.0000000  1.0460000  1
   1113   1111   1114   1120     1  0.0000000  0.0000000  3
   1113   1111   1114   1115     1  0.0000000  0.6508444  3
   1113   1111   1114   1116     1  0.0000000  0.6508444  3
   1113   1111   1108   1117     1  0.0000000  0.6508444  3
   1122   1125   1128   1129     1  0.0000000  0.6508444  3
   1122   1125   1128   1130     1  0.0000000  0.6508444  3
   1123   1122   1125   1128     1  0.0000000  0.6508444  3
   1123   1122   1125   1126     1  0.0000000  0.6508444  3
   1123   1122   1125   1127     1  0.0000000  0.6508444  3
   1123   1122   1131   1132     1  0.0000000  0.6508444  3
   1123   1122   1131   1133     1  0.0000000  0.6508444  3
   1123   1122   1131   1135     1  0.0000000  0.6508444  3
   1124   1122   1125   1128     1  0.0000000  0.6508444  3
   1124   1122   1125   1126     1  0.0000000  0.6508444  3
   1124   1122   1125   1127     1  0.0000000  0.6508444  3
   1124   1122   1131   1132     1  0.0000000  0.6508444  3
   1124   1122   1131   1133     1  0.0000000  0.6508444  3
   1124   1122   1131   1135     1  0.0000000  0.6508444  3
   1125   1122   1131   1132     1  0.0000000  0.6508444  3
   1125   1122   1131   1133     1  0.0000000  0.6508444  3
   1125   1122   1131   1135     1  0.0000000  0.6508444  3
   1126   1125   1122   1131     1  0.0000000  0.6508444  3
   1126   1125   1128   1134     1  0.0000000  1.0460000  1
   1126   1125   1128   1134     1  0.0000000  0.0000000  3
   1126   1125   1128   1129     1  0.0000000  0.6508444  3
   1126   1125   1128   1130     1  0.0000000  0.6508444  3
   1127   1125   1122   1131     1  0.0000000  0.6508444  3
   1127   1125   1128   1134     1  0.0000000  1.0460000  1
   1127   1125   1128   1134     1  0.0000000  0.0000000  3
   1127   1125   1128   1129     1  0.0000000  0.6508444  3
   1127   1125   1128   1130     1  0.0000000  0.6508444  3
   1136   1139   1142   1143     1  0.0000000  0.6508444  3
   1136   1139   1142   1144     1  0.0000000  0.6508444  3
   1137   1136   1139   1142     1  0.0000000  0.6508444  3
   1137   1136   1139   1140     1  0.0000000  0.6508444  3
   1137   1136   1139   1141     1  0.0000000  0.6508444  3
   1137   1136   1145   1146     1  0.0000000  0.6508444  3
   1137   1136   1145   1147     1  0.0000000  0.6508444  3
   1137   1136   1145   1149     1  0.0000000  0.6508444  3
   1138   1136   1139   1142     1  0.0000000  0.6508444  3
   1138   1136   1139   1140     1  0.0000000  0.6508444  3
   1138   1136   1139   1141     1  0.0000000  0.6508444  3
   1138   1136   1145   1146     1  0.0000000  0.6508444  3
   1138   1136   1145   1147     1  0.0000000  0.6508444  3
   1138   1136   1145   1149     1  0.0000000  0.6508444  3
   1139   1136   1145   1146     1  0.0000000  0.6508444  3
   1139   1136   1145   1147     1  0.0000000  0.6508444  3
   1139   1136   1145   1149     1  0.0000000  0.6508444  3
   1140   1139   1142   1148     1  0.0000000  1.0460000  1
   1140   1139   1142   1148     1  0.0000000  0.0000000  3
   1140   1139   1142   1143     1  0.0000000  0.6508444  3
   1140   1139   1142   1144     1  0.0000000  0.6508444  3
   1140   1139   1136   1145     1  0.0000000  0.6508444  3
   1141   1139   1142   1148     1  0.0000000  1.0460000  1
   1141   1139   1142   1148     1  0.0000000  0.0000000  3
   1141   1139   1142   1143     1  0.0000000  0.6508444  3
   1141   1139   1142   1144     1  0.0000000  0.6508444  3
   1141   1139   1136   1145     1  0.0000000  0.6508444  3
   1150   1153   1156   1157     1  0.0000000  0.6508444  3
   1150   1153   1156   1158     1  0.0000000  0.6508444  3
   1151   1150   1153   1156     1  0.0000000  0.6508444  3
   1151   1150   1153   1154     1  0.0000000  0.6508444  3
   1151   1150   1153   1155     1  0.0000000  0.6508444  3
   1151   1150   1159   1160     1  0.0000000  0.6508444  3
   1151   1150   1159   1161     1  0.0000000  0.6508444  3
   1151   1150   1159   1163     1  0.0000000  0.6508444  3
   1152   1150   1153   1156     1  0.0000000  0.6508444  3
   1152   1150   1153   1154     1  0.0000000  0.6508444  3
   1152   1150   1153   1155     1  0.0000000  0.6508444  3
   1152   1150   1159   1160     1  0.0000000  0.6508444  3
   1152   1150   1159   1161     1  0.0000000  0.6508444  3
   1152   1150   1159   1163     1  0.0000000  0.6508444  3
   1153   1150   1159   1160     1  0.0000000  0.6508444  3
   1153   1150   1159   1161     1  0.0000000  0.6508444  3
   1153   1150   1159   1163     1  0.0000000  0.6508444  3
   1154   1153   1150   1159     1  0.0000000  0.6508444  3
   1154   1153   1156   1162     1  0.0000000  1.0460000  1
   1154   1153   1156   1162     1  0.0000000  0.0000000  3
   1154   1153   1156   1157     1  0.0000000  0.6508444  3
   1154   1153   1156   1158     1  0.0000000  0.6508444  3
   1155   1153   1150   1159     1  0.0000000  0.6508444  3
   1155   1153   1156   1162     1  0.0000000  1.0460000  1
   1155   1153   1156   1162     1  0.0000000  0.0000000  3
   1155   1153   1156   1157     1  0.0000000  0.6508444  3
   1155   1153   1156   1158     1  0.0000000  0.6508444  3
   1164   1167   1170   1171     1  0.0000000  0.6508444  3
   1164   1167   1170   1172     1  0.0000000  0.6508444  3
   1165   1164   1167   1170     1  0.0000000  0.6508444  3
   1165   1164   1167   1168     1  0.0000000  0.6508444  3
   1165   1164   1167   1169     1  0.0000000  0.6508444  3
   1165   1164   1173   1174     1  0.0000000  0.6508444  3
   1165   1164   1173   1175     1  0.0000000  0.6508444  3
   1165   1164   1173   1177     1  0.0000000  0.6508444  3
   1166   1164   1167   1170     1  0.0000000  0.6508444  3
   1166   1164   1167   1168     1  0.0000000  0.6508444  3
   1166   1164   1167   1169     1  0.0000000  0.6508444  3
   1166   1164   1173   1174     1  0.0000000  0.6508444  3
   1166   1164   1173   1175     1  0.0000000  0.6508444  3
   1166   1164   1173   1177     1  0.0000000  0.6508444  3
   1167   1164   1173   1174     1  0.0000000  0.6508444  3
   1167   1164   1173   1175     1  0.0000000  0.6508444  3
   1167   1164   1173   1177     1  0.0000000  0.6508444  3
   1168   1167   1170   1176     1  0.0000000  1.0460000  1
   1168   1167   1170   1176     1  0.0000000  0.0000000  3
   1168   1167   1170   1171     1  0.0000000  0.6508444  3
   1168   1167   1170   1172     1  0.0000000  0.6508444  3
   1168   1167   1164   1173     1  0.0000000  0.6508444  3
   1169   1167   1170   1176     1  0.0000000  1.0460000  1
   1169   1167   1170   1176     1  0.0000000  0.0000000  3
   1169   1167   1170   1171     1  0.0000000  0.6508444  3
   1169   1167   1170   1172     1  0.0000000  0.6508444  3
   1169   1167   1164   1173     1  0.0000000  0.6508444  3
   1178   1181   1184   1185     1  0.0000000  0.6508444  3
   1178   1181   1184   1186     1  0.0000000  0.6508444  3
   1179   1178   1181   1184     1  0.0000000  0.6508444  3
   1179   1178   1181   1182     1  0.0000000  0.6508444  3
   1179   1178   1181   1183     1  0.0000000  0.6508444  3
   1179   1178   1187   1188     1  0.0000000  0.6508444  3
   1179   1178   1187   1189     1  0.0000000  0.6508444  3
   1179   1178   1187   1191     1  0.0000000  0.6508444  3
   1180   1178   1181   1184     1  0.0000000  0.6508444  3
   1180   1178   1181   1182     1  0.0000000  0.6508444  3
   1180   1178   1181   1183     1  0.0000000  0.6508444  3
   1180   1178   1187   1188     1  0.0000000  0.6508444  3
   1180   1178   1187   1189     1  0.0000000  0.6508444  3
   1180   1178   1187   1191     1  0.0000000  0.6508444  3
   1181   1178   1187   1188     1  0.0000000  0.6508444  3
   1181   1178   1187   1189     1  0.0000000  0.6508444  3
   1181   1178   1187   1191     1  0.0000000  0.6508444  3
   1182   1181   1178   1187     1  0.0000000  0.6508444  3
   1182   1181   1184   1190     1  0.0000000  1.0460000  1
   1182   1181   1184   1190     1  0.0000000  0.0000000  3
   1182   1181   1184   1185     1  0.0000000  0.6508444  3
   1182   1181   1184   1186     1  0.0000000  0.6508444  3
   1183   1181   1178   1187     1  0.0000000  0.6508444  3
   1183   1181   1184   1190     1  0.0000000  1.0460000  1
   1183   1181   1184   1190     1  0.0000000  0.0000000  3
   1183   1181   1184   1185     1  0.0000000  0.6508444  3
   1183   1181   1184   1186     1  0.0000000  0.6508444  3
   1192   1195   1198   1199     1  0.0000000  0.6508444  3
   1192   1195   1198   1200     1  0.0000000  0.6508444  3
   1193   1192   1195   1198     1  0.0000000  0.6508444  3
   1193   1192   1195   1196     1  0.0000000  0.6508444  3
   1193   1192   1195   1197     1  0.0000000  0.6508444  3
   1193   1192   1201   1202     1  0.0000000  0.6508444  3
   1193   1192   1201   1203     1  0.0000000  0.6508444  3
   1193   1192   1201   1205     1  0.0000000  0.6508444  3
   1194   1192   1195   1198     1  0.0000000  0.6508444  3
   1194   1192   1195   1196     1  0.0000000  0.6508444  3
   1194   1192   1195   1197     1  0.0000000  0.6508444  3
   1194   1192   1201   1202     1  0.0000000  0.6508444  3
   1194   1192   1201   1203     1  0.0000000  0.6508444  3
   1194   1192   1201   1205     1  0.0000000  0.6508444  3
   1195   1192   1201   1202     1  0.0000000  0.6508444  3
   1195   1192   1201   1203     1  0.0000000  0.6508444  3
   1195   1192   1201   1205     1  0.0000000  0.6508444  3
   1196   1195   1198   1204     1  0.0000000  1.0460000  1
   1196   1195   1198   1204     1  0.0000000  0.0000000  3
   1196   1195   1198   1199     1  0.0000000  0.6508444  3
   1196   1195   1198   1200     1  0.0000000  0.6508444  3
   1196   1195   1192   1201     1  0.0000000  0.6508444  3
   1197   1195   1198   1204     1  0.0000000  1.0460000  1
   1197   1195   1198   1204     1  0.0000000  0.0000000  3
   1197   1195   1198   1199     1  0.0000000  0.6508444  3
   1197   1195   1198   1200     1  0.0000000  0.6508444  3
   1197   1195   1192   1201     1  0.0000000  0.6508444  3
   1206   1209   1212   1213     1  0.0000000  0.6508444  3
   1206   1209   1212   1214     1  0.0000000  0.6508444  3
   1207   1206   1209   1212     1  0.0000000  0.6508444  3
   1207   1206   1209   1210     1  0.0000000  0.6508444  3
   1207   1206   1209   1211     1  0.0000000  0.6508444  3
   1207   1206   1215   1216     1  0.0000000  0.6508444  3
   1207   1206   1215   1217     1  0.0000000  0.6508444  3
   1207   1206   1215   1219     1  0.0000000  0.6508444  3
   1208   1206   1209   1212     1  0.0000000  0.6508444  3
   1208   1206   1209   1210     1  0.0000000  0.6508444  3
   1208   1206   1209   1211     1  0.0000000  0.6508444  3
   1208   1206   1215   1216     1  0.0000000  0.6508444  3
   1208   1206   1215   1217     1  0.0000000  0.6508444  3
   1208   1206   1215   1219     1  0.0000000  0.6508444  3
   1209   1206   1215   1216     1  0.0000000  0.6508444  3
   1209   1206   1215   1217     1  0.0000000  0.6508444  3
   1209   1206   1215   1219     1  0.0000000  0.6508444  3
   1210   1209   1206   1215     1  0.0000000  0.6508444  3
   1210   1209   1212   1218     1  0.0000000  1.0460000  1
   1210   1209   1212   1218     1  0.0000000  0.0000000  3
   1210   1209   1212   1213     1  0.0000000  0.6508444  3
   1210   1209   1212   1214     1  0.0000000  0.6508444  3
   1211   1209   1206   1215     1  0.0000000  0.6508444  3
   1211   1209   1212   1218     1  0.0000000  1.0460000  1
   1211   1209   1212   1218     1  0.0000000  0.0000000  3
   1211   1209   1212   1213     1  0.0000000  0.6508444  3
   1211   1209   1212   1214     1  0.0000000  0.6508444  3
   1220   1223   1226   1227     1  0.0000000  0.6508444  3
   1220   1223   1226   1228     1  0.0000000  0.6508444  3
   1221   1220   1223   1226     1  0.0000000  0.6508444  3
   1221   1220   1223   1224     1  0.0000000  0.6508444  3
   1221   1220   1223   1225     1  0.0000000  0.6508444  3
   1221   1220   1229   1230     1  0.0000000  0.6508444  3
   1221   1220   1229   1231     1  0.0000000  0.6508444  3
   1221   1220   1229   1233     1  0.0000000  0.6508444  3
   1222   1220   1223   1226     1  0.0000000  0.6508444  3
   1222   1220   1223   1224     1  0.0000000  0.6508444  3
   1222   1220   1223   1225     1  0.0000000  0.6508444  3
   1222   1220   1229   1230     1  0.0000000  0.6508444  3
   1222   1220   1229   1231     1  0.0000000  0.6508444  3
   1222   1220   1229   1233     1  0.0000000  0.6508444  3
   1223   1220   1229   1230     1  0.0000000  0.6508444  3
   1223   1220   1229   1231     1  0.0000000  0.6508444  3
   1223   1220   1229   1233     1  0.0000000  0.6508444  3
   1224   1223   1226   1232     1  0.0000000  1.0460000  1
   1224   1223   1226   1232     1  0.0000000  0.0000000  3
   1224   1223   1226   1227     1  0.0000000  0.6508444  3
   1224   1223   1226   1228     1  0.0000000  0.6508444  3
   1224   1223   1220   1229     1  0.0000000  0.6508444  3
   1225   1223   1226   1232     1  0.0000000  1.0460000  1
   1225   1223   1226   1232     1  0.0000000  0.0000000  3
   1225   1223   1226   1227     1  0.0000000  0.6508444  3
   1225   1223   1226   1228     1  0.0000000  0.6508444  3
   1225   1223   1220   1229     1  0.0000000  0.6508444  3
   1234   1237   1240   1241     1  0.0000000  0.6508444  3
   1234   1237   1240   1242     1  0.0000000  0.6508444  3
   1235   1234   1237   1240     1  0.0000000  0.6508444  3
   1235   1234   1237   1238     1  0.0000000  0.6508444  3
   1235   1234   1237   1239     1  0.0000000  0.6508444  3
   1235   1234   1243   1244     1  0.0000000  0.6508444  3
   1235   1234   1243   1245     1  0.0000000  0.6508444  3
   1235   1234   1243   1247     1  0.0000000  0.6508444  3
   1236   1234   1237   1240     1  0.0000000  0.6508444  3
   1236   1234   1237   1238     1  0.0000000  0.6508444  3
   1236   1234   1237   1239     1  0.0000000  0.6508444  3
   1236   1234   1243   1244     1  0.0000000  0.6508444  3
   1236   1234   1243   1245     1  0.0000000  0.6508444  3
   1236   1234   1243   1247     1  0.0000000  0.6508444  3
   1237   1234   1243   1244     1  0.0000000  0.6508444  3
   1237   1234   1243   1245     1  0.0000000  0.6508444  3
   1237   1234   1243   1247     1  0.0000000  0.6508444  3
   1238   1237   1234   1243     1  0.0000000  0.6508444  3
   1238   1237   1240   1246     1  0.0000000  1.0460000  1
   1238   1237   1240   1246     1  0.0000000  0.0000000  3
   1238   1237   1240   1241     1  0.0000000  0.6508444  3
   1238   1237   1240   1242     1  0.0000000  0.6508444  3
   1239   1237   1234   1243     1  0.0000000  0.6508444  3
   1239   1237   1240   1246     1  0.0000000  1.0460000  1
   1239   1237   1240   1246     1  0.0000000  0.0000000  3
   1239   1237   1240   1241     1  0.0000000  0.6508444  3
   1239   1237   1240   1242     1  0.0000000  0.6508444  3
   1248   1251   1254   1255     1  0.0000000  0.6508444  3
   1248   1251   1254   1256     1  0.0000000  0.6508444  3
   1249   1248   1251   1254     1  0.0000000  0.6508444  3
   1249   1248   1251   1252     1  0.0000000  0.6508444  3
   1249   1248   1251   1253     1  0.0000000  0.6508444  3
   1249   1248   1257   1258     1  0.0000000  0.6508444  3
   1249   1248   1257   1259     1  0.0000000  0.6508444  3
   1249   1248   1257   1261     1  0.0000000  0.6508444  3
   1250   1248   1251   1254     1  0.0000000  0.6508444  3
   1250   1248   1251   1252     1  0.0000000  0.6508444  3
   1250   1248   1251   1253     1  0.0000000  0.6508444  3
   1250   1248   1257   1258     1  0.0000000  0.6508444  3
   1250   1248   1257   1259     1  0.0000000  0.6508444  3
   1250   1248   1257   1261     1  0.0000000  0.6508444  3
   1251   1248   1257   1258     1  0.0000000  0.6508444  3
   1251   1248   1257   1259     1  0.0000000  0.6508444  3
   1251   1248   1257   1261     1  0.0000000  0.6508444  3
   1252   1251   1254   1260     1  0.0000000  1.0460000  1
   1252   1251   1254   1260     1  0.0000000  0.0000000  3
   1252   1251   1254   1255     1  0.0000000  0.6508444  3
   1252   1251   1254   1256     1  0.0000000  0.6508444  3
   1252   1251   1248   1257     1  0.0000000  0.6508444  3
   1253   1251   1254   1260     1  0.0000000  1.0460000  1
   1253   1251   1254   1260     1  0.0000000  0.0000000  3
   1253   1251   1254   1255     1  0.0000000  0.6508444  3
   1253   1251   1254   1256     1  0.0000000  0.6508444  3
   1253   1251   1248   1257     1  0.0000000  0.6508444  3
   1262   1265   1268   1269     1  0.0000000  0.6508444  3
   1262   1265   1268   1270     1  0.0000000  0.6508444  3
   1263   1262   1265   1268     1  0.0000000  0.6508444  3
   1263   1262   1265   1266     1  0.0000000  0.6508444  3
   1263   1262   1265   1267     1  0.0000000  0.6508444  3
   1263   1262   1271   1272     1  0.0000000  0.6508444  3
   1263   1262   1271   1273     1  0.0000000  0.6508444  3
   1263   1262   1271   1275     1  0.0000000  0.6508444  3
   1264   1262   1265   1268     1  0.0000000  0.6508444  3
   1264   1262   1265   1266     1  0.0000000  0.6508444  3
   1264   1262   1265   1267     1  0.0000000  0.6508444  3
   1264   1262   1271   1272     1  0.0000000  0.6508444  3
   1264   1262   1271   1273     1  0.0000000  0.6508444  3
   1264   1262   1271   1275     1  0.0000000  0.6508444  3
   1265   1262   1271   1272     1  0.0000000  0.6508444  3
   1265   1262   1271   1273     1  0.0000000  0.6508444  3
   1265   1262   1271   1275     1  0.0000000  0.6508444  3
   1266   1265   1262   1271     1  0.0000000  0.6508444  3
   1266   1265   1268   1274     1  0.0000000  1.0460000  1
   1266   1265   1268   1274     1  0.0000000  0.0000000  3
   1266   1265   1268   1269     1  0.0000000  0.6508444  3
   1266   1265   1268   1270     1  0.0000000  0.6508444  3
   1267   1265   1262   1271     1  0.0000000  0.6508444  3
   1267   1265   1268   1274     1  0.0000000  1.0460000  1
   1267   1265   1268   1274     1  0.0000000  0.0000000  3
   1267   1265   1268   1269     1  0.0000000  0.6508444  3
   1267   1265   1268   1270     1  0.0000000  0.6508444  3
   1276   1279   1282   1283     1  0.0000000  0.6508444  3
   1276   1279   1282   1284     1  0.0000000  0.6508444  3
   1277   1276   1279   1282     1  0.0000000  0.6508444  3
   1277   1276   1279   1280     1  0.0000000  0.6508444  3
   1277   1276   1279   1281     1  0.0000000  0.6508444  3
   1277   1276   1285   1286     1  0.0000000  0.6508444  3
   1277   1276   1285   1287     1  0.0000000  0.6508444  3
   1277   1276   1285   1289     1  0.0000000  0.6508444  3
   1278   1276   1279   1282     1  0.0000000  0.6508444  3
   1278   1276   1279   1280     1  0.0000000  0.6508444  3
   1278   1276   1279   1281     1  0.0000000  0.6508444  3
   1278   1276   1285   1286     1  0.0000000  0.6508444  3
   1278   1276   1285   1287     1  0.0000000  0.6508444  3
   1278   1276   1285   1289     1  0.0000000  0.6508444  3
   1279   1276   1285   1286     1  0.0000000  0.6508444  3
   1279   1276   1285   1287     1  0.0000000  0.6508444  3
   1279   1276   1285   1289     1  0.0000000  0.6508444  3
   1280   1279   1282   1288     1  0.0000000  1.0460000  1
   1280   1279   1282   1288     1  0.0000000  0.0000000  3
   1280   1279   1282   1283     1  0.0000000  0.6508444  3
   1280   1279   1282   1284     1  0.0000000  0.6508444  3
   1280   1279   1276   1285     1  0.0000000  0.6508444  3
   1281   1279   1282   1288     1  0.0000000  1.0460000  1
   1281   1279   1282   1288     1  0.0000000  0.0000000  3
   1281   1279   1282   1283     1  0.0000000  0.6508444  3
   1281   1279   1282   1284     1  0.0000000  0.6508444  3
   1281   1279   1276   1285     1  0.0000000  0.6508444  3
   1290   1293   1296   1297     1  0.0000000  0.6508444  3
   1290   1293   1296   1298     1  0.0000000  0.6508444  3
   1291   1290   1293   1296     1  0.0000000  0.6508444  3
   1291   1290   1293   1294     1  0.0000000  0.6508444  3
   1291   1290   1293   1295     1  0.0000000  0.6508444  3
   1291   1290   1299   1300     1  0.0000000  0.6508444  3
   1291   1290   1299   1301     1  0.0000000  0.6508444  3
   1291   1290   1299   1303     1  0.0000000  0.6508444  3
   1292   1290   1293   1296     1  0.0000000  0.6508444  3
   1292   1290   1293   1294     1  0.0000000  0.6508444  3
   1292   1290   1293   1295     1  0.0000000  0.6508444  3
   1292   1290   1299   1300     1  0.0000000  0.6508444  3
   1292   1290   1299   1301     1  0.0000000  0.6508444  3
   1292   1290   1299   1303     1  0.0000000  0.6508444  3
   1293   1290   1299   1300     1  0.0000000  0.6508444  3
   1293   1290   1299   1301     1  0.0000000  0.6508444  3
   1293   1290   1299   1303     1  0.0000000  0.6508444  3
   1294   1293   1290   1299     1  0.0000000  0.6508444  3
   1294   1293   1296   1302     1  0.0000000  1.0460000  1
   1294   1293   1296   1302     1  0.0000000  0.0000000  3
   1294   1293   1296   1297     1  0.0000000  0.6508444  3
   1294   1293   1296   1298     1  0.0000000  0.6508444  3
   1295   1293   1290   1299     1  0.0000000  0.6508444  3
   1295   1293   1296   1302     1  0.0000000  1.0460000  1
   1295   1293   1296   1302     1  0.0000000  0.0000000  3
   1295   1293   1296   1297     1  0.0000000  0.6508444  3
   1295   1293   1296   1298     1  0.0000000  0.6508444  3
   1304   1307   1310   1311     1  0.0000000  0.6508444  3
   1304   1307   1310   1312     1  0.0000000  0.6508444  3
   1305   1304   1307   1310     1  0.0000000  0.6508444  3
   1305   1304   1307   1308     1  0.0000000  0.6508444  3
   1305   1304   1307   1309     1  0.0000000  0.6508444  3
   1305   1304   1313   1314     1  0.0000000  0.6508444  3
   1305   1304   1313   1315     1  0.0000000  0.6508444  3
   1305   1304   1313   1317     1  0.0000000  0.6508444  3
   1306   1304   1307   1310     1  0.0000000  0.6508444  3
   1306   1304   1307   1308     1  0.0000000  0.6508444  3
   1306   1304   1307   1309     1  0.0000000  0.6508444  3
   1306   1304   1313   1314     1  0.0000000  0.6508444  3
   1306   1304   1313   1315     1  0.0000000  0.6508444  3
   1306   1304   1313   1317     1  0.0000000  0.6508444  3
   1307   1304   1313   1314     1  0.0000000  0.6508444  3
   1307   1304   1313   1315     1  0.0000000  0.6508444  3
   1307   1304   1313   1317     1  0.0000000  0.6508444  3
   1308   1307   1310   1316     1  0.0000000  1.0460000  1
   1308   1307   1310   1316     1  0.0000000  0.0000000  3
   1308   1307   1310   1311     1  0.0000000  0.6508444  3
   1308   1307   1310   1312     1  0.0000000  0.6508444  3
   1308   1307   1304   1313     1  0.0000000  0.6508444  3
   1309   1307   1310   1316     1  0.0000000  1.0460000  1
   1309   1307   1310   1316     1  0.0000000  0.0000000  3
   1309   1307   1310   1311     1  0.0000000  0.6508444  3
   1309   1307   1310   1312     1  0.0000000  0.6508444  3
   1309   1307   1304   1313     1  0.0000000  0.6508444  3

;[ system ]
;; Name
;Generic title
;
;[ molecules ]
;; Compound       #mols
;g4pocore_petim       1
